default_name
198870
  86.4612013  70.1085673  52.1826446  85.5804225  70.3885329  52.5900130
  86.2766207  69.5797711  51.3421656  87.0734837  70.9111564  52.1500795
  87.1037483  69.1709220  53.0940642  87.2622493  68.2165802  52.5918605
  88.4583247  69.7138095  53.5503786  89.0794384  69.8763661  52.6695311
  88.3049532  70.6617423  54.0661311  89.1825645  68.7649882  54.4855758
  89.4404231  69.0920934  55.6428183  89.5203401  67.5832672  53.9824685
  90.0046877  66.9114891  54.5605873  89.2913228  67.3617570  53.0240400
  86.2113379  68.8965683  54.3007173  86.2533833  69.6195688  55.2950715
  85.4031419  67.8449047  54.2024941  85.3788081  67.2906729  53.3584950
  84.5043625  67.4867609  55.2889446  83.8825861  68.3406725  55.5578839
  83.5945571  66.3378077  54.8534910  83.2644524  66.6341003  53.8578300
  84.2007053  65.4347967  54.7809963  82.3758160  66.0634246  55.7330535
  82.6975786  65.9917612  56.7720116  81.3580184  67.1799985  55.5950908
  81.0354170  67.2519737  54.5564153  80.4968165  66.9676347  56.2285999
  81.8095332  68.1237450  55.9009948  81.7567728  64.7243909  55.3779477
  82.4899129  63.9324953  55.5312659  80.8898634  64.5442794  56.0136593
  81.4452132  64.7331191  54.3334605  85.2983955  67.0898208  56.5272079
  86.2811886  66.3492911  56.4436295  84.8665457  67.5851621  57.6844688
  84.0503489  68.1787415  57.7242873  85.5824422  67.3154225  58.9186433
  86.6476275  67.4955743  58.7736440  85.0826547  68.2228481  60.0376948
  85.7719502  68.1522638  60.8791155  85.0606713  69.2493709  59.6718156
  83.7846726  67.8440897  60.4582097  83.4928231  68.4287717  61.1614668
  85.4134693  65.8544542  59.3233999  84.4596288  65.1903687  58.9102451
  86.3346953  65.3259311  60.1332220  87.5712206  65.8502593  60.6179881
  87.3682450  66.4503316  61.5050137  88.0059292  66.4825913  59.8438540
  88.4247902  64.6382455  60.9193655  89.1733396  64.8698504  61.6770805
  88.9205455  64.2796450  60.0172936  87.4086713  63.6091250  61.4317894
  87.1402923  63.7202938  62.4823669  87.7474819  62.5892235  61.2498331
  86.2054286  63.9203522  60.5551083  86.2898089  63.3024657  59.6611315
  84.8944006  63.6145618  61.2593034  84.2762805  62.5716653  60.9968143
  84.4400898  64.5086016  62.1406225  84.9634164  65.3433419  62.3629672
  83.1941187  64.2643862  62.8538797  83.2227139  63.2828593  63.3270461
  82.9901093  65.3220611  63.9361832  83.8960583  65.2671316  64.5397877
  82.9271097  66.3028488  63.4648165  81.7682220  65.1072360  64.8305762
  80.8776042  65.0505845  64.2047237  81.9084462  63.8238256  65.6273471
  82.7986533  63.8799191  66.2538324  81.0293007  63.6888200  66.2574085
  81.9982755  62.9793371  64.9440680  81.5683614  66.2920022  65.7541359
  81.4173929  67.1941095  65.1612527  80.6943372  66.1202377  66.3823715
  82.4493980  66.4150271  66.3840076  82.0090519  64.2458004  61.8968366
  81.1178935  63.3992954  62.0205981  81.9750468  65.1770990  60.9414913
  82.6467410  65.9307487  60.9108569  80.9085221  65.1610997  59.9478958
  79.9382038  65.1863362  60.4438238  81.0208612  66.3793585  59.0325791
  82.0525222  66.4284055  58.6841984  80.3589615  66.2084521  58.1835915
  80.6519141  67.6882200  59.7056530  79.5644344  67.7469556  59.7508074
  81.0566108  67.6701569  60.7175786  81.1919460  68.8950073  58.9679966
  82.4280374  68.9987204  58.8226193  80.3825278  69.7402036  58.5330319
  80.9312349  63.8738562  59.1313455  79.8779544  63.2958640  58.8483008
  82.1197109  63.4152223  58.7303110  82.9716201  63.9262029  58.9126533
  82.2063747  62.1763853  57.9613114  81.5921711  62.2492938  57.0637940
  83.6534493  61.9231765  57.5432091  83.9837547  62.7450337  56.9079546
  84.2750216  61.8836041  58.4377380  83.7691286  60.7030994  56.8341526
  84.6851030  60.5651183  56.5820574  81.6712432  60.9960054  58.7598992
  80.9174357  60.1606991  58.2346720  82.0197163  60.9300810  60.0465469
  82.6562789  61.5939741  60.4638398  81.5238304  59.8363267  60.8713794
  81.7321873  58.8804220  60.3908247  82.2137751  59.8585252  62.2325959
  83.2606472  59.6565220  62.0059844  82.1183416  60.8652204  62.6394831
  81.7110215  58.8460057  63.2579072  80.6975164  59.1160977  63.5544852
  81.7097189  57.4492503  62.6703949  82.7230316  57.1782557  62.3739865
  81.3482154  56.7411962  63.4160995  81.0569713  57.4221347  61.7978780
  82.5738807  58.9008946  64.5005870  82.5286775  59.9012778  64.9310398
  82.2099119  58.1758804  65.2285859  83.6052044  58.6651031  64.2381506
  80.0125843  59.9218795  61.0280864  79.3136482  58.9040389  60.9411449
  79.4849830  61.1254424  61.2613399  80.0593042  61.9477274  61.3800917
  78.0419621  61.2641744  61.4054647  77.6860807  60.6001576  62.1932015
  77.6865878  62.6997377  61.7804104  78.0285170  63.3757629  60.9967177
  76.6060108  62.7899464  61.8913878  78.1709838  62.9605767  62.7213795
  77.3403735  60.8568850  60.1193376  76.2699808  60.2416099  60.1524419
  77.9216130  61.2149762  58.9751080  78.7612078  61.7763790  58.9777227
  77.3306304  60.8623525  57.6912198  76.3089402  61.2378065  57.6339250
  78.1432658  61.4826144  56.5552591  78.1770892  62.5677677  56.6522007
  79.1584631  61.0858568  56.5628702  77.5825857  61.1926238  55.2063721
  77.9047733  60.1489438  54.3950834  78.6551641  59.4504966  54.7654681
  77.1770139  60.2114258  53.2337000  77.2350746  59.5561778  52.4672938
  76.3620091  61.3102418  53.2800625  75.4523424  61.7915030  52.3469938
  75.3258580  61.2449518  51.4124447  74.7682560  62.9302308  52.6644068
  74.0446895  63.3360154  51.9573776  74.9735886  63.5918735  53.8792572
  74.4233363  64.5011236  54.1213030  75.8766343  63.1153413  54.8064268
  76.0027232  63.6682031  55.7373114  76.5905238  61.9521720  54.5098798
  77.2447382  59.3519410  57.5330243  76.2070558  58.8136812  57.1248116
  78.3341391  58.6470870  57.8471141  79.2069342  59.0847014  58.1056127
  78.2903089  57.1916475  57.7566377  77.9852185  56.8954636  56.7529972
  79.6635094  56.5896277  58.0468761  79.9890510  56.9848114  59.0091400
  79.5297894  55.5106326  58.1242613  80.7112142  56.8942301  56.9956473
  80.4269733  56.4189990  56.0567844  80.7589579  57.9741643  56.8557736
  82.0835535  56.3971287  57.3929995  82.2192622  55.5697838  58.2953257
  83.1100779  56.8923611  56.7155147  84.0491886  56.5953012  56.9389604
  82.9481928  57.5643808  55.9791153  77.2509228  56.6207124  58.7101237
  76.5099363  55.6965350  58.3506571  77.1751434  57.1637228  59.9261937
  77.8214860  57.8821927  60.2196924  76.2030985  56.6673106  60.8979141
  76.3243084  55.5960297  61.0584280  76.3725988  57.3884043  62.2455637
  76.3234999  58.4647722  62.0808804  75.2803883  56.9754638  63.2070034
  75.3291423  55.8992120  63.3725515  75.4152213  57.4949533  64.1557137
  74.3085914  57.2342214  62.7865788  77.7271410  57.0711299  62.8448554
  78.5122856  57.4003737  62.1642318  77.8332582  57.5882809  63.7984767
  77.8119561  55.9961065  63.0037012  74.7889333  56.8194269  60.3545143
  73.9850374  55.8805298  60.3871276  74.4672374  58.0065339  59.8352585
  75.1265945  58.7716129  59.8365478  73.1287336  58.2480310  59.3080887
  72.3841744  58.0416858  60.0769531  72.9870457  59.7055706  58.8695381
  73.1066092  60.3237746  59.7592727  73.7981938  59.9133295  58.1717022
  71.6502418  60.0242087  58.2048133  71.5883333  59.4454181  57.2832550
  70.8562851  59.7121143  58.8832910  71.4915003  61.5081034  57.8848485
  70.4881982  61.6606184  57.4870759  71.6018182  62.0660222  58.8147173
  72.5184254  61.9997784  56.8733320  72.3875720  63.0750459  56.7517685
  73.5122840  61.7981145  57.2729266  72.3697656  61.3299068  55.5528478
  71.4490507  61.5170052  55.1822025  73.0679486  61.6845201  54.9149686
  72.4914058  60.3335737  55.6652001  72.8213496  57.3088922  58.1490721
  71.7571800  56.6778093  58.1092903  73.7391115  57.2135791  57.1836363
  74.6081535  57.7267501  57.2226341  73.4693885  56.3980257  56.0034464
  72.5505271  56.7343643  55.5231660  74.6143240  56.5167046  55.0023935
  75.5668554  56.2955841  55.4839420  74.4630347  55.8334778  54.1666826
  74.7880361  58.1522636  54.2830585  75.8311066  57.8554453  53.5131226
  73.2480779  54.9441766  56.3884015  72.2780292  54.3183086  55.9477930
  74.1325529  54.3833430  57.2152647  74.9473349  54.8762257  57.5518598
  73.9615524  52.9882226  57.5993104  73.8741846  52.3678161  56.7073677
  75.1601285  52.5068629  58.4128159  75.9771315  52.4244727  57.6960055
  75.4018800  53.2702729  59.1523167  74.9606121  51.1622103  59.1149574
  74.1712560  51.2692853  59.8589685  74.5754417  50.0830900  58.1215652
  75.3645789  49.9751080  57.3774542  74.4395595  49.1373483  58.6461693
  73.6449420  50.3600673  57.6260308  76.2188228  50.7657075  59.8446296
  76.4623820  51.5242190  60.5885642  76.0651585  49.8072918  60.3405406
  77.0399382  50.6785238  59.1331048  72.6702362  52.7996959  58.3809824
  71.9397691  51.8250039  58.1661934  72.3643727  53.7227351  59.2947275
  72.9727115  54.5142076  59.4483325  71.1774520  53.5938303  60.1255198
  71.1502527  52.6130948  60.6004065  71.2075683  54.6614577  61.2137462
  71.6239426  55.5418509  60.7242162  70.1914742  54.8766739  61.5444042
  72.0681436  54.2957854  62.4201905  73.0029884  53.8540182  62.0752154
  72.3669367  55.5365721  63.2341365  71.4325303  55.9786694  63.5798727
  72.9814290  55.2686627  64.0936273  72.9023120  56.2571245  62.6158502
  71.3923870  53.2345045  63.2734137  71.2300458  52.3369326  62.6766646
  72.0280219  52.9936317  64.1254993  70.4338732  53.6109077  63.6307244
  69.8945652  53.7136451  59.3188681  68.8527781  53.2135120  59.7569724
  69.9469652  54.3609447  58.1536353  70.8084170  54.7650999  57.8150224
  68.7351026  54.5535894  57.3639651  68.0159697  55.1508085  57.9245688
  69.0662479  55.2824385  56.0634744  69.5583168  56.2179339  56.3295868
  69.7595449  54.6540724  55.5043721  67.8481277  55.5776075  55.2070614
  67.4483397  54.6317233  54.8415843  67.1018371  56.0703321  55.8302587
  68.1915547  56.4694448  54.0297211  67.2648295  56.8584370  53.6078627
  68.8023535  57.2976395  54.3890505  68.9529102  55.7062018  52.9603442
  69.9756189  55.5617609  53.3086320  68.4739474  54.7359338  52.8289144
  68.9695172  56.4300057  51.6623411  69.4136807  57.3289288  51.7838147
  69.4841903  55.8893536  50.9819685  68.0219655  56.5635732  51.3392243
  68.0412059  53.2304439  57.0618737  66.8085031  53.1654415  57.0268210
  68.8095465  52.1659158  56.8439776  69.8112337  52.2355493  56.9529426
  68.2502131  50.8989547  56.3874160  67.3050600  51.0736535  55.8733487
  69.2151112  50.2138174  55.4173313  70.1792604  50.1212596  55.9172800
  68.8154985  49.2204965  55.2130684  69.3918080  50.9600140  54.1206768
  68.4952297  50.7970685  53.0765436  67.6556236  50.1146534  53.2087203
  68.6492377  51.4774844  51.8890821  67.9419672  51.3322434  51.0725190
  69.7106207  52.3394374  51.7348093  69.8666562  53.0274516  50.5542148
  69.1810508  52.8303916  49.9117880  70.6119189  52.5232035  52.7582972
  71.4497509  53.2097712  52.6367947  70.4513996  51.8340328  53.9416409
  71.1644736  51.9729015  54.7542547  67.9170006  49.9429625  57.5242372
  67.4414789  48.8359916  57.2574852  68.1495635  50.3302605  58.7732127
  68.5878666  51.2205920  58.9610944  67.8155104  49.4734701  59.9020159
  68.0499825  48.4364912  59.6616065  68.6161014  49.8810142  61.1340187
  68.3219504  50.8891233  61.4260639  68.3901637  49.1880212  61.9444586
  70.0039278  49.8546669  60.8649449  70.4875606  50.1140888  61.6525993
  66.3201156  49.5744095  60.1787104  65.8046353  50.6683083  60.4321595
  65.6221031  48.4411199  60.1283704  66.0564616  47.5647149  59.8766834
  64.1884294  48.4526722  60.3848294  63.7135670  49.2804020  59.8580769
  63.5554473  47.1432666  59.9096034  62.5785982  47.0309119  60.3799674
  63.3920754  47.1474092  58.3965279  64.3686257  47.2592703  57.9254267
  62.9404152  46.2083411  58.0767574  62.7500095  47.9775897  58.1021604
  64.3840802  46.0397036  60.2952279  63.9846349  45.2196889  59.9958625
  63.8578964  48.6694722  61.8531461  62.6863870  48.8931056  62.1786302
  64.8491307  48.6050577  62.7428620  65.7752960  48.3487427  62.4320250
  64.6388062  48.8407340  64.1630994  63.5891100  48.6986440  64.4200967
  65.4814196  47.8615405  64.9868595  65.5105776  48.2005111  66.0224023
  64.8800695  46.4692226  64.9273713  64.8510064  46.1293663  63.8921164
  65.4892655  45.7842674  65.5171304  63.8674635  46.4927250  65.3300836
  66.8146243  47.8260430  64.4666229  67.3431354  47.2126346  64.9823810
  64.9673000  50.2642758  64.5891234  64.6911845  50.6306761  65.7358946
  65.5440354  51.0709259  63.7019009  65.7879957  50.7171860  62.7878709
  65.8720647  52.4523285  64.0166861  66.2532230  52.5229177  65.0354278
  66.9443487  52.9667780  63.0574465  67.7196020  52.2068594  62.9594398
  66.5150021  53.1755513  62.0775612  67.6292063  54.2229050  63.5017483
  67.5644579  55.4459809  62.9038144  66.9417434  55.5255928  62.0127541
  68.3357875  56.3499300  63.5905257  68.4505187  57.3251405  63.3540924
  68.9232511  55.7143052  64.6526451  69.7807423  56.2062440  65.6273836
  70.0639843  57.2581235  65.5896725  70.2185086  55.3308939  66.5805787
  70.8946501  55.6812939  67.3604200  69.8195511  53.9911788  66.5812254
  70.1747561  53.3026176  67.3479146  68.9667459  53.5002432  65.6149151
  68.6844274  52.4483814  65.6594552  68.5019063  54.3721283  64.6259285
  64.6114563  53.2994278  63.9186039  63.9049125  53.2546189  62.9070990
  64.3269692  54.0702053  64.9668458  64.9548978  54.0711389  65.7579237
  63.1137420  54.8855931  65.0429141  62.6113505  54.8840733  64.0755984
  62.1499791  54.3346842  66.0950616  62.7033641  54.2587520  67.0310630
  61.3452672  55.0612857  66.2072625  61.5621156  52.9788519  65.7433665
  61.0062527  53.0741723  64.8106118  62.3803715  52.2716847  65.6074478
  60.6340762  52.4752637  66.8365818  61.2063085  52.3782730  67.7592096
  59.8377460  53.2058615  66.9786538  60.0283574  51.1310415  66.4733804
  59.4568328  51.2519189  65.5531365  60.8414062  50.4247600  66.3054007
  59.1374320  50.6146396  67.5453506  58.3837332  51.2687454  67.7008611
  58.7563158  49.7221589  67.2654784  59.6669238  50.5021555  68.3980434
  63.5000028  56.3209295  65.3666011  63.4364271  56.7505993  66.5250691
  63.9061606  57.0935220  64.3639908  64.0802924  56.8121599  62.9757204
  63.1995498  56.2675521  62.6354336  64.9607919  56.1776951  62.8743597
  64.2455250  58.1436413  62.2775969  63.2775204  58.5526749  61.9881877
  64.8754433  58.0422488  61.3938415  64.9279235  59.0165543  63.3394576
  64.7003828  60.0766062  63.2271443  66.0085948  58.8795162  63.3777953
  64.2920089  58.4836715  64.6134351  65.0594700  58.4965621  65.3873444
  63.1038992  59.3172946  65.0651449  61.9456915  59.0094693  64.7806359
  63.4115267  60.3923909  65.7841507  64.3641509  60.5838524  66.0597390
  62.3666246  61.2964058  66.2400517  61.6028087  60.7378002  66.7810177
  62.9515382  62.3544701  67.1746109  62.0771984  62.7421466  67.6974265
  63.6026081  61.8448656  67.8849004  63.7130882  63.5134748  66.5253376
  64.0792701  63.1906866  65.5507508  62.8146651  64.7201976  66.3522769
  62.4484389  65.0438700  67.3265527  63.3783626  65.5300773  65.8891994
  61.9696104  64.4564493  65.7163368  64.9361657  63.8827457  67.3445216
  65.6010043  63.0217869  67.4140848  65.4606912  64.7082483  66.8633567
  64.6264692  64.1837900  68.3453010  61.6839213  61.9509436  65.0440156
  62.3089082  62.2270595  64.0170387  60.3870988  62.1949939  65.1842573
  59.9320713  62.0096891  66.0667036  59.5769428  62.6952496  64.0806488
  59.5588931  61.9706633  63.2665554  58.1467131  62.9250443  64.5607513
  57.7330388  61.9707637  64.8868207  58.1654023  63.6186061  65.4014194
  57.2502333  63.4978783  63.4796504  57.6850521  63.7446019  62.3564023
  55.9839028  63.7166721  63.8186818  55.3408999  64.0972173  63.1390993
  55.6704001  63.5013885  64.7543472  60.1696374  63.9921799  63.5348229
  60.3508961  64.9484465  64.3007376  60.4597664  64.0816221  62.2331023
  60.3999755  63.0999999  61.2032242  59.3921110  63.0939179  60.7881672
  60.6184068  62.1254735  61.6398993  61.4419371  63.5257485  60.1924997
  61.1980554  63.1450842  59.2006754  62.4309883  63.1721228  60.4837520
  61.3730516  65.0575737  60.2371245  60.5764434  65.5024136  59.6407757
  62.3283230  65.4995484  59.9539028  61.1082118  65.2978227  61.7144161
  62.0777633  65.3783438  62.2059286  60.3168434  66.5727894  61.9458143
  60.8883298  67.6619158  61.8155948  59.0303580  66.4828691  62.2756076
  58.5804488  65.5787224  62.2897457  58.2213674  67.6621297  62.5605858
  58.6362415  68.5299210  62.0478316  56.7846124  67.4486794  62.0768162
  56.5980236  66.3783992  61.9885878  56.1007040  67.8770055  62.8095550
  56.5235100  68.0975789  60.7341383  56.8392179  69.2684823  60.5285205
  55.9457043  67.3404795  59.8104678  55.7492853  67.7248110  58.8973366
  55.7049213  66.3832796  60.0246934  58.2067063  68.0380714  64.0352145
  57.5065999  68.9848829  64.4076321  58.9550979  67.3342823  64.8819021
  59.4965229  66.5414582  64.5682333  58.9739753  67.6651497  66.2973322
  57.9597277  67.6448196  66.6960647  59.8213248  66.6554960  67.0676251
  59.4400189  65.6539586  66.8685572  60.8523147  66.7267159  66.7210886
  59.7729285  66.9104650  68.4588960  60.3118381  66.2645819  68.9215095
  59.5160336  69.0761225  66.4949417  60.3299347  69.5693393  65.7091737
  59.0518373  69.7324933  67.5606101  58.4467264  69.2802915  68.2310232
  59.3553608  71.1480357  67.7468499  58.9577859  71.7276891  66.9137620
  58.7206559  71.6538183  69.0399738  58.9006048  72.7249529  69.1315614
  57.6471522  71.4649020  69.0406622  59.2668865  71.0210884  70.2786788
  59.0046831  69.7676564  70.7427212  58.3300504  69.1538717  70.1458635
  59.6816115  69.5452459  71.9165182  59.6610710  68.6918912  72.4563916
  60.3951935  70.6692417  72.2335044  61.2291481  70.9247728  73.3148423
  61.3713990  70.1404277  74.0582575  61.8228947  72.1539438  73.3776875
  62.4824755  72.3909662  74.2124770  61.6034787  73.1209073  72.3910243
  62.0820020  74.0984293  72.4507380  60.7769560  72.8685844  71.3144272
  60.6409257  73.6545806  70.5715904  60.1566385  71.6210667  71.2238081
  60.8538652  71.4150883  67.7562485  61.2883824  72.5017312  67.3568537
  61.6590952  70.4515405  68.2095269  61.2913075  69.5759254  68.5532268
  63.1012356  70.6682487  68.2713232  63.3266271  71.4698637  68.9746803
  63.8081979  69.3949975  68.7385026  63.5061071  68.6429320  68.0096419
  64.8818727  69.5657228  68.6599193  63.4727987  68.9038092  70.1451264
  62.3897559  68.8478116  70.2545952  64.0752735  67.5337672  70.3800776
  65.1584136  67.5890663  70.2712277  63.8285649  67.1955202  71.3864695
  63.6729255  66.8295990  69.6518170  63.9736371  69.8886596  71.1812980
  63.5001083  70.8573190  71.0213955  63.7269746  69.5244433  72.1785970
  65.0547434  69.9939214  71.0905887  63.6439323  71.1086559  66.9217171
  64.5208278  71.9761903  66.8457399  63.1307458  70.5206481  65.8413800
  62.4290105  69.7997479  65.9306540  63.6161438  70.8497132  64.5097126
  64.7060826  70.8566125  64.5004965  63.1263156  69.8109462  63.5037364
  62.1489469  69.4695733  63.8447851  63.0221351  70.3001228  62.5352568
  64.0550827  68.6269602  63.3721083  64.0834240  67.6332221  64.3385089
  63.4183060  67.7181220  65.1978747  64.9319028  66.5521872  64.2276381
  64.9428019  65.7760717  64.9929014  65.7690476  66.4580089  63.1410181
  66.6163428  65.3806102  63.0257453  66.5382551  64.7621979  63.7558605
  65.7643080  67.4334002  62.1690184  66.4292766  67.3584051  61.3086156
  64.9113912  68.5096972  62.2892089  64.9031692  69.2865930  61.5247055
  63.1976921  72.2454809  64.0713831  63.7707200  72.7783972  63.1153416
  62.2122898  72.8447310  64.7372822  61.7795858  72.3634481  65.5126746
  61.6973376  74.1567746  64.3638752  61.9643666  74.3814023  63.3312392
  60.1722597  74.1804479  64.4909071  59.8741701  73.8027029  65.4689411
  59.7987952  75.1967326  64.3652498  59.4702879  73.3383152  63.4751817
  59.4135241  73.6765430  62.1401140  58.7340907  72.7530742  61.4841281
  58.5765247  72.8398352  60.4090725  58.3493464  71.8287765  62.3436301
  57.8124980  71.0014060  62.1260257  58.7972197  72.1698796  63.5951460
  58.5792101  71.5250865  64.4465066  62.2853228  75.2785487  65.2062084
  62.6118132  76.3412757  64.6700356  62.4332534  75.0680226  66.5097978
  62.0953003  74.2087643  66.9191416  63.0188392  76.0713457  67.3925985
  62.5567077  77.0315165  67.1632394  62.7196082  75.7209690  68.8501533
  63.1835908  74.7661665  69.0974839  63.1201141  76.4983365  69.5008414
  61.6414507  75.6482122  68.9929193  64.5180029  76.2217140  67.1968500
  65.1507207  76.9654776  67.9527593  65.0995519  75.5379443  66.2146602
  64.5415246  74.8657540  65.7078415  66.5150404  75.6519234  65.8827746
  66.7437200  75.0092514  65.0326114  66.8773631  77.0945736  65.5172139
  66.8847675  77.6691158  66.4434675  67.8814047  77.0766907  65.0933262
  65.9228226  77.7403484  64.5292396  64.9471342  77.8366069  65.0055455
  66.3037414  78.7305277  64.2791441  65.7877464  76.9157523  63.2622140
  66.7837738  76.7390821  62.8562387  65.3255436  75.9621395  63.5173425
  64.9392845  77.6271683  62.2267891  64.6340105  76.8989382  61.4753976
  64.0558170  78.0271673  62.7243685  65.6825670  78.7360523  61.5691962
  66.5010153  78.3655559  61.1077047  65.0859667  79.1839917  60.8883743
  65.9651610  79.4111720  62.2652228  67.4193398  75.1577618  67.0042678
  68.5756846  75.5770352  67.1023717  66.9201922  74.2668642  67.8614656
  65.9396687  74.0248540  67.8512575  67.7692460  73.6637995  68.8783258
  68.4804944  74.3994027  69.2539756  66.9183568  73.1662848  70.0464541
  66.3025791  72.3781769  69.6130918  67.5727724  72.7389796  70.8062242
  66.0166826  74.2236617  70.6866155  65.2635240  74.5317296  69.9613934
  65.3322651  73.6666397  71.9200742  66.0848278  73.3587646  72.6459951
  64.6956367  74.4338862  72.3606848  64.7237365  72.8063625  71.6412974
  66.8104589  75.4716034  71.0319440  67.2487671  75.8867587  70.1244025
  66.1490023  76.2095543  71.4858216  67.6040966  75.2153957  71.7337956
  68.6106476  72.5187050  68.3295745  69.5970246  72.1351886  68.9665546
  68.2494449  71.9722339  67.1697603  67.3596149  72.2310917  66.7681454
  69.0658631  70.9888031  66.4663977  70.0595002  70.9585920  66.9134679
  68.4504718  69.5904995  66.5477215  67.4905297  69.6961406  66.0423004
  69.0906318  68.9201437  65.9742075  68.2293026  69.0118783  67.9445492
  67.5706284  69.6738275  68.5067522  67.5976347  67.6372990  67.8438037
  68.2559873  66.9746164  67.2820898  67.4439773  67.2332561  68.8444232
  66.6381618  67.7143787  67.3323638  69.5344425  68.9343133  68.7092397
  69.9588109  69.9335408  68.8069918  69.3513188  68.5193478  69.7003858
  70.2337639  68.2941538  68.1714253  69.1938139  71.4299654  65.0172116
  68.1963112  71.4727353  64.2907661  70.4075463  71.7509737  64.5986806
  71.2066270  71.6771632  65.2119680  70.6169789  72.2573944  63.2505493
  69.9519075  73.1005258  63.0637104  72.0582495  72.7260784  63.0786441
  72.2260689  73.5582248  63.7623605  72.7112751  71.8964880  63.3496374
  72.3642828  73.1672793  61.6620244  71.4121239  73.4680342  60.9118159
  73.5583136  73.2166484  61.3004235  70.2884736  71.1649103  62.2406504
  70.8996214  70.0903597  62.2877731  69.3449099  71.3822670  61.3195154
  68.3199600  72.3437015  61.3454235  68.7887293  73.3277049  61.3357818
  67.7676030  72.2140621  62.2761192  67.4609330  72.0981382  60.1266301
  67.8409902  72.6498068  59.2667945  66.4275805  72.3885873  60.3161646
  67.5736929  70.5836374  59.9145959  67.4338782  70.2460004  58.8876820
  66.8857720  70.0486043  60.5692745  69.0076639  70.3304856  60.3510399
  69.0164509  69.3844604  60.8923878  69.9521266  70.2429164  59.1646943
  69.9159590  69.2359038  58.4452921  70.7900245  71.2529998  58.9323077
  70.8246038  72.0542045  59.5462903  71.6372681  71.2545092  57.7452740
  71.0745858  70.8959890  56.8833279  72.1248508  72.6758405  57.4542751
  71.2633655  73.3434129  57.4372619  72.8046800  72.9810195  58.2497612
  72.7961045  72.7404836  56.2097376  73.0910233  73.6402707  56.0516049
  72.8197031  70.3064205  57.9072631  72.9703155  69.3482951  57.1416735
  73.6682967  70.5583929  58.8967640  73.5346672  71.3436119  59.5177902
  74.8429050  69.7223458  59.0854820  75.3741741  69.6074821  58.1406758
  75.7920573  70.3464597  60.1063614  75.3945015  70.1813782  61.1077593
  77.1726510  69.7206304  60.0003431  77.5710763  69.8857172  58.9992920
  77.8363455  70.1769027  60.7347982  77.1022831  68.6497041  60.1907787
  75.8942442  71.7553343  59.8693990  76.4912027  72.1454392  60.5120957
  74.4203188  68.3274380  59.5478001  73.5432023  68.1976058  60.4069742
  75.0197162  67.2629901  59.0023843  76.0418949  67.1765754  58.0389398
  76.8213941  67.8850438  58.3192143  75.6165261  67.4664851  57.0781522
  76.5286471  65.7450865  58.0454822  77.3239383  65.6097525  58.7784868
  76.8910582  65.4551557  57.0592269  75.2759183  64.9465980  58.4247084
  75.4682550  63.9975977  58.9252121  74.6419207  64.7759497  57.5546361
  74.5925172  65.9072712  59.3838200  73.5209817  65.8429327  59.1946888
  74.8724576  65.5529324  60.8363937  74.3555931  64.5338318  61.3103135
  75.6688002  66.3475420  61.5528238  75.9842932  67.2301574  61.1765876
  76.1665773  65.9358225  62.8596731  76.6573731  64.9629309  62.8332037
  77.1710518  66.9802343  63.3866353  77.9444104  67.1384173  62.6349746
  76.4701434  68.2954240  63.6755496  75.6969002  68.1381209  64.4275147
  77.1948955  69.0201526  64.0464989  76.0146443  68.6736855  62.7603772
  77.8741684  66.4604083  64.6282568  78.4110852  65.5434514  64.3853320
  78.5796734  67.2096406  64.9874408  77.1371290  66.2544902  65.4044472
  75.0520615  65.7159376  63.8714023  75.2783116  65.0753768  64.9032156
  73.8468409  66.2263522  63.6088983  73.6403920  66.6719739  62.7263455
  72.8053177  66.1992645  64.6305409  73.1816441  66.6395136  65.5539359
  71.5862838  66.9967905  64.1709271  70.9378584  67.2098927  65.0207690
  71.9007532  67.9334613  63.7106481  70.7464354  66.2845124  63.1602816
  70.9541950  66.3989322  61.8045666  70.0648569  65.6641371  61.1609588
  70.0608789  65.6241692  60.0716996  69.2903177  65.0732135  62.0523915
  68.5228308  64.4483708  61.8508091  69.6944137  65.4439678  63.3115474
  69.1734115  65.0568062  64.1871979  72.3724585  64.7856600  64.9929445
  71.8073529  64.5860653  66.0733886  72.6153069  63.8017421  64.1246840
  73.0039791  63.9866591  63.2109888  72.2413647  62.4294080  64.4528597
  71.1875665  62.3663652  64.7242159  72.5221018  61.4909682  63.2657715
  73.5593744  61.6106487  62.9529735  72.2790191  60.0472548  63.6704050
  71.2417612  59.9266824  63.9829096  72.4808845  59.3928001  62.8224427
  72.9397221  59.7847782  64.4966476  71.6526795  61.8664248  62.0632000
  71.8325792  62.9214622  61.8567222  71.9984085  61.2677163  61.2205143
  70.1660722  61.6378694  62.2698162  69.8194974  62.2366462  63.1121060
  69.6245559  61.9297341  61.3699972  69.9853270  60.5829000  62.4759005
  72.9691534  61.9699750  65.7077466  72.3903360  61.2971161  66.5692866
  74.2513235  62.3147060  65.8294817  74.7528081  62.7601791  65.0743882
  74.9825055  61.9918257  67.0494994  74.9141874  60.9232977  67.2536556
  76.4566607  62.3659193  66.8921637  76.4483433  63.2119461  66.2049455
  76.8371976  62.6892410  67.8610573  77.3571699  61.2648237  66.3331954
  77.3709991  60.4323925  67.0367349  76.8515700  60.7820634  64.9908670
  76.8378947  61.6138975  64.2866201  77.5095609  59.9988097  64.6144863
  75.8425981  60.3853008  65.1033635  78.7818052  61.7612518  66.2145774
  79.1479395  62.0547638  67.1983944  79.4119535  60.9665911  65.8151670
  78.8131143  62.6204754  65.5446121  74.3692096  62.7000062  68.2509841
  74.1625554  62.0899075  69.3075950  74.0627188  63.9917887  68.1082875
  74.2605767  64.4951632  67.2553129  73.4927363  64.7300644  69.2312087
  74.1645135  64.6789083  70.0880620  73.2931133  66.1957803  68.8547441
  72.7857871  66.2207873  67.8903303  72.6524565  66.6452126  69.6134730
  74.5905444  66.9748690  68.7632389  75.2031607  66.7221430  69.6286473
  75.1073719  66.6730235  67.8522610  74.3500185  68.4678531  68.7349257
  75.2799149  68.9775067  68.4826466  73.5952392  68.6966148  67.9825457
  73.8851370  68.9569072  70.0262701  74.1047051  68.3906988  70.8333000
  73.2006531  70.0766101  70.2069940  72.8874676  70.8670710  69.1935709
  73.1726170  70.6191926  68.2569033  72.3646496  71.7148158  69.3611706
  72.8235130  70.4151979  71.4351930  73.0607667  69.8192318  72.2153437
  72.3013052  71.2669866  71.5830234  72.1848005  64.0991437  69.6814574
  71.9153593  64.0011742  70.8831115  71.3576043  63.6647031  68.7308471
  71.5155022  63.8812894  67.7570617  70.1655926  62.9045036  69.0851659
  69.5183398  63.5068655  69.7226006  69.3880395  62.5159204  67.8274194
  70.0838314  61.9950732  67.1696267  68.5998738  61.8300435  68.1380118
  68.7739526  63.6894486  67.0863797  68.0560624  64.1668671  67.7533176
  69.5707212  64.3936731  66.8469495  68.0732199  63.2660218  65.8094097
  68.2278529  62.0942044  65.4082518  67.3718380  64.1044878  65.2062610
  70.5614076  61.6675407  69.8792939  70.0911692  61.4486872  71.0012387
  71.4394219  60.8467385  69.3000637  71.8221335  61.0704010  68.3925361
  71.8208998  59.5833419  69.9185566  70.9469323  58.9561092  70.0942242
  72.8101783  58.8394910  69.0060940  73.5801088  59.5359652  68.6740834
  73.4555193  57.6933059  69.7517747  72.6862022  56.9961236  70.0837217
  74.1529607  57.1769110  69.0922199  73.9932716  58.0794401  70.6176974
  72.0933871  58.3182297  67.7614430  71.6629517  57.3493110  68.0144703
  71.2934276  59.0206226  67.5273309  72.9995407  58.1685998  66.5607139
  73.7995399  57.4659524  66.7939257  72.4233691  57.7945417  65.7144243
  73.4300177  59.1372643  66.3067877  72.4137136  59.8297946  71.2946259
  72.3055954  58.9859591  72.1920992  73.0609545  60.9799469  71.4802245
  73.2146460  61.6229407  70.7166558  73.5644232  61.3387779  72.7945885
  74.2509132  60.5576050  73.1210843  74.1035035  62.2820585  72.7067617
  72.4649417  61.4930396  73.8278187  72.6141104  61.0646933  74.9752324
  71.3495345  62.1058300  73.4387692  71.2608848  62.3952177  72.4751846
  70.2588275  62.4105887  74.3542896  70.6338536  62.5025228  75.3736044
  69.6122451  63.7369523  73.9497308  69.4175943  63.6220446  72.8834257
  68.6663759  63.8318518  74.4830464  70.4538687  64.9886553  74.1808030
  71.5065572  64.7433634  74.0401624  70.0529254  66.0748264  73.2010260
  69.0004058  66.3209976  73.3413859  70.6596775  66.9635307  73.3746844
  70.2101450  65.7216360  72.1818896  70.3003896  65.4613833  75.6050535
  70.6314188  64.6775088  76.2862728  70.9051741  66.3550530  75.7589732
  69.2535167  65.6936574  75.8005145  69.1822880  61.3337978  74.3967412
  68.1731348  61.5163974  75.0865202  69.3630298  60.2248094  73.6881214
  70.2188632  60.1039743  73.1655820  68.3239377  59.2058174  73.5606143
  68.6400604  58.4670972  72.8240968  68.0537234  58.4917053  74.8830190
  67.7919043  59.2554702  75.6152848  67.2003040  57.8321218  74.7257777
  69.2232498  57.6872328  75.3924600  69.7871677  57.3068872  74.5407355
  69.8631676  58.3356930  75.9908800  68.7457032  56.5243516  76.2424945
  68.2745671  56.9132197  77.1452189  68.0184626  55.9436952  75.6749924
  69.8431541  55.6479815  76.6292372  70.7801913  55.9876217  76.4658199
  69.6908521  54.4516794  77.1827046  68.4908208  53.9477324  77.4225887
  67.6661154  54.4789034  77.1821344  68.4052719  53.0343062  77.8450027
  70.7693748  53.7404842  77.4949359  71.6887474  54.1150772  77.3091024
  70.6646288  52.8287136  77.9166009  67.0334929  59.7941504  73.0005627
  65.9318465  59.4234970  73.4086022  67.1708606  60.7254131  72.0613531
  68.0703959  61.1405286  71.8648465  66.0137703  61.2079950  71.3258439
  65.1355839  61.1984313  71.9714417  66.2476491  62.6423022  70.8382236
  67.1912508  62.5850741  70.2956002  65.4444980  62.8901631  70.1442400
  66.3437677  63.7277347  71.9168224  67.2045319  63.5208556  72.5527365
  66.5027221  65.0940109  71.2809316  65.6420547  65.3018078  70.6451873
  66.5694185  65.8527180  72.0606853  67.4111917  65.1116644  70.6788754
  65.1298428  63.7282876  72.8293245  65.0469600  62.7611548  73.3251915
  65.2384388  64.5121916  73.5788594  64.2315998  63.9119130  72.2397991
  65.7234211  60.2892044  70.1558836  64.5662392  60.1417478  69.7502721
  66.7666049  59.6657322  69.6191380  67.6848677  59.9346653  69.9425072
  66.6703556  58.6445069  68.5858867  65.6218454  58.4879330  68.3324894
  67.4236931  59.0512838  67.3190603  68.3917160  59.4626768  67.6050437
  67.5739391  58.1653071  66.7021555  66.6982718  60.0195862  66.5847339
  67.1907786  60.2580753  65.7959628  67.2567531  57.3775206  69.1842524
  68.3458061  57.4116116  69.7598837  66.5452811  56.2647411  69.0474765
  65.6843550  56.2468519  68.5196645  66.9728869  55.0441648  69.7093819
  68.0568596  55.0482531  69.8237743  66.3348868  54.9296794  71.0966743
  66.8256911  54.1559652  71.6870781  66.4118813  55.8853386  71.6152178
  64.8804845  54.5800238  71.0571633  64.4004184  53.3454517  71.4331650
  63.0874309  53.3270790  71.2962446  62.5155443  52.4359939  71.5551114
  62.6998509  54.4999276  70.8308590  61.7501326  54.7730523  70.6222016
  63.8027983  55.3019431  70.6722389  63.6880834  56.3179350  70.2944794
  66.6250321  53.8250503  68.8783694  65.8177539  53.8834782  67.9460588
  67.2547678  52.7093990  69.2447901  67.9672708  52.7726867  69.9578359
  67.0026278  51.4127162  68.6347366  66.5264343  51.5120125  67.6592983
  68.3270672  50.6601318  68.4591063  68.9720115  50.8537564  69.3162273
  68.8210931  51.0005601  67.5490805  68.2571216  48.8693648  68.2660900
  66.0267672  50.6480844  69.5226854  66.2818374  50.4630233  70.7149122
  64.9127440  50.2056751  68.9313477  64.7446734  50.3674306  67.9486540
  63.8766892  49.5290484  69.7094022  63.6256972  50.1220613  70.5888554
  62.6176847  49.3488645  68.8675166  61.8249454  48.9572880  69.5049580
  62.3196887  50.3204238  68.4733453  62.8448745  48.4548023  67.7950901
  62.0390789  48.3590599  67.2821314  64.3410728  48.1807612  70.2393443
  63.8975094  47.7544723  71.3113495  65.2250828  47.5009810  69.5135163
  65.5531181  47.8475739  68.6233672  65.6936305  46.1954402  69.9620188
  64.8469985  45.5355025  70.1512163  66.5711397  45.5662256  68.8805705
  65.9893278  45.4071584  67.9726654  67.4161956  46.2185113  68.6603347
  67.1436216  44.2377383  69.2601373  66.6025400  43.0437156  68.8352907
  67.3104233  42.0421589  69.3251471  67.0404033  41.0098850  69.1024393
  68.2931473  42.5437548  70.0531540  68.9946833  42.0145611  70.5510507
  68.2113533  43.9147953  70.0272760  68.9408448  44.5146532  70.5714394
  66.4485058  46.3115659  71.2802271  66.2675784  45.4849194  72.1814894
  67.3015685  47.3285544  71.4079395  67.4744709  47.9593643  70.6383399
  68.0492432  47.5260786  72.6460702  68.3470230  46.5516312  73.0332129
  69.3086459  48.3452299  72.3638982  69.9112466  48.4098327  73.2698777
  69.0262233  49.3481389  72.0437249  70.3993280  47.6313743  71.1063753
  67.2109228  48.2159461  73.7216476  67.3221702  47.8784225  74.9054373
  66.3677553  49.1707319  73.3363028  66.3096752  49.4086470  72.3564444
  65.5543077  49.9334334  74.2852092  65.6216643  49.5144697  75.2892170
  65.9873614  51.4059465  74.3378366  65.6406212  51.9125047  73.4371318
  65.3938140  52.0844032  75.5601177  65.7404945  51.5786509  76.4612993
  65.7083150  53.1277291  75.5858200  64.3060349  52.0344496  75.5117144
  67.4930804  51.5198499  74.3535032  67.9017850  51.0650289  73.4511727
  67.7780644  52.5712708  74.3908919  67.8877758  51.0055795  75.2297693
  64.0869576  49.8155080  73.8881168  63.5632894  50.6827107  73.1755055
  63.3901957  48.7652420  74.3246922  63.8400512  47.6352909  75.0093575
  64.3547929  47.9750264  75.9080905  64.5455584  47.1140941  74.3622776
  62.6188406  46.8011839  75.3202469  62.1795112  47.0975726  76.2727396
  62.8718064  45.7414044  75.3515040  61.6753125  47.1044862  74.1497861
  60.6089189  46.9947926  74.3469430  61.9496594  46.4950345  73.2887390
  62.0031679  48.5641829  73.8777690  62.0093134  48.6956069  72.7957393
  60.9643014  49.4939460  74.4962049  59.9054011  49.6704593  73.8826577
  61.2042850  50.0997267  75.6633191  62.1148256  50.0362262  76.0957342
  60.1491810  50.8360548  76.3685032  59.2685621  50.9299648  75.7330581
  59.7555473  50.0871851  77.6408623  60.6032157  50.1549295  78.3227480
  58.9032178  50.6156048  78.0679537  59.3910157  48.6247305  77.4288688
  60.2141461  48.1488007  76.8959071  59.2784019  48.1626200  78.4096206
  58.1089741  48.4500520  76.6379340  57.2979603  48.9563459  77.1614051
  58.2378318  48.8953453  75.6514204  57.7714588  46.9730357  76.4875203
  58.5676714  46.5036282  75.9097638  57.7383919  46.5328025  77.4841148
  56.4679065  46.7528729  75.8049620  56.4984850  47.1603527  74.8813144
  56.2904461  45.7614258  75.7298597  55.7299276  47.1873929  76.3403859
  60.5927247  52.2586585  76.7253345  60.5432059  52.6668715  77.8838801
  61.0334514  53.0240487  75.7295153  61.1716199  52.6402563  74.8055498
  61.3855432  54.4213681  75.9578387  61.7829305  54.5487573  76.9647919
  62.4508988  54.8568288  74.9540711  63.2027790  54.0691913  75.0030880
  61.9791518  54.8474429  73.9714895  63.1169235  56.2106734  75.1854256
  62.3463496  56.9811307  75.2121177  63.8841371  56.2186538  76.4920860
  64.6552461  55.4487139  76.4659653  64.3497907  57.1938155  76.6346587
  63.2000496  56.0191795  77.3169101  64.0478812  56.5137753  74.0300915
  63.4780837  56.5414727  73.1012949  64.5256006  57.4801047  74.1916250
  64.8109838  55.7382211  73.9646011  60.1475134  55.3146681  75.8589084
  59.3825981  55.2220920  74.8936103  59.9537512  56.1811365  76.8545743
  60.5537328  56.1702303  77.6669797  58.8526869  57.1424908  76.8188738
  57.9105870  56.6159422  76.6662519  58.7702663  57.9202586  78.1315970
  59.7939690  58.1623351  78.4171333  58.2262552  58.8401245  77.9171238
  58.0867164  57.1814327  79.2732592  57.7782434  57.9167800  80.0163672
  57.2049637  56.6934919  78.8578976  58.9755077  56.1447746  79.9280950
  60.1641886  56.0531713  79.5584839  58.4841921  55.4275800  80.8242149
  59.0191282  58.1237389  75.6589331  60.0839514  58.7434624  75.5324094
  58.0141991  58.2988313  74.7988964  56.7207452  57.7112069  74.7271760
  56.2792348  57.7628570  75.7224152  56.8478112  56.6673245  74.4403610
  55.9369167  58.4987952  73.7029894  55.4329707  59.3456446  74.1688045
  55.2002952  57.8651619  73.2090269  57.0122323  58.9626402  72.7124930
  56.7603185  59.8934469  72.2043223  57.2597834  58.2010595  71.9730251
  58.1932339  59.1852534  73.6428846  59.0887184  58.8702952  73.1071540
  58.3375119  60.6419152  74.0581113  57.8300371  61.0722706  75.0952485
  59.0409531  61.4010544  73.2284246  59.5212113  60.9815983  72.4451571
  59.1925603  62.8431577  73.4454208  59.2132278  63.0678367  74.5118126
  60.4710451  63.3550200  72.7941156  60.5339002  64.4354254  72.9240142
  61.6746216  62.6988460  73.4371160  61.6127040  61.6183867  73.3072142
  62.5855277  63.0692082  72.9668154  61.6932992  62.9359013  74.5008618
  60.4684125  63.0837761  71.2884018  61.4252992  62.6268541  71.0360315
  59.6638917  62.3773117  71.0840645  60.2692967  64.3287030  70.4543239
  61.0737476  65.0354992  70.6577884  60.2780244  64.0635875  69.3970932
  59.3123404  64.7859583  70.7058233  57.9639957  63.5618501  72.8887224
  57.5689114  63.2871355  71.7457739  57.3300562  64.4642297  73.6409949
  57.6722586  65.0661869  74.8862800  58.7487087  65.2374978  74.8834479
  57.4198268  64.3569238  75.6745205  56.8807224  66.3492051  74.9905714
  57.4239306  67.1778764  74.5363383  56.6623252  66.5859344  76.0318991
  55.5929675  66.0336952  74.2191010  55.1345496  66.9178026  73.7760365
  54.8536211  65.5041514  74.8199754  56.1207602  65.1213061  73.1236307
  55.3628290  64.3584866  72.9454594  56.4013933  65.8689990  71.8279801
  57.4600638  66.4752963  71.6552192  55.4329741  65.8199495  70.9088292
  54.5779467  65.3083805  71.0741308  55.6119570  66.4692153  69.6125931
  56.5366390  66.1248814  69.1494553  54.4451232  66.1302455  68.6847330
  53.5355833  66.4628684  69.1849315  54.5886559  66.7074195  67.7712952
  54.3219094  64.6573853  68.3381496  53.8744701  64.5830291  67.3470038
  55.3281193  64.2389692  68.3143001  53.4774664  63.8854182  69.3325906
  52.9979875  64.4936250  70.3130612  53.2895947  62.6677421  69.1319434
  55.7344393  67.9794888  69.7540212  56.5676069  68.6063338  69.0893535
  54.9112716  68.5831855  70.6114565  54.3168476  68.0140667  71.1970017
  54.8105812  70.0281069  70.7255160  55.7085026  70.4927951  70.3182063
  53.5934107  70.5487303  69.9487611  53.5412739  70.0363496  68.9881119
  52.6804652  70.3566317  70.5124355  53.6123022  72.0120617  69.6519628
  52.9549254  72.9903075  70.3309959  52.3565420  72.6769165  71.1864626
  53.2029800  74.2114837  69.7611973  52.8330049  75.0956366  70.0797747
  54.0373459  74.0383572  68.6884854  54.5670875  74.9720481  67.8075234
  54.3118701  76.0228627  67.9444597  55.3818015  74.5077381  66.8167019
  55.8159396  75.2106751  66.1057141  55.6752400  73.1474252  66.6895814
  56.3275291  72.7886897  65.8933859  55.1508834  72.2196619  67.5639963
  55.4126087  71.1708753  67.4238275  54.3137710  72.6638751  68.5887653
  54.6918569  70.3938944  72.1992928  54.0230219  69.6764141  72.9570842
  55.3177957  71.4863721  72.6412522  56.1069659  72.4755636  71.9674098
  55.5679801  72.7744425  71.0683737  57.0522936  72.0114436  71.6862568
  56.2925273  73.6179959  72.9397824  55.4738659  74.3330208  72.8583446
  57.2390336  74.1282834  72.7613622  56.2947436  72.9223867  74.3068994
  55.9337512  73.5722002  75.1040982  57.2631381  72.5079417  74.5871619
  55.2996499  71.7984241  74.0658614  55.6538988  70.9305297  74.6220675
  53.8957198  72.1500270  74.5193353  53.0935518  72.6878158  73.7380845
  53.5506732  71.8702200  75.7739890  54.1171208  70.9580049  76.7545907
  54.8931105  71.4852324  77.3095424  54.5592245  70.1132835  76.2263019
  52.9551905  70.5461957  77.6300776  53.3023314  70.2433902  78.6179547
  52.3981692  69.7274710  77.1745357  52.0994153  71.8171202  77.7023520
  52.4883180  72.5257913  78.4335421  51.0425605  71.6365080  77.8986597
  52.2788028  72.3727679  76.2975549  51.4614732  71.9849331  75.6895625
  52.2636152  73.8915492  76.2558583  53.2699917  74.5444598  76.5368424
  51.1086922  74.4556519  75.9026419  50.2687961  73.9112128  75.7675121
  51.0553410  75.8868981  75.6323865  51.8036170  76.1493085  74.8845075
  49.6762833  76.2815292  75.1031300  49.7119995  77.3708589  75.1167030
  49.6144947  75.9333642  74.0720804  48.4475292  75.8025043  75.8770018
  48.5888514  74.7535605  76.1374742  48.2405528  76.6150189  77.1437847
  48.0986887  77.6640764  76.8840700  47.3592308  76.2493059  77.6706872
  49.1150199  76.5154963  77.7868265  47.2206179  75.8767062  74.9860458
  47.3667729  75.2421041  74.1119644  46.3469061  75.5346181  75.5407571
  47.0659949  76.9067493  74.6647954  51.3980977  76.7157546  76.8616284
  51.6883045  77.9100142  76.7282753  51.3773965  76.1158426  78.0552091
  51.0666551  75.1609634  78.1635831  51.7509490  76.8609636  79.2510746
  51.1405370  77.7622172  79.3079814  51.4905652  76.0157594  80.4961731
  52.1016301  75.1139558  80.4580943  51.7469411  76.5904315  81.3861864
  50.4370224  75.7388021  80.5341407  53.2078123  77.2986978  79.2043412
  53.5600090  78.3425327  79.7653682  54.0686343  76.5236161  78.5439195
  53.7321711  75.7029476  78.0608098  55.4992319  76.7898863  78.5375369
  55.7611588  77.4408146  79.3716747  56.2791057  75.4781576  78.6764093
  56.0124339  75.0192037  79.6284318  55.9871404  74.8169939  77.8604934
  57.6800006  75.6933716  78.6317511  58.1358166  74.8532470  78.7213183
  55.9590336  77.5200937  77.2837655  57.1149232  77.9512955  77.2319177
  55.0979383  77.6535425  76.2770534  54.2008126  77.1916294  76.3206554
  55.4304370  78.4077175  75.0716300  56.2836937  79.0570533  75.2676279
  55.7904401  77.4593136  73.9226944  56.0692714  78.0263263  73.0345227
  56.6155367  76.8081279  74.2112646  54.4457709  76.3688859  73.4180725
  55.1243427  75.7462554  72.4585049  54.3225188  79.3355277  74.6061577
  54.6185445  80.3038484  73.8972876  53.0658387  79.0867970  74.9675883
  52.8507088  78.2399117  75.4741489  51.9819696  79.9957408  74.6581663
  51.1375288  79.7211513  75.2903209  52.3169781  81.0003107  74.9164451
  51.5405988  79.9811806  73.2159767  50.7272422  80.8226967  72.8246920
  52.0473392  79.0523419  72.4160774  52.7143773  78.4014847  72.8053643
  51.7234797  78.9449422  71.0009971  50.9834090  79.6895718  70.7078738
  52.9670418  79.1112538  70.1113620  53.7102568  78.3667275  70.3966887
  52.6012605  78.9261717  68.6508834  51.8583753  79.6706911  68.3646782
  53.4921214  79.0469704  68.0345433  52.1900722  77.9276700  68.5024918
  53.5996748  80.4721040  70.3388536  53.8951242  80.5658946  71.3838488
  54.4786305  80.5756846  69.7026088  52.8802188  81.2533758  70.0937042
  51.0805557  77.5836357  70.7718065  51.6876256  76.5559031  71.0876846
  49.8674821  77.5072067  70.2336235  48.8415171  78.5019145  70.1078251
  49.2661724  79.3495126  69.5699165  48.5584450  78.8149483  71.1128023
  47.6965442  77.8552300  69.3615269  47.8229087  77.9682153  68.2847886
  46.7435347  78.2902257  69.6626134  47.7845092  76.3841090  69.7842221
  47.3959469  75.7114267  69.0196196  47.2997276  76.1695105  70.7366053
  49.2889629  76.2035704  69.9154883  49.4611304  75.5260579  70.7518096
  49.9236448  75.6301053  68.6618748  50.5867550  76.3565285  67.9086934
  49.7491686  74.3330000  68.4020114  49.0011130  73.3446614  69.1061666
  47.9546974  73.4258337  68.8120141  49.0932595  73.5353011  70.1754021
  49.6179642  72.0240344  68.7004241  48.8969636  71.2125812  68.7994234
  50.4967927  71.8044954  69.3066951  50.0067986  72.2514666  67.2358049
  49.1960572  72.1234661  66.5185788  50.8465475  71.6175443  66.9510877
  50.4435939  73.7078538  67.2677453  51.5089964  73.7188380  67.4977349
  50.2063096  74.4008242  65.9355297  49.0954056  74.3811261  65.3983350
  51.2590268  75.0147577  65.3965294  52.0855546  75.1448052  65.9622491
  51.2465940  75.5786966  64.0472051  52.1455941  76.1746412  63.8898899
  51.2067911  74.4691662  62.9983019  50.3308381  73.8402785  63.1573802
  51.1693880  74.8966479  61.9963236  52.3986864  73.5609751  63.0328207
  53.6382086  74.0055922  62.6108667  53.7433464  75.0290972  62.2510286
  54.7326080  73.1709544  62.6417160  55.7049144  73.5338083  62.3084626
  54.5984298  71.8761716  63.0941978  55.4641392  71.2143170  63.1186051
  53.3707765  71.4190072  63.5153177  53.2613853  70.3956124  63.8742006
  52.2783323  72.2580884  63.4826152  51.3043023  71.8978109  63.8136222
  50.0812104  76.5448089  63.8471319  49.4614583  76.5885950  62.7834721
  49.7786989  77.3306468  64.8763134  50.2743826  77.2395342  65.7515822
  48.7099363  78.3145095  64.7878211  48.5913504  78.6234234  63.7492602
  47.3776276  77.7467857  65.2845577  47.5688744  77.2865198  66.2539282
  46.6990135  78.5903456  65.4110077  46.7489571  76.7285482  64.3583144
  46.4003494  77.2385274  63.4602638  47.4981222  75.9852068  64.0857390
  45.5755229  76.0200962  64.9982238  45.1565525  76.3638289  66.1028924
  45.0382076  75.0211776  64.3080356  44.2522466  74.5137617  64.6886874
  45.4179100  74.7733253  63.4055409  49.0862310  79.5356712  65.6078799
  49.6569510  79.4103912  66.6926013  48.7592912  80.7106605  65.0847951
  48.3421658  80.7831207  64.1678135  49.0371948  81.9362896  65.8139185
  50.0905801  81.9680998  66.0922468  48.7227067  83.1582915  64.9526256
  47.7109467  83.0347245  64.5663975  48.7591445  84.0337087  65.6010214
  49.6870744  83.3461576  63.7942119  50.6853634  83.5060444  64.2015891
  49.6819243  82.4370560  63.1928719  49.3001873  84.5286732  62.9259031
  48.3031876  84.3533877  62.5217180  49.2884315  85.4263935  63.5440127
  50.2827001  84.7135761  61.7849243  51.2648247  84.9185044  62.2109951
  50.3210788  83.7854223  61.2146992  49.8892403  85.8323438  60.8852626
  49.8540376  86.6925606  61.4133608  50.5673403  85.9210687  60.1420209
  48.9793941  85.6424472  60.4900181  48.2124574  81.9652551  67.0977651
  47.0661360  81.5029364  67.1088429  48.7539361  82.4914933  68.1898948
  50.0221265  83.1015974  68.4091937  50.1914224  83.8132744  67.6011373
  50.7785853  82.3179636  68.3669174  49.9569679  83.7673736  69.7651591
  49.5766190  84.7852277  69.6790968  50.9404518  83.7860512  70.2347462
  48.9921416  82.8742162  70.5519279  48.4536359  83.4068927  71.3357431
  49.4811856  81.9984614  70.9785296  48.0253992  82.4475289  69.4591919
  47.7497068  81.4121350  69.6593209  46.7737302  83.3061207  69.4245368
  46.7159948  84.3397916  68.7543631  45.7584915  82.8578858  70.1634779
  45.7948813  81.9528727  70.6103856  44.5430907  83.6507913  70.3058396
  44.2459885  84.0547215  69.3380226  43.4076313  82.7796240  70.8406604
  43.9030446  82.1308841  71.5630186  42.7144580  83.4400304  71.3616923
  42.6386300  81.9267503  69.8347675  42.0494195  82.5865269  69.1978792
  43.5808773  81.1062405  68.9770358  44.1701409  80.4458394  69.6132257
  43.0035895  80.5095806  68.2707521  44.2475590  81.7723273  68.4293460
  41.6712765  81.0249370  70.5803090  40.9719907  81.6351072  71.1519655
  41.1195916  80.4137083  69.8660650  42.2267337  80.3776049  71.2589307
  44.7708478  84.8375221  71.2314452  44.3309719  85.9557736  70.9415197
  45.4564465  84.6122407  72.3476090  45.8288025  83.6934717  72.5407770
  45.6552804  85.6585690  73.3372111  44.7024319  86.1230992  73.5909641
  46.2673055  85.0756761  74.6077965  47.2909031  84.7648276  74.3987000
  46.2700212  86.1068204  75.7134637  45.2466558  86.4178312  75.9234524
  46.7097391  85.6750827  76.6125465  46.8556283  86.9720195  75.4026656
  45.5085025  83.9360484  75.0274484  45.8950636  83.5709096  75.8267259
  46.5547503  86.7569793  72.7793567  47.4770990  86.5012609  72.0034521
  46.2757695  87.9923870  73.1856038  45.5156643  88.1711001  73.8262293
  47.0334679  89.1234474  72.6848878  47.1269632  89.0580971  71.6008734
  46.3250528  90.4276964  73.0351612  45.2520348  90.2853954  72.9067783
  46.5369709  90.6691091  74.0767516  46.7624335  91.4889817  72.2067364
  46.3009938  92.2951602  72.4491195  48.4437850  89.1153502  73.2705924
  48.6794364  88.5489851  74.3391293  49.4075924  89.7388174  72.5818652
  49.3891477  90.3764515  71.3068434  49.0390520  91.4004472  71.4370979
  48.6981055  89.8363090  70.6596914  50.8151032  90.3092935  70.8107087
  51.0170250  91.1119755  70.1014639  51.0156160  89.3480540  70.3375126
  51.6427333  90.4722004  72.0912042  51.7765179  91.5019409  72.4226182
  52.6168218  89.9927233  71.9944940  50.7882152  89.7132384  73.0943261
  51.1195574  88.6749436  73.0783759  50.9339097  90.2689264  74.5005267
  51.7278142  89.7382795  75.2869455  50.2049482  91.3353087  74.8372623
  49.5513373  91.7529245  74.1903548  50.3861039  91.9654980  76.1416737
  51.4317815  92.2387929  76.2829800  49.5347363  93.2298701  76.2325663
  48.4909870  92.9601012  76.0715965  49.6495794  93.6570561  77.2287707
  49.9309001  94.1825457  75.2621306  49.3817122  94.9660735  75.3400829
  50.0409694  91.0085804  77.2750296  50.7620459  90.9328951  78.2773721
  48.9358574  90.2758625  77.1420864  48.3109007  90.4018761  76.3587289
  48.5635073  89.3177205  78.1763424  48.5444177  89.8052770  79.1510338
  47.1747310  88.7573102  77.8842178  47.2280448  88.2123838  76.9417147
  46.9192195  88.0672345  78.6883381  46.1115695  89.8340082  77.7857145
  46.2478540  90.5220773  78.6200336  46.2567893  90.3686955  76.8470331
  44.7104796  89.2608243  77.8282393  44.6000922  88.5114048  77.0444766
  44.5360110  88.7982632  78.7996801  43.7124771  90.3037109  77.6213612
  43.3802223  90.7890582  78.4424240  43.2146464  90.6444037  76.4398642
  43.5982883  90.0441374  75.3249793  44.2871582  89.3065233  75.3635000
  43.2005148  90.3262904  74.4405216  42.3135930  91.6196058  76.3731813
  42.0184665  92.0889114  77.2174280  41.9283042  91.8867051  75.4785813
  49.5903679  88.2008508  78.2918601  49.9113827  87.7548708  79.4007643
  50.1224719  87.7331651  77.1620630  49.7661842  88.0016660  76.2559363
  51.2117845  86.7634384  77.2176331  50.8820326  85.8639282  77.7374833
  51.6500094  86.3782141  75.8050007  51.7539057  87.3386542  75.3001644
  52.6270521  85.9011584  75.8818480  50.7071289  85.4812376  75.0036609
  49.7251780  85.9512808  74.9495069  51.2486896  85.2778319  73.5996163
  52.2304869  84.8073754  73.6529420  50.5695391  84.6373396  73.0369219
  51.3353228  86.2425717  73.0997441  50.5091914  84.1440747  75.6995244
  50.0804776  84.3083147  76.6881240  49.8343863  83.5234641  75.1099637
  51.4705974  83.6404050  75.8000942  52.3889415  87.3185778  78.0066475
  52.9233207  86.6523670  78.9005749  52.8031896  88.5454856  77.6917624
  52.3776815  89.0725231  76.9425804  53.9366444  89.1340357  78.3933649
  54.8165502  88.5012953  78.2771554  54.2491060  90.5147443  77.8196693
  54.3998512  90.4201490  76.7442964  53.4010893  91.1723738  78.0106958
  55.4135300  91.0616725  78.4131398  55.5881357  91.9273351  78.0366548
  53.6615478  89.2222633  79.8870971  54.5455934  88.9527344  80.7077648
  52.4376425  89.5977974  80.2619557  51.7364525  89.8794783  79.5918156
  52.1023284  89.6573914  81.6796224  52.8538060  90.2430450  82.2091415
  50.7383956  90.3105411  81.8886893  50.6999314  91.2073189  81.2702968
  49.9767249  89.6062214  81.5541873  50.4801338  90.6845685  83.3402310
  50.5696578  89.7806503  83.9427408  51.2431089  91.4008350  83.6450808
  49.1076575  91.2923448  83.5431937  48.9575352  91.4923683  84.6041145
  49.0432114  92.2264686  82.9851982  48.0525364  90.3998765  83.0826628
  48.3347041  89.5955871  82.5408148  46.7610340  90.5777365  83.3255912
  46.3253566  91.6163237  84.0216621  46.9843968  92.2929792  84.3792979
  45.3359778  91.7271450  84.1918030  45.8851142  89.6915966  82.8620854
  46.2093366  88.8953244  82.3320568  44.8994488  89.8187083  83.0420996
  52.1046607  88.2745304  82.3147846  52.3643980  88.1497465  83.5167003
  51.8105109  87.2301568  81.5412035  51.5478337  87.3444014  80.5726746
  51.8088699  85.8853488  82.1036870  51.3392796  85.8950860  83.0872974
  51.0267607  84.9326721  81.1981163  50.0127118  85.3194505  81.0970888
  51.5115493  84.9262211  80.2218794  50.9761789  83.5197243  81.7463251
  51.2814840  83.3287571  82.9401569  50.6272959  82.5968577  80.9796949
  53.2225202  85.3606018  82.3094404  53.4665613  84.6085018  83.2593302
  54.1570781  85.7424548  81.4389963  53.9245083  86.3654526  80.6788093
  55.5187670  85.2343514  81.5229918  55.5082306  84.1670146  81.7438548
  56.2348260  85.4501818  80.1906995  56.0829413  86.4717692  79.8422895
  57.3022062  85.2602179  80.3034525  55.7529576  84.5494205  79.0982591
  56.0189450  84.7866663  77.7676897  55.4691297  83.8350052  77.0351637
  55.5653739  83.8453879  75.9494712  54.8588039  82.9871386  77.8426249
  54.3527016  82.1588389  77.5635549  55.0211213  83.4121056  79.1391044
  54.5855663  82.8404248  79.9586007  56.3147101  85.8856023  82.6458737
  57.3595585  85.3526046  83.0341624  55.8476013  87.0182397  83.1727447
  55.0055937  87.4411914  82.8091041  56.5590034  87.7050264  84.2425320
  57.6023835  87.8060047  83.9437670  55.9723250  89.1001925  84.4454851
  54.9302868  89.0153993  84.7538137  56.5373817  89.6238782  85.2165652
  56.0299409  89.6585809  83.5111500  56.5225014  86.9431328  85.5582655
  57.2505729  87.3123157  86.4852596  55.6981548  85.9020550  85.6680401
  55.0858683  85.6506167  84.9051618  55.6193002  85.1294954  86.9000270
  55.7819080  85.7719575  87.7654173  54.2428872  84.4783156  87.0271017
  54.1968684  83.9300823  87.9680708  53.1474583  85.5318058  87.0007941
  53.1925524  86.0801802  86.0598628  52.1750486  85.0479584  87.0925015
  53.2881368  86.2238024  87.8311258  54.0425092  83.5587715  85.9486379
  53.1770442  83.1517617  86.0317864  56.6913963  84.0518133  86.9894087
  57.0268627  83.6239652  88.0971372  57.2315167  83.6051868  85.8619027
  56.9036442  83.9345956  84.9651927  58.2752506  82.5946699  85.8849036
  58.0023746  81.7967363  86.5755119  58.4651707  81.9925107  84.4936471
  58.8952273  82.8053620  83.9084776  59.1838014  81.1759203  84.5632902
  57.1883391  81.4918578  83.8105155  56.3868101  82.2089488  83.9878083
  57.4094160  81.3398581  82.3167960  58.2105450  80.6225231  82.1386901
  56.4923583  80.9834619  81.8476610  57.6843555  82.3042641  81.8896780
  56.7313110  80.1816319  84.4163318  56.5287015  80.3227216  85.4780015
  55.8233720  79.8461274  83.9151484  57.5123834  79.4314907  84.2925856
  59.5841882  83.2005622  86.3853144  59.7583390  84.4209222  86.4246714
  60.5151415  82.3319563  86.7725800  60.3319765  81.3387052  86.7740401
  61.7987358  82.7978516  87.2775229  61.6410881  83.5691237  88.0314366
  62.5724219  81.6467968  87.9122045  63.5039642  82.0330648  88.3258771
  61.9656831  81.2269766  88.7145256  62.9003401  80.5464031  86.9278127
  63.0512064  80.7853815  85.7314002  63.0198084  79.3271517  87.4340018
  63.2379585  78.5505129  86.8262662  62.8921376  79.1804036  88.4250951
  62.6072771  83.4559885  86.1573650  62.1769887  83.5488265  85.0064962
  63.8068015  83.9193520  86.5135805  64.1805504  83.7493320  87.4363504
  64.6103295  84.6857353  85.5748243  64.0141252  85.5389509  85.2513081
  65.4916025  85.0406431  86.1091441  65.0550100  83.9034676  84.3545270
  65.1584216  84.4635079  83.2616103  65.3297708  82.6099331  84.5156665
  65.2043874  82.1670229  85.4146709  65.8737985  81.8129553  83.4221121
  66.4690696  82.4624962  82.7803582  66.7812940  80.7156035  83.9840747
  66.1974682  80.0516912  84.6216231  67.2120261  80.1434280  83.1623780
  67.5814593  81.1692447  84.5689202  64.7760164  81.1979824  82.5609687
  64.7959740  81.3320121  81.3298766  63.8317360  80.4983601  83.1913085
  63.8903339  80.3010729  84.1801176  62.7137763  79.9430432  82.4416596
  63.0808718  79.2551889  81.6799533  61.7802188  79.1801586  83.3789683
  62.4027276  78.3758739  83.7710245  61.4966407  79.8486340  84.1918791
  60.5214130  78.5870025  82.7445216  59.8909059  79.4022532  82.3896583
  60.8742262  77.6800782  81.5838493  61.5043859  76.8642692  81.9380431
  59.9612089  77.2715425  81.1507225  61.4113449  78.2508353  80.8263268
  59.7164787  77.8301252  83.7828301  59.4249674  78.5097680  84.5835836
  58.8232409  77.4131284  83.3177053  60.3217362  77.0225852  84.1947056
  61.9564006  81.0339403  81.7031513  61.3825429  80.7792393  80.6429769
  61.9488682  82.2542965  82.2420603  62.3514120  82.4220619  83.1530557
  61.3043934  83.3689151  81.5543521  60.2626775  83.1281948  81.3422651
  61.3475020  84.6147958  82.4383016  60.8085336  84.3686362  83.3531884
  62.3963669  84.7964245  82.6728083  60.7458851  85.8601248  81.8172792
  61.2856253  86.0997486  80.9011124  59.7003349  85.6621610  81.5811918
  60.8146833  87.0563104  82.7473205  61.4312893  86.9946631  83.8107027
  60.1865090  88.1533365  82.3476032  60.2001454  88.9794458  82.9285153
  59.6972367  88.1578687  81.4640347  61.9699829  83.6364642  80.2113356
  61.2949427  83.7541864  79.1813608  63.3009707  83.7276077  80.1990736
  63.8413849  83.6826657  81.0511487  64.0071363  83.9540605  78.9438675
  63.6015401  84.8328281  78.4425111  65.4931394  84.1856986  79.2086100
  65.6260576  85.0353822  79.8782888  65.9391148  83.2976014  79.6563706
  66.2848968  84.4861900  77.9724648  65.8778072  85.4734517  77.0971012
  64.9695115  86.0356488  77.3139728  66.6050626  85.7513414  75.9604931
  66.2727528  86.5338481  75.2783244  67.7499338  85.0415964  75.6867963
  68.3267040  85.2598904  74.7880284  68.1671962  84.0552175  76.5485681
  69.0749553  83.4909105  76.3349536  67.4357812  83.7801456  77.6843060
  67.7641675  82.9970133  78.3676552  63.8191205  82.7856104  77.9874652
  63.6232043  82.9826260  76.7821654  63.8787446  81.5585644  78.5062601
  64.0908081  81.4034430  79.4814861  63.6986170  80.3939413  77.6429015
  64.4297470  80.4323866  76.8353929  63.9197965  79.1110929  78.4406318
  63.1891600  79.0538187  79.2474713  63.8029826  78.2493092  77.7835294
  64.9253775  79.1129836  78.8612295  62.3147667  80.3980174  77.0015522
  62.1728185  80.1602763  75.7945017  61.2804635  80.6676130  77.7967597
  61.4129825  80.8122796  78.7875218  59.9245682  80.7021621  77.2698390
  59.7006451  79.7835775  76.7274739  58.9262873  80.8482319  78.4144800
  59.1897605  81.7272899  79.0026459  57.5179623  81.0029452  77.8791515
  57.2535903  80.1239992  77.2912221  56.8215979  81.1056468  78.7113943
  57.4637129  81.8906920  77.2490220  58.9904676  79.6896943  79.2539724
  58.3624722  79.7812892  79.9742726  59.7527146  81.8315552  76.2657561
  59.0730859  81.6644042  75.2488655  60.3530233  82.9923591  76.5320635
  60.8425366  83.1572723  77.3999804  60.2515904  84.0891128  75.5763601
  59.2041138  84.3044012  75.3653085  60.9017725  85.3453619  76.1500319
  60.5544840  85.4460209  77.1783109  61.9791921  85.1802974  76.1454834
  60.5810262  86.6163072  75.3805997  60.9932708  86.5221352  74.3759670
  59.4972978  86.7162253  75.3201758  61.1671829  87.8488298  76.0559317
  62.2282121  87.6722691  76.2324037  61.0476494  88.6986378  75.3838918
  60.4760530  88.1473656  77.3786357  59.4002628  88.1652251  77.2041158
  60.7170545  87.3459797  78.0770610  60.9067878  89.4508368  77.9521819
  60.6831704  90.1936010  77.3053462  60.4260408  89.6093880  78.8261635
  61.9035436  89.4343440  78.1143699  60.8907252  83.6974131  74.2522449
  60.3306982  83.9572117  73.1808059  62.0628691  83.0631699  74.3086824
  62.5332853  82.9228707  75.1913625  62.7219044  82.5996103  73.0922803
  62.9289957  83.4416754  72.4318723  64.0437857  81.9230609  73.4497027
  64.6203841  82.6434525  74.0299349  63.8000088  81.0648439  74.0759107
  64.8613461  81.4635292  72.2596550  64.3976980  80.6024901  71.7782582
  64.8957334  82.2967358  71.5577388  66.2781274  81.0972392  72.6452044
  66.8398407  81.6552943  73.5862074  66.8459105  80.1206501  71.9527839
  67.7906200  79.8359160  72.1685425  66.3313924  79.6654513  71.2124012
  61.8183418  81.6415488  72.3246411  61.5936062  81.8025737  71.1175794
  61.3013374  80.6239901  73.0179545  61.4863251  80.5120326  74.0045367
  60.4919842  79.6131168  72.3471942  61.0603283  79.1624647  71.5335623
  60.0942107  78.5152856  73.3310559  59.7480429  79.0728927  74.2013095
  59.2563725  77.9764045  72.8886372  61.1701039  77.5196168  73.7597640
  61.9117759  78.0286567  74.3753140  60.5347103  76.4004095  74.5576937
  59.7932021  75.8905712  73.9426089  61.3028212  75.6900517  74.8634686
  60.0500903  76.8138386  75.4421825  61.9204138  76.9579061  72.5683677
  62.4024459  77.7710317  72.0256235  62.6771565  76.2536612  72.9140279
  61.2219179  76.4445523  71.9075573  59.2504185  80.2351133  71.7257048
  58.8714259  79.8901479  70.6012736  58.5885183  81.1428715  72.4451860
  58.8839506  81.3955457  73.3773742  57.3760601  81.7519751  71.9163061
  56.7071973  80.9802121  71.5353816  56.6531773  82.5243147  73.0162461
  56.7309498  81.9620916  73.9468136  57.1356387  83.4942429  73.1369533
  55.2884643  82.7136319  72.6924586  54.8567513  83.2006785  73.3981564
  57.6850210  82.6694331  70.7419088  56.8830981  82.7674816  69.8077187
  58.8312727  83.3488883  70.7700445  59.4370205  83.3247835  71.5778736
  59.2134886  84.1917591  69.6451894  58.3753075  84.8238589  69.3519293
  60.3883836  85.0881470  70.0342722  60.0977622  85.6301167  70.9342206
  61.2320842  84.4359965  70.2600357  60.7890650  86.0783403  68.9545844
  61.3273704  85.5398269  68.1746283  59.8836729  86.5162785  68.5343733
  61.6728314  87.1802374  69.5103737  61.9916422  87.8270796  68.6930281
  61.1023671  87.7634394  70.2332466  62.8557093  86.6459561  70.1712559
  62.8512034  86.6287644  71.1810992  63.9261900  86.1874647  69.5349150
  63.9973178  86.1813651  68.2133884  63.2233221  86.5320310  67.6674359
  64.8252653  85.8260709  67.7569142  64.9511060  85.7217029  70.2430740
  64.9051931  85.7214088  71.2520299  65.7706347  85.3704379  69.7686436
  59.5770162  83.3646568  68.4217187  59.4542803  83.8505569  67.2917939
  60.0244164  82.1246494  68.6181355  60.1301316  81.7498782  69.5500530
  60.4424680  81.2974341  67.4864533  60.7693710  81.9246985  66.6571325
  61.6040772  80.3924553  67.9025090  61.2613469  79.7087005  68.6791141
  62.1060242  79.5958065  66.7135444  62.4493796  80.2789248  65.9366556
  62.9321537  78.9571305  67.0261177  61.2977939  78.9780090  66.3221485
  62.6730263  81.1913837  68.4215382  63.4007465  80.6220053  68.6819839
  59.3022464  80.4539005  66.9131691  58.9793417  80.5678879  65.7277251
  58.6899768  79.6026817  67.7386020  58.8990866  79.5893222  68.7266273
  57.7356648  78.6266282  67.2196328  58.2280343  77.9723171  66.5002243
  57.1820458  77.7725030  68.3562902  56.8461456  78.5053413  69.0899238
  56.3225286  77.2225082  67.9730984  58.1538915  76.8001130  69.0175734
  59.0228076  77.3499821  69.3791388  57.4760108  76.1037671  70.1823507
  56.6072072  75.5532701  69.8214737  58.1760511  75.4110904  70.6495158
  57.1569897  76.8458711  70.9142028  58.6691980  75.7891330  68.0130368
  59.1863749  76.3087760  67.2064399  59.3604732  75.1058644  68.5063764
  57.8319013  75.2245890  67.6027646  56.5832271  79.2822716  66.4706675
  56.0741541  78.7109196  65.5004379  56.1567400  80.4727921  66.8942649
  56.6401101  80.9739538  67.6258998  54.9349828  81.0545813  66.3478222
  54.0987514  80.3702915  66.4912225  54.6177374  82.3699597  67.0603102
  53.7427363  82.8200895  66.5914227  54.3996080  82.1576209  68.1069389
  55.7104531  83.2669177  66.9787760  55.4885481  84.0836105  67.4319546
  55.0159224  81.2909656  64.8463975  53.9734078  81.4554122  64.2039383
  56.2172508  81.3145094  64.2697714  57.0450950  81.2724518  64.8468368
  56.3853978  81.4728639  62.8308303  55.4375326  81.7591149  62.3750769
  57.4177309  82.5615853  62.5361536  57.2690864  82.8685247  61.5008797
  57.1948678  83.3983068  63.1982179  58.8610171  82.1302801  62.7338853
  58.9437928  81.6260829  63.6967114  59.1282252  81.4364380  61.9368376
  59.8029511  83.3224582  62.7041288  60.8279738  82.9637479  62.6105641
  59.5577955  83.9482262  61.8459839  59.6986500  84.1284467  63.9151964
  59.6123647  83.6243116  64.7861166  59.7088315  85.4551933  63.9497630
  59.8363197  86.1790870  62.8482805  59.9288649  85.7196426  61.9536038
  59.8404257  87.1873160  62.9079210  59.5883551  86.0744117  65.1206276
  59.4908403  85.5325055  65.9673440  59.5949313  87.0837093  65.1576920
  56.7825711  80.1690848  62.1484585  57.3613243  80.1961064  61.0587799
  56.4787337  79.0292905  62.7611786  56.0108700  79.0318380  63.6562743
  56.8489046  77.7490632  62.1807145  57.8357901  77.8327700  61.7255781
  56.8979463  76.6658213  63.2570769  55.9144455  76.5639275  63.7158185
  57.1877121  75.7170289  62.8054919  57.6267171  76.9426089  64.0189043
  55.8657902  77.3440843  61.0871409  54.7440256  77.8483827  61.0000071
  56.3109789  76.4158168  60.2420193  57.2643149  76.0941495  60.3302232
  55.4931655  75.8666959  59.1682612  54.4365375  76.0292172  59.3809193
  55.8308653  76.5312922  57.8317896  55.2928438  76.0181686  57.0347092
  55.4305039  77.9986828  57.8503013  55.9685058  78.5125989  58.6468838
  55.6779230  78.4554553  56.8920520  54.3577876  78.0809747  58.0252542
  57.2375487  76.4265815  57.5819664  57.4455276  76.8444271  56.7430683
  55.7227497  74.3613810  59.0836974  56.8668727  73.9269530  58.8994989
  54.6850960  73.5347222  59.2089488  53.2758057  73.7700312  59.2770269
  53.0351308  74.5463916  58.5507760  53.0488541  74.1292662  60.2807909
  52.5963011  72.4549842  58.9679869  52.4414358  72.3418363  57.8949942
  51.6378636  72.3845222  59.4823157  53.5839323  71.4106458  59.5047139
  53.5244324  70.4646521  58.9665182  53.4853811  71.2262799  60.5744786
  54.9148941  72.0872475  59.2152665  55.5876484  71.8423388  60.0371665
  55.5310514  71.6296944  57.9038149  55.1145930  72.0491294  56.8215914
  56.5336977  70.7633557  58.0062981  56.8776304  70.4909743  58.9160333
  57.2112781  70.2390430  56.8251399  57.1173178  70.9391151  55.9949774
  58.7003469  69.9707535  57.1031885  59.1226355  70.8367045  57.6129939
  58.8787163  68.7368678  57.9699113  58.4570547  67.8703615  57.4605303
  59.9404934  68.5699835  58.1512395  58.3668278  68.8832302  58.9210408
  59.4644782  69.8006532  55.7887992  60.4222920  69.3388502  56.0284477
  58.8830004  69.1252956  55.1612045  59.7020741  71.0988978  55.0473991
  60.2839305  71.7746400  55.6742287  60.2489750  70.8970942  54.1263812
  58.7446382  71.5610867  54.8069874  56.4874380  68.9756201  56.3734805
  56.3122700  68.0460198  57.1586208  56.0457632  68.8891904  55.1137153
  56.0734904  69.8182102  54.0340281  57.0866218  70.2144329  53.9656716
  55.3833989  70.6264397  54.2761804  55.6611068  69.0607179  52.7918151
  56.5261814  68.6033677  52.3116320  55.1602327  69.7211794  52.0839895
  54.6926005  67.9991272  53.3300407  54.6657469  67.0960293  52.7202932
  53.6788984  68.3766733  53.4640807  55.3144430  67.6910364  54.6827690
  54.4965357  67.5172299  55.3819952  56.2139623  66.4685559  54.6432915
  57.1374077  66.3922770  53.8260798  55.9560151  65.5101015  55.5249929
  55.1972501  65.6294765  56.1808318  56.7733849  64.3054726  55.6245758
  57.7895919  64.5668041  55.9197510  56.1864051  63.3597879  56.6759460
  56.8516971  62.4986371  56.7384361  56.1939542  63.8938034  57.6261409
  54.7719094  62.8867386  56.3713493  54.6653872  62.8219751  55.2885014
  54.6485715  61.8956530  56.8079683  53.7143194  63.8186916  56.9277962
  53.8059094  65.0374859  56.6707038  52.7935847  63.3354468  57.6199046
  56.9045241  63.5818493  54.2853220  56.0198022  63.6937975  53.4816506
  57.8800143  62.8884076  53.9961240  58.7625520  63.0814038  54.4477644
  57.8395137  61.8434023  52.9641330  57.4782262  62.2772291  52.0317356
  59.2198314  61.2311388  52.7160552  59.6206894  60.9564102  53.6917274
  59.1037476  60.3352351  52.1061526  60.1713399  62.1869209  52.0313931
  60.0511461  62.4800058  50.6706398  59.2408462  62.0121981  50.1114713
  60.9258478  63.3373539  50.0320913  60.8167039  63.5660523  48.9719562
  61.9508788  63.9186973  50.7655267  62.8323541  64.7662173  50.1386198
  62.6433401  64.8798753  49.2042991  62.1020521  63.6499539  52.1110235
  62.9077333  64.1122008  52.6813796  61.2135140  62.7791252  52.7398854
  61.3295637  62.5538406  53.8000172  56.8250574  60.7571960  53.3446764
  56.4659642  60.5694338  54.5278427  56.3454186  60.0226913  52.3294486
  56.6805037  60.1569995  51.3861679  55.2913434  59.0493591  52.5535446
  54.3993878  59.5506386  52.9293548  54.9352923  58.3309445  51.2421392
  55.9211386  57.9971112  50.9184700  54.3324364  57.4662592  51.5195992
  54.2477920  59.0873250  50.0931249  54.8350357  59.9708248  49.8427775
  54.1382482  58.1891125  48.8713289  53.5507072  57.3055602  49.1207878
  53.6501606  58.7329188  48.0625360  55.1352315  57.8839917  48.5534828
  52.8673813  59.6326770  50.4904101  52.9756965  60.3218526  51.3279088
  52.4259946  60.1576802  49.6432675  52.2197792  58.8059280  50.7822946
  55.6709054  58.0123316  53.6107861  54.8271501  57.4896780  54.3198391
  56.9704176  57.7028281  53.7249331  57.5992883  58.0613542  53.0206036
  57.5187548  56.7723598  54.7559812  58.6076691  56.8030809  54.7182867
  57.0616196  57.1530016  56.1878594  55.9832331  57.3115008  56.1801281
  57.3027076  56.3311069  56.8620001  57.7573719  58.4210912  56.6647833
  58.8380918  58.2910917  56.7217523  57.5276282  59.2724752  56.0241078
  57.2012886  58.6726597  58.0632202  56.3277457  59.3212648  57.9973929
  56.9155918  57.7243609  58.5184193  58.2346529  59.3228578  58.8901358
  59.1593613  58.7459192  58.9026582  58.4437392  60.3359838  58.5466860
  57.6544503  59.3737250  60.2837507  57.4610347  58.4350121  60.6023542
  58.3165536  59.8115285  60.9082884  56.7978110  59.9086459  60.2724470
  57.2040488  55.2958023  54.4796409  56.7453498  54.5510227  55.3580625
  57.4477974  54.8559442  53.2531807  57.7838768  55.4751999  52.5295287
  57.1884778  53.4377679  52.9011306  56.5908996  52.9766125  53.6874736
  56.4303812  53.3125923  51.5713154  57.0284698  53.8044960  50.8042300
  56.3454989  52.2508460  51.3398204  55.0254805  53.9433641  51.6095787
  55.1025659  54.9981798  51.8732499  54.5875391  53.8488390  50.6159116
  54.1036684  53.2531666  52.6180816  53.9303758  52.0291929  52.5709654
  53.5270151  54.0203404  53.5458582  52.9117042  53.6038568  54.2299892
  53.7086518  55.0137810  53.5594686  58.5480826  52.7293357  52.8290714
  59.5145288  53.2136061  52.1941243  58.6414111  51.5669889  53.4824325
  57.8226852  51.1972262  53.9440198  59.8969776  50.8664300  53.6470314
  60.6909758  51.3838794  53.1085964  60.2781450  50.7554644  55.1521085
  59.4832068  50.2269703  55.6782905  61.5858796  50.0022804  55.3232730
  62.3814429  50.5304544  54.7977143  61.8321900  49.9370809  56.3830753
  61.4838673  48.9979983  54.9120430  60.3978868  52.1483071  55.7801899
  61.2639899  52.6273837  55.3236245  59.4953367  52.6959132  55.5088408
  60.5576647  52.1506610  57.3050500  61.4603159  51.6035969  57.5771559
  60.6347663  53.1779348  57.6612283  59.6916632  51.6721240  57.7623722
  59.8784465  49.4751080  52.9664135  59.2197818  48.5348975  53.4404906
  60.6026477  49.3243334  51.8445576  61.2917979  50.2691714  50.9685599
  62.3042093  50.4140647  51.3455603  60.7558124  51.2179372  50.9942916
  61.2683044  49.6301742  49.5967612  62.0933292  49.9952626  48.9850884
  60.3242406  49.8334146  49.0912532  61.4155854  48.1346110  49.9004010
  62.4575405  47.8759821  50.0889206  61.0072569  47.4661503  49.1424249
  60.6126911  48.0136999  51.1851964  59.5970157  47.7333412  50.9060895
  61.1831759  46.9681639  52.1606755  62.2007223  47.1946863  52.8152119
  60.5374134  45.8103573  52.2707190  59.6481199  45.6615622  51.8156185
  61.0496417  44.7616816  53.1502277  61.2883482  45.1867022  54.1251512
  60.0074630  43.6481933  53.3416781  59.6129833  43.3615310  52.3668398
  60.5029341  42.7916275  53.7987379  58.8497308  44.0691676  54.2287811
  58.9590179  45.0533238  54.9705244  57.7508568  43.3461524  54.1537425
  56.9524559  43.5857263  54.7240583  57.7119780  42.5556824  53.5262503
  62.3865075  44.1962424  52.6512845  62.9845494  43.2733132  53.2715156
  62.8851744  44.7217559  51.5337479  62.3209066  45.3539443  50.9841672
  64.2089713  44.3177440  51.0017376  64.2743083  43.2297557  50.9911676
  64.4287685  44.8363502  49.5734246  65.3746379  44.4359679  49.2085626
  63.6142555  44.4684635  48.9494631  64.4629847  46.2536933  49.5187073
  64.6017007  46.5356372  48.6115881  65.3313469  44.7485656  51.9270094
  66.5210341  44.4597660  51.6943311  64.9753459  45.4624625  53.0111033
  63.9926142  45.6424656  53.1592131  65.9389096  46.0029648  53.9853950
  66.9619531  45.8958584  53.6248267  65.6389422  47.4911927  54.1694991
  64.6318648  47.6257163  54.5642112  66.3597051  47.9381016  54.8542424
  65.7171261  48.4706386  52.6487933  65.4115028  49.6338012  53.2167242
  65.8708266  45.3070855  55.3705097  66.1301604  45.9170705  56.4116323
  65.5197549  44.0153447  55.3872313  65.3665410  43.5380284  54.5104223
  65.2634603  43.2825738  56.6320983  64.7502025  43.9155560  57.3559762
  64.4133436  42.0109364  56.3966119  64.9197699  41.3852551  55.6616598
  64.2261224  41.2286800  57.6831207  63.7193091  41.8535977  58.4184568
  63.6249721  40.3412524  57.4851536  65.1993971  40.9284179  58.0712969
  63.0478663  42.3772892  55.8074061  63.1879145  42.8894983  54.8554973
  62.4647334  41.4701278  55.6489330  62.5178157  43.0333345  56.4978783
  66.5922482  42.9223597  57.3430094  67.4959574  42.2727585  56.7540323
  66.7386114  43.3254410  58.5966231  66.0529324  43.9161826  59.0449176
  67.9677056  43.0181121  59.3221404  68.3924061  42.0905895  58.9381734
  69.0066551  44.1379324  59.1597326  68.5616182  45.0684629  59.5120881
  69.8706926  43.8923738  59.7771792  69.4182212  44.2919863  57.8108064
  70.0651327  44.9988750  57.7523802  67.7212028  42.7161679  60.7798533
  66.8143261  41.9521549  61.1091020  68.4306857  43.2356552  61.6342730
  68.9200953  43.9597796  61.1280898  68.7083168  43.0779743  63.0497739
  67.8339491  42.6325739  63.5243252  69.5615884  42.4088287  63.1605487
  69.0221225  44.3935953  63.7309025  68.3482636  45.3977443  63.5027800
  70.0507061  44.3889841  64.5713783  70.4903396  43.5086723  64.7991356
  70.5492757  45.5961197  65.2143068  69.9358180  46.4557627  64.9445226
  70.5220568  45.4342393  66.7346594  70.9041592  44.4491934  67.0025818
  69.4977079  45.5358562  67.0931051  71.4901199  46.6505054  67.6255423
  71.9631190  45.8799681  64.7278583  72.8265625  44.9984953  64.7664466
  72.1951273  47.1102596  64.2757645  71.4280025  47.7665327  64.2453576
  73.4868412  47.5335252  63.7535352  74.0761940  46.6621920  63.4679817
  73.2936799  48.4187385  62.5203186  72.6303671  49.2531590  62.7480416
  74.2520964  48.8021959  62.1703211  72.5540062  47.5603716  61.1139976
  72.5539867  48.6087488  60.2955823  74.3418825  48.2607243  64.7846879
  75.3826110  48.8175303  64.4225313  73.9290359  48.2843214  66.0542129
  73.1240973  47.7577543  66.3622728  74.6093004  49.1392345  67.0231788
  74.5763169  50.1715885  66.6749585  73.9055210  49.0579765  68.3797298
  74.4938348  49.5900708  69.1273009  73.8032174  48.0136112  68.6745776
  72.2370165  49.8090971  68.4279001  76.0793731  48.7523083  67.1526829
  76.9516816  49.6241061  67.2434324  76.3674508  47.4491020  67.2016167
  75.6524099  46.7480628  67.0698600  77.7323473  47.0052553  67.4484580
  77.9970016  47.2702049  68.4721079  77.7642586  45.9217169  67.3343278
  78.7376812  47.6310822  66.5010825  79.7528882  48.1905161  66.9255591
  78.4650579  47.5403614  65.1973155  77.6333242  47.0693592  64.8710100
  79.3969120  48.0673641  64.2041962  80.3946921  47.6663363  64.3822710
  78.9548038  47.6688478  62.7989809  78.8168240  46.5888137  62.7481160
  78.0278445  48.1668261  62.5146147  79.9615699  48.0186369  61.7611006
  81.0534010  47.2906405  61.3968575  81.2106128  46.3438560  61.9135618
  81.7480722  47.9454984  60.4093337  82.5913889  47.6136996  59.9634348
  81.1097212  49.1224531  60.1263077  81.4270291  50.1177560  59.2088783
  82.3161115  49.9925150  58.5908607  80.5958653  51.1988598  59.1406843
  80.8125862  51.9994221  58.4334136  79.4687775  51.3049431  59.9591246
  78.8117872  52.1723101  59.8947992  79.1531653  50.3207001  60.8697862
  78.2608703  50.4503945  61.4822319  79.9826173  49.2023980  60.9624618
  79.5172967  49.5794081  64.3131209  80.6012958  50.1367558  64.1101541
  78.4135570  50.2631915  64.6095157  77.5170460  49.8052566  64.6911431
  78.4688593  51.7108736  64.7809132  78.8582526  52.1841116  63.8795154
  77.0633753  52.2457000  65.0444877  76.7169682  51.6798096  65.9092821
  77.1477638  53.2993730  65.3104799  76.0639438  52.0882713  63.8996730
  76.0355529  51.0432215  63.5911835  74.6813458  52.5201068  64.3489411
  74.7088417  53.5652573  64.6571668  73.9778954  52.4033496  63.5245467
  74.3621579  51.9025324  65.1884775  76.5051772  52.8929417  62.6942284
  77.4822113  52.5430159  62.3609783  75.7812032  52.7685947  61.8889329
  76.5700205  53.9469690  62.9642669  79.4047335  52.0712491  65.9259931
  80.2511686  52.9667089  65.8033540  79.2556927  51.3794796  67.0563982
  78.5347123  50.6775429  67.1434119  80.0966237  51.6534687  68.2147142
  80.0505967  52.7090486  68.4825423  79.6228065  50.8267511  69.4068468
  79.7118998  49.7686984  69.1604992  80.4585591  51.1316257  70.6359108
  80.3695938  52.1894776  70.8831638  80.1045812  50.5320060  71.4745138
  81.5027690  50.8927308  70.4342789  78.2485796  51.1241796  69.6808247
  77.9518733  50.6035391  70.4308241  81.5556058  51.3545064  67.9110009
  82.4521394  52.0940142  68.3355310  81.8116361  50.2895697  67.1494654
  81.0813541  49.6534751  66.8628102  83.1854525  49.9839680  66.7648032
  83.8199151  49.9490544  67.6504315  83.2498416  48.6272290  66.0641039
  82.3973089  48.5707226  65.3872773  84.1738806  48.6038262  65.4864326
  83.2186810  47.4440209  67.0174405  84.1427676  47.4471843  67.5955018
  82.3698378  47.5696791  67.6895843  83.0881360  46.1220429  66.2786049
  82.8794945  45.3405665  67.0092638  82.2531913  46.1999471  65.5822590
  84.3530539  45.7752298  65.5145804  84.5955245  46.6089784  64.8556631
  85.1603223  45.6341132  66.2332618  84.1868785  44.5376910  64.7069589
  83.4391766  44.6683952  64.0406572  85.0459841  44.3392902  64.2143386
  83.9626160  43.7649125  65.3173840  83.7616316  51.0732648  65.8715371
  84.9138234  51.4753729  66.0476738  82.9798266  51.5661395  64.9107283
  82.0596209  51.1899886  64.7323152  83.4662991  52.6415329  64.0519067
  84.3987644  52.3569514  63.5644429  82.4301056  52.9602014  62.9753927
  81.5291960  53.3411475  63.4563731  82.9641310  54.0016889  62.0012666
  83.8648433  53.6212446  61.5195209  82.2090623  54.2125051  61.2439510
  83.2012913  54.9178799  62.5420529  82.0958976  51.7637344  62.2616442
  81.4448072  51.9656722  61.5856984  83.7806004  53.8881574  64.8692309
  84.8445541  54.5064304  64.7053958  82.9029777  54.2291956  65.8121718
  82.0544378  53.7018836  65.9605675  83.1170505  55.4344076  66.6079267
  83.3072335  56.3057271  65.9812433  81.8920073  55.7226762  67.4916531
  81.6246113  54.8170203  68.0360666  82.2037428  56.8337362  68.4798331
  82.4707962  57.7399145  67.9361196  81.3274026  57.0268305  69.0985761
  83.0370077  56.5327366  69.1147901  80.6930403  56.0915818  66.6342053
  80.4584345  55.2660043  65.9622797  79.8349562  56.2923708  67.2756686
  80.9244297  56.9813809  66.0486992  84.3823101  55.2878026  67.4396696
  85.2323694  56.1874046  67.4705450  84.5285449  54.1590054  68.1337778
  83.8393343  53.4207603  68.1247085  85.6883223  54.0106846  69.0033700
  85.7920077  54.8915708  69.6369219  85.5270682  52.7839753  69.8964626
  85.3082398  51.9308092  69.2543404  86.4744761  52.6184413  70.4094117
  84.4196653  52.9430320  70.9198817  84.7457981  53.6713902  71.6623322
  83.5347930  53.3194541  70.4066474  84.0863724  51.6379636  71.6070922
  83.1688423  51.7683847  72.1808760  83.9335000  50.8711011  70.8477165
  85.2065957  51.2127889  72.5357806  85.0016003  50.2016943  72.8875835
  86.1426441  51.2198304  71.9773336  85.3181517  52.1294983  73.7009832
  84.4510374  52.1227915  74.2188322  86.0706665  51.8220324  74.3003880
  85.5085286  53.0663776  73.3752333  86.9734250  53.9309467  68.1860122
  87.9982200  54.4979024  68.5798214  86.9411159  53.2389026  67.0419619
  86.1220725  52.7095573  66.7791679  88.1062104  53.1851655  66.1711254
  88.9844261  52.8900193  66.7453424  87.8882815  52.1651477  65.0523253
  86.9343822  52.4030215  64.5815903  88.6933605  52.3026296  64.3304897
  87.8733255  50.7207843  65.5250234  88.8461530  50.4992280  65.9639087
  87.1009463  50.6263208  66.2883099  87.5929339  49.7444082  64.3990944
  87.8751132  50.0840557  63.2307646  87.0914256  48.6349867  64.6818301
  88.4293995  54.5408815  65.5709480  89.5237991  54.7153007  65.0252544
  87.5072341  55.4981982  65.6587299  86.5742392  55.2973064  65.9892784
  87.8099237  56.8566195  65.2284979  88.5915227  56.8462969  64.4688298
  86.5649858  57.5235978  64.6400731  85.7391040  57.4163017  65.3432850
  86.8237034  59.0016723  64.3834256  87.6492105  59.1097652  63.6798962
  85.9279253  59.4605527  63.9649647  87.0794833  59.4945129  65.3213944
  86.2117391  56.8822937  63.4075100  85.4305349  57.3025937  63.0405384
  88.3498754  57.7025145  66.3758566  89.2360239  58.5360960  66.1893824
  87.8294844  57.5097291  67.5921102  87.0532686  56.8799067  67.7367212
  88.3379963  58.2566366  68.7393059  88.5330521  59.2917605  68.4590010
  87.3063608  58.2422075  69.8718808  87.1017283  57.2051300  70.1377682
  87.8130406  58.9967218  71.1087692  88.0174617  60.0340640  70.8437545
  87.0542321  58.9647631  71.8906178  88.7277584  58.5279159  71.4715542
  86.0963852  58.8635249  69.4223903  85.4495510  58.8547681  70.1317063
  89.6687174  57.6955167  69.2317242  90.5464178  58.4586443  69.6503879
  89.8430893  56.3777291  69.1840124  89.0877375  55.7777067  68.8848198
  91.0956745  55.7565351  69.6037471  91.6530259  56.4447069  70.2392613
  90.8231396  54.4730462  70.3933089  90.2522775  53.8145747  69.7386097
  91.7920486  54.0215748  70.6065905  90.0608219  54.6782699  71.6966956
  89.1234169  55.1839230  71.4649896  89.8484544  53.6978434  72.1230358
  90.8496315  55.5074801  72.7002058  91.1057909  56.4646554  72.2460067
  90.2325608  55.6780671  73.5823755  92.0803832  54.8414287  73.1123839
  92.9321916  55.1276143  72.6512771  92.1500785  53.8972514  74.0415883
  91.0729279  53.4747996  74.6842166  90.1708773  53.8749283  74.4690383
  91.1579577  52.7542422  75.3868306  93.3325206  53.3612594  74.3347507
  94.1605912  53.6764967  73.8499573  93.3963316  52.6417383  75.0406659
  91.9797676  55.4495590  68.4023321  92.7014758  56.1278186  67.7244604
  91.6055981  53.9210560  68.3741747  91.0838552  53.4680794  69.1108537
  92.0815323  53.1046043  67.2592181  91.2423227  53.0703005  66.5644882
  93.2664349  53.8053697  66.5660321  93.0063875  54.8506424  66.3990578
  94.5304080  53.7253747  67.4276989  94.7913603  52.6803361  67.5947251
  95.3518064  54.2271595  66.9162149  94.3487388  54.2116246  68.3861654
  93.6215564  53.0769884  65.3863849  94.3595554  53.5111544  64.9522677
  92.4837623  51.7168955  67.7483208  93.5437470  51.1833987  67.4099564
  91.6207278  51.1197699  68.5611969  90.8042055  51.6302378  68.8658492
  91.8559329  49.8008765  69.1200212  92.1347182  49.1329817  68.3049785
  92.9640560  49.7641848  70.1865773  93.1111160  48.7164060  70.4485545
  93.8667591  50.1498520  69.7127756  92.6693154  50.5701448  71.4540521
  92.4705573  51.6000274  71.1575090  91.7725138  50.1420283  71.9018941
  93.8051129  50.5444985  72.4689059  93.6012370  50.0537303  73.6078910
  94.9138592  51.0071871  72.1249843  90.5094696  49.3181409  69.6366990
  89.4618502  49.8951030  69.3293142  90.5023256  48.2483941  70.4346820
  90.9076797  47.5750294  69.2597123  91.9412014  47.2582567  69.3996704
  90.8546556  48.2862722  68.4354422  89.9633235  46.4097620  69.0767743
  90.3271255  45.5292467  69.6063401  89.8410931  46.1727596  68.0198963
  88.6486576  46.9219344  69.6786340  87.9986464  46.1400157  70.0713011
  88.0918545  47.5344520  68.9694852  89.1637516  47.7866575  70.8184696
  88.5175392  48.6625592  70.8759491  89.1394701  47.0473936  72.1571063
  89.9330615  47.3085733  73.0658669  88.2085590  46.1040973  72.2804379
  87.5735069  45.9478180  71.5107724  88.0499727  45.2947615  73.4825860
  88.5903669  44.3506943  73.4132291  88.5425484  46.0822837  74.7259974
  89.5148778  46.5208113  74.5015659  87.5600631  47.1870939  75.0924479
  86.5875560  46.7492674  75.3174783  87.9268567  47.7249504  75.9666753
  87.4617136  47.8787842  74.2557932  88.7761244  45.1605863  75.9213912
  89.2706428  45.7499204  76.6935554  87.7978874  44.8404357  76.2800771
  89.6159556  43.9469617  75.5995081  90.5945759  44.2663335  75.2411732
  89.7383404  43.3407247  76.4970591  89.1218211  43.3568497  74.8276928
  86.5708226  44.9253086  73.6500958  85.6805447  45.7421926  73.4099878
  86.2819091  43.6967336  74.0602986  86.9845712  42.9730777  74.1121387
  84.9003283  43.3461973  74.3868946  84.8524106  42.2953953  74.6725834
  84.3663747  44.1950421  75.5485249  83.2857011  44.0679621  75.6125130
  84.8280525  43.8460324  76.4721839  84.6720941  45.6729615  75.3815647
  85.8307698  46.0658441  75.2348440  83.6279309  46.5016697  75.3970529
  83.7740872  47.4953023  75.2901307  82.6954948  46.1320732  75.5156370
  84.0145354  43.5071080  73.1539417  83.2900633  44.4871690  72.9851831
  84.0856448  42.4499677  72.2213990  84.3405496  41.4736029  72.2642317
  83.7378219  43.0174238  70.9238155  84.0084511  44.0726593  70.8872503
  84.4605211  42.2838997  69.7780680  84.1355482  42.7073726  68.8277188
  85.9698562  42.4338711  69.9104694  86.2956547  42.0101771  70.8604370
  86.4609455  41.9084513  69.0914063  86.2350550  43.4905052  69.8744895
  84.1122962  40.8943764  69.7932179  84.5655550  40.4430850  69.0773318
  82.2314550  42.9656966  70.6793549  81.7647539  43.2476081  69.5770079
  81.4768126  42.6000902  71.7111169  81.9277223  42.2581907  72.5477079
  80.0215280  42.6389860  71.6779360  79.6792826  42.7612084  70.6503033
  79.4217192  41.3502341  72.2428801  79.7035688  41.2588705  73.2918385
  77.9043201  41.3700830  72.1254792  77.6216853  41.4609662  71.0766907
  77.4957608  40.4451451  72.5325028  77.5073087  42.2183746  72.6830489
  79.9351142  40.2240910  71.5192417  79.5578080  39.4161689  71.8749132
  79.5458304  43.8390115  72.4835884  79.9314392  44.0033349  73.6464868
  78.7131594  44.6729303  71.8670055  78.4109839  44.4602417  70.9270306
  78.2454756  45.9066328  72.4791027  78.4977662  45.9041897  73.5395001
  78.8946049  47.1307105  71.8240768  78.6555058  47.0711847  70.7622917
  78.4304601  48.0196551  72.2512151  80.3921576  47.2120628  71.9986041
  80.9552964  47.4227699  73.2479468  80.2992408  47.5245533  74.1124296
  82.3248995  47.5042256  73.4069856  82.7565127  47.6647354  74.3949373
  83.1458627  47.3815550  72.3089053  84.5087114  47.4625210  72.4607234
  84.7768588  47.6053947  73.3713735  82.6089376  47.1779502  71.0583808
  83.2588597  47.0811510  70.1887075  81.2421821  47.0966246  70.9091334
  80.8102913  46.9387759  69.9208753  76.7294866  45.9863782  72.3535513
  76.0825770  45.1113322  71.7724348  76.1635633  47.0520633  72.9118881
  76.7360468  47.6797694  73.4580996  74.7329749  47.3129742  72.8348733
  74.3260987  46.8704464  71.9256318  74.0083285  46.7052690  74.0425086
  72.9428122  46.9160550  73.9511665  74.1666316  45.6268409  74.0367676
  74.4938564  47.2468429  75.2575338  74.0243396  46.8501012  75.9949277
  74.5371331  48.8226459  72.7285931  75.4861262  49.5776608  72.5009871
  73.2903208  49.2665289  72.8918750  72.5312490  48.6307698  73.0911733
  72.9835101  50.6852668  72.7435001  73.2884075  51.0325745  71.7563253
  71.4840033  50.9124461  72.8981800  70.9932845  50.1509528  72.2920264
  71.2345516  50.7570190  73.9478068  71.0120959  52.2805801  72.4661639
  71.5003206  52.8762127  71.3141707  72.2398382  52.3409998  70.7185531
  71.0682330  54.1194237  70.9181912  71.4550360  54.5743319  70.0063009
  70.1478199  54.7935434  71.6859330  69.7155417  56.0379989  71.2948946
  70.1199149  56.3355596  70.4766406  69.6516632  54.2260810  72.8372035
  68.9171697  54.7568033  73.4429704  70.0889694  52.9802817  73.2216910
  69.7074384  52.5271497  74.1366804  73.7407103  51.5248222  73.7638277
  74.2746917  52.5923791  73.4327821  73.7708008  51.0684370  75.0173273
  73.3068171  50.2056738  75.2632097  74.4242516  51.8272516  76.0756413
  73.9108548  52.7734814  76.2464395  74.4059145  51.0196410  77.3748521
  75.1157564  50.1970503  77.2878501  74.7859065  51.8927643  78.5579531
  74.0761967  52.7153700  78.6458817  74.7661268  51.2973760  79.4707622
  75.7885108  52.2930954  78.4075529  73.0963653  50.4805179  77.5853685
  73.0861301  49.9740206  78.4008168  75.8511917  52.1846702  75.6855145
  76.2795329  53.3351420  75.8314167  76.6052406  51.2046070  75.1877552
  76.2454932  50.2636737  75.1147790  77.9846518  51.4478765  74.7954012
  78.4845191  52.0590768  75.5468438  78.7327566  50.1232704  74.6675268
  78.0513541  49.3936790  74.2299354  79.5786068  50.2771973  73.9974939
  79.2333767  49.6092144  76.0028918  79.8588883  50.3928090  76.7452528
  79.0021509  48.4211811  76.3099904  78.0904689  52.2294623  73.4947881
  79.1982361  52.6307381  73.1256177  76.9785097  52.4469982  72.7919554
  76.1225237  51.9518617  72.9974480  76.9884289  53.3721038  71.6652091
  77.9454250  53.3183798  71.1461992  75.8760700  53.0082101  70.6789429
  75.9839165  51.9692185  70.3675511  74.9018501  53.1472461  71.1476267
  75.8712986  53.8386645  69.4182178  76.9894610  54.5486033  69.0208858
  77.8913147  54.5059642  69.6315753  76.9729556  55.3028370  67.8693703
  77.8633073  55.8550356  67.5686189  75.8362217  55.3601691  67.0994780
  75.8215953  55.9583441  66.1883947  74.7174845  54.6619571  67.4800722
  73.8148544  54.7054427  66.8705904  74.7351506  53.9058779  68.6327045
  73.8464247  53.3517267  68.9346689  76.8285487  54.8084636  72.1436315
  77.5832482  55.6996407  71.7331709  75.8526931  55.0514914  73.0204418
  75.2005585  54.3391472  73.3160524  75.6643171  56.4108513  73.5167532
  75.6298943  57.1067130  72.6784867  74.3541733  56.5237429  74.3003059
  73.9675462  57.5256911  74.1139773  73.6737408  55.7870576  73.8732153
  74.4706792  56.2966421  75.7981085  74.8720243  55.2977460  75.9690749
  75.1489417  57.0375123  76.2213974  73.1344920  56.4075551  76.4997965
  72.0838559  56.2222426  75.8886517  73.1663408  56.7185975  77.7901838
  72.3029561  56.8054865  78.3070190  74.0538057  56.8668848  78.2490064
  76.8482685  56.8439121  74.3709800  77.2643151  58.0056835  74.3146196
  77.4082772  55.9267488  75.1629470  77.0328120  54.9916082  75.2310447
  78.5502865  56.2759246  76.0000515  78.3203560  57.1559535  76.6007014
  78.8775932  55.1159643  76.9389042  77.9903367  54.9381577  77.5465718
  79.0694215  54.2443347  76.3131536  80.0698670  55.3600410  77.8446938
  80.9622819  55.4677674  77.2281783  79.9023394  56.2802174  78.4044365
  80.2606988  54.2053919  78.8141796  79.4015563  54.1716199  79.4841294
  80.3112375  53.2790259  78.2419983  81.5308947  54.3663369  79.6287592
  82.3739033  54.4174705  78.9396856  81.4618870  55.2996835  80.1875090
  81.7322079  53.2353896  80.5754773  81.7966088  52.3704839  80.0578961
  82.5852268  53.3802795  81.0965010  80.9513715  53.1880972  81.2143491
  79.7707691  56.6391786  75.1643518  80.5853186  57.4666045  75.5874551
  79.9179777  56.0383193  73.9826092  79.2976840  55.2974715  73.6885352
  81.0256720  56.4013578  73.1061815  81.9223207  56.5385285  73.7105857
  81.2831753  55.2851811  72.0981540  80.3972823  55.1421983  71.4794057
  82.1284001  55.5547022  71.4648659  81.5080511  54.3601713  72.6290844
  80.7566141  57.7141614  72.3826426  81.6653419  58.5449637  72.2343711
  79.5207900  57.9205987  71.9245287  78.8042815  57.2109589  71.9804423
  79.2043893  59.1703805  71.2427619  79.9264718  59.3832161  70.4544744
  77.7997928  59.1080784  70.6189493  77.0776829  58.8394155  71.3899725
  77.4298490  60.4557481  70.0274384  78.1512946  60.7248928  69.2559603
  76.4336026  60.3994537  69.5887762  77.4385563  61.2122592  70.8121146
  77.7495050  58.0357923  69.5511536  77.9857617  57.0687741  69.9951814
  76.7503162  58.0012629  69.1169543  78.4761873  58.2643040  68.7715281
  79.3374563  60.3449669  72.2001526  79.7237878  61.4473201  71.7935245
  79.0184584  60.1371690  73.4795682  78.6260050  59.2581524  73.7851978
  79.1758150  61.2032786  74.4625872  78.5724906  62.0654943  74.1785398
  78.7177725  60.7184057  75.8369817  78.9185143  59.6495781  75.9105321
  79.2831424  61.2473880  76.6042069  77.2385743  60.9514187  76.0777982
  76.7399832  60.7638081  77.1859224  76.5277084  61.3580621  75.0341835
  75.5375877  61.5288429  75.1371135  76.9798834  61.4950093  74.1414998
  80.6196737  61.6820307  74.5177479  80.8883168  62.8868064  74.4456763
  81.5679202  60.7504123  74.6459066  81.3394230  59.7722652  74.7513425
  82.9720463  61.1425487  74.7013135  83.1118694  61.9103296  75.4622742
  83.8480806  59.9406821  75.0534193  83.5906661  59.1392245  74.3609579
  84.8844681  60.2385728  74.8944787  83.6759879  59.4519162  76.4778792
  83.8292921  60.2927216  77.1543738  82.6607417  59.0727689  76.5946041
  84.6688502  58.3498065  76.8071427  84.5574222  57.5505905  76.0743831
  85.6769392  58.7598708  76.7462880  84.4318634  57.7954813  78.1996692
  83.4313422  57.3640498  78.2300784  85.1693610  57.0150113  78.3869203
  84.5493884  58.8504494  79.2450764  83.8658029  59.5735354  79.0719949
  84.3854714  58.4429021  80.1545468  85.4765586  59.2500563  79.2173510
  83.4256778  61.7597688  73.3881300  84.1915249  62.7318743  73.3863628
  82.9763574  61.2119718  72.2568203  82.3955612  60.3857088  72.2487804
  83.3843518  61.7823178  70.9789792  84.4717711  61.7809514  70.9040344
  82.8144623  60.9636153  69.8226042  83.3119779  59.9965973  69.8964532
  81.7427253  60.8325862  69.9719736  83.0666911  61.5622971  68.4364943
  82.5726016  62.5320865  68.3774609  84.5570254  61.7366454  68.1847815
  85.0517589  60.7671481  68.2431981  84.7111585  62.1634981  67.1937514
  84.9773762  62.4043734  68.9368086  82.4472196  60.6964795  67.3576680
  81.3716888  60.6264750  67.5202478  82.6383388  61.1402372  66.3806041
  82.8855015  59.6991837  67.3952062  82.9436439  63.2364887  70.8752027
  83.7266819  64.1112711  70.4887867  81.6898053  63.5173701  71.2349003
  81.0392650  62.7872681  71.4875812  81.2113491  64.8960579  71.2211314
  81.3551350  65.3310674  70.2320958  79.7224770  64.9373700  71.5608580
  79.6411325  64.3246045  72.4586335  79.4679405  65.9694927  71.8017605
  78.7626405  64.4121338  70.4986740  79.1140438  63.4431962  70.1440242
  77.3732201  64.2612583  71.0863487  77.0209322  65.2299394  71.4408187
  76.6934749  63.8856722  70.3215074  77.4049207  63.5595383  71.9198261
  78.7395533  65.3423369  69.2991432  79.7398038  65.4091251  68.8711972
  78.0497423  64.9532662  68.5502199  78.4125144  66.3334495  69.6135318
  81.9998988  65.7563747  72.2002016  82.4184761  66.8711321  71.8692064
  82.2112815  65.2510843  73.4181704  81.8636530  64.3381442  73.6746740
  82.9048358  66.0360084  74.4313845  82.3715242  66.9647309  74.6342446
  83.0046427  65.2357977  75.7310654  83.5580996  64.3171349  75.5365292
  83.7176448  66.0381624  76.8066141  83.1644868  66.9568166  77.0020374
  83.7765581  65.4485324  77.7214719  84.7240737  66.2855174  76.4689502
  81.6916323  64.8910399  76.1875679  81.7579715  64.3890511  77.0031700
  84.2884611  66.4493724  73.9548636  84.7327637  67.5732839  74.2131080
  84.9848357  65.5575139  73.2553752  84.5890819  64.6492665  73.0589957
  86.3441220  65.8295805  72.8088482  86.7668358  66.5610029  73.4976395
  87.1822862  64.5494065  72.8792844  86.7767090  63.8104803  72.1882017
  88.2133323  64.7740770  72.6062141  87.1540979  64.1514014  73.8936298
  86.4281273  66.4057301  71.4000630  87.5338872  66.7242178  70.9516897
  85.3088453  66.5576176  70.6885892  84.4137639  66.3139713  71.0880453
  85.3477971  67.0068315  69.3013335  86.3789019  67.0667149  68.9530001
  84.5896994  66.0115687  68.4177370  83.5301977  66.0530836  68.6703868
  84.7250743  66.2941099  67.3737331  85.0704898  64.6951062  68.6160799
  84.5830238  64.0883579  68.0540895  84.7856622  68.4100763  69.1097674
  85.4879038  69.2843562  68.5942752  83.5385645  68.6533425  69.4970088
  82.9856033  67.9323862  69.9380929  82.9118184  69.9501847  69.2433308
  82.8445125  70.1186640  68.1685360  81.5019498  70.0034370  69.8358753
  81.5418298  69.2999951  70.6675473  81.3091820  71.0060373  70.2176255
  80.3783179  69.5975865  68.8779559  80.5376019  70.0903293  67.9188240
  80.3611537  68.0930365  68.6768174  80.2014395  67.5995839  69.6355117
  79.5553377  67.8265492  67.9928980  81.3143433  67.7711201  68.2574132
  79.0316923  70.0935014  69.3822950  79.0503013  71.1805345  69.4604759
  78.2491467  69.7932064  68.6854832  78.8292711  69.6626395  70.3628472
  83.7560943  71.0875733  69.8074784  83.8981976  71.9215724  69.2730234
  84.1672843  70.9966265  70.7144770  70.4808731  48.3304713  68.8824988
  90.1140686  79.6582168  27.7674265  90.2420918  78.9503163  28.4763609
  90.7974720  79.5142657  27.0378114  89.1323628  79.7123379  27.5362900
  90.4435040  80.9513908  28.3540255  91.2733248  81.4048428  27.8119205
  89.2445954  81.9146651  28.3130530  89.5664785  82.8943653  28.6661523
  88.7046724  82.0388816  26.8972736  88.3821392  81.0595891  26.5436379
  87.8573174  82.7244717  26.8898558  89.4869118  82.4217668  26.2418339
  88.2095086  81.4326818  29.1789314  87.4628475  82.0354605  29.1514470
  90.9024037  80.7830045  29.7980408  91.1465794  79.6668503  30.2545407
  91.0217381  81.9022813  30.5144372  90.8175083  82.8056300  30.1115097
  91.5131642  81.8523955  31.8867541  92.3996638  81.2208665  31.9449661
  91.8837746  83.2589931  32.3565170  91.0560290  83.9328943  32.1356243
  92.0541799  83.2342631  33.4328304  93.1335676  83.7885058  31.6800276
  94.2497773  83.3909339  32.0128780  92.9513516  84.6899523  30.7228377
  93.7491488  85.0763631  30.2387859  92.0157483  84.9852825  30.4829891
  90.4850107  81.2296198  32.8243851  90.8360506  80.4072657  33.6777056
  89.2145055  81.6103257  32.6849241  88.9453530  82.3053621  32.0033225
  88.1859997  81.0787722  33.5748750  88.4922646  81.1990075  34.6140307
  86.8733262  81.8301573  33.3628893  86.6528004  81.8080763  32.2956593
  86.0967317  81.2906820  33.9050770  86.9162284  83.2727859  33.8414882
  87.3378282  83.2938267  34.8464319  87.5560562  83.8425361  33.1676135
  85.5474763  83.9243384  33.8765200  84.5957677  83.4298170  33.2748222
  85.4428564  85.0425151  34.5865732  84.5541724  85.5189264  34.6446636
  86.2524944  85.4109345  35.0649609  87.9951298  79.5808308  33.3682009
  87.8002691  78.8326745  34.3339547  88.0415233  79.1245499  32.1137713
  88.1009162  79.7550853  31.3270077  87.9526003  77.6938341  31.8477546
  87.0330805  77.2912467  32.2726144  87.9453615  77.4417961  30.3400615
  88.7378253  78.0876753  29.9619867  88.2128761  76.3995278  30.1662437
  86.6377476  77.7604087  29.6127193  86.2085078  78.6672783  30.0386789
  86.8872470  77.9674646  28.1276159  87.3160848  77.0607935  27.7008319
  85.9449325  78.1929705  27.6283253  87.5798872  78.7973139  27.9872588
  85.6251643  76.6505378  29.8375916  85.4237593  76.5524063  30.9043182
  84.6997122  76.8908166  29.3142316  86.0244357  75.7108988  29.4558064
  89.1040697  76.9454566  32.5044786  88.9040948  75.8854194  33.1088100
  90.3204414  77.4852498  32.3990789  90.4788645  78.3117252  31.8405631
  91.4676181  76.8568738  33.0454488  91.5624456  75.8221984  32.7159738
  92.7474986  77.6056137  32.6775743  92.7723989  77.6822459  31.5905570
  92.6703431  78.6032120  33.1099453  94.0229651  76.9384255  33.1676581
  94.0481478  76.9886956  34.2562074  94.0157190  75.8949400  32.8527177
  95.2742064  77.6005107  32.6227759  95.1980928  78.5082300  31.7958047
  96.4336088  77.1468389  33.0857692  97.2984595  77.5517998  32.7569206
  96.4449974  76.3990090  33.7645344  91.2886569  76.8165974  34.5564357
  91.6073228  75.8104200  35.2014226  90.7939924  77.9093000  35.1408732
  90.5991300  78.7441919  34.6069411  90.5778893  77.9445977  36.5834273
  91.5078883  77.7217682  37.1064457  90.1004179  79.3349726  37.0061255
  90.9218487  80.0280478  36.8244733  89.2565931  79.5972043  36.3679294
  89.6807524  79.4202837  38.4563571  90.6200040  79.5734502  39.4659453
  91.6751639  79.6339325  39.1993389  90.2369949  79.6493254  40.7908483
  90.9846203  79.7696062  41.5748704  88.8998244  79.5731723  41.1190630
  88.5077295  79.6471610  42.4341737  89.2450085  79.7513344  43.0401170
  87.9488807  79.4216668  40.1351173  86.8915861  79.3616253  40.3932326
  88.3419737  79.3458439  38.8150427  87.5953507  79.2251308  38.0301335
  89.5758111  76.8804526  37.0072615  89.7949371  76.1576170  37.9848429
  88.4668233  76.7640824  36.2742970  88.2658955  77.3986562  35.5146632
  87.4804333  75.7404766  36.5992755  87.1629768  75.8449646  37.6367738
  86.2565439  75.8853617  35.6975143  86.6722408  75.9243181  34.6906490
  85.6414907  74.9915270  35.8017700  85.3979049  77.1253930  35.9419962
  86.0469484  77.9981697  36.0134393  84.4109338  77.3205161  34.8035815
  83.7611997  76.4482816  34.7318071  83.8072446  78.2079801  34.9934965
  84.9552466  77.4454761  33.8675212  84.6697364  77.0203179  37.2702114
  85.3965734  76.9306242  38.0775295  84.0641425  77.9133254  37.4247910
  84.0250137  76.1414652  37.2631674  88.0787553  74.3466264  36.4678814
  87.8539859  73.4821379  37.3217322  88.8472684  74.1136058  35.4022487
  89.0217874  74.8364026  34.7187231  89.4054842  72.7876564  35.1641682
  88.6154969  72.0373434  35.1965678  90.0663166  72.7413466  33.7883034
  89.2271461  72.8377946  33.0993986  90.7142244  73.6129184  33.6951468
  90.8609139  71.4765918  33.4504332  91.6920213  71.3873355  34.1500007
  89.9816854  70.2404529  33.5483254  89.1505556  70.3287755  32.8486674
  90.5693818  69.3556429  33.3037341  89.5937574  70.1492890  34.5628704
  91.4738482  71.5890080  32.0624921  92.1440687  72.4479582  32.0292006
  92.0350968  70.6819672  31.8380411  90.6821331  71.7177529  31.3244468
  90.4050138  72.3965212  36.2467927  90.4296993  71.2417848  36.6840977
  91.2402834  73.3365182  36.6848432  91.1183101  74.2976177  36.3993444
  92.3784926  73.0069085  37.5324772  92.5895165  71.9388187  37.4800162
  93.6174985  73.7750405  37.0573544  93.3587856  74.8338210  37.0450770
  94.4070819  73.6029446  37.7888194  94.1034148  73.3570619  35.6807175
  94.2828956  72.2819875  35.6908516  93.3230159  73.5877915  34.9555668
  95.3804646  74.0788573  35.2954367  95.2038242  75.1541421  35.3211227
  96.1638141  73.8227212  36.0087791  95.8284183  73.7108568  33.9575685
  95.5896798  74.3402373  33.2045854  96.5206681  72.6159949  33.6719227
  96.8627131  71.7475543  34.6097661  96.5948372  71.9135516  35.5693428
  97.3901029  70.9226648  34.3617403  96.8788935  72.3867237  32.4112105
  96.6219155  73.0442216  31.6888816  97.4061536  71.5562388  32.1823211
  92.1542747  73.2924699  39.0128765  92.9826646  72.8807231  39.8309894
  91.0735006  73.9794885  39.3811887  90.4259747  74.3267307  38.6882007
  90.8268961  74.3035982  40.7820024  91.5378630  73.8117530  41.4458650
  90.9039324  75.8226556  41.0174171  90.1422037  76.3146696  40.4126106
  90.6712699  76.1461811  42.4887381  91.4329409  75.6548563  43.0941787
  90.7291155  77.2243958  42.6377596  89.6851457  75.7909609  42.7878690
  92.2469253  76.3649480  40.5481413  92.3684425  76.1643661  39.4836684
  92.2857020  77.4403847  40.7214382  93.0495033  75.8788910  41.1028648
  89.4711280  73.7605784  41.2123133  89.3858158  72.8961039  42.0913768
  88.4012143  74.2597225  40.5917604  88.4940985  74.9603533  39.8702423
  87.0588827  73.8614195  41.0001050  86.9288688  73.9083319  42.0813056
  86.0033278  74.7650321  40.3381395  86.0061880  74.5866116  39.2628455
  84.6216699  74.4630612  40.8981930  84.6178998  74.6417075  41.9734475
  83.8859971  75.1100066  40.4203354  84.3696427  73.4207744  40.7026883
  86.3560988  76.2305467  40.5369678  87.3281461  76.4349396  40.0881366
  85.5988988  76.8546845  40.0624156  86.3945167  76.4541408  41.6030966
  86.8181500  72.3948715  40.6714794  86.3185148  71.6264100  41.5022733
  87.1648644  71.9855735  39.4493917  87.5409369  72.6289693  38.7676948
  86.9496654  70.6008757  39.0477073  85.9035328  70.3283742  39.1871654
  87.3073345  70.4266181  37.5713421  86.6284836  71.1245664  37.0813128
  88.3355088  70.7580774  37.4261101  87.1303596  69.0309368  36.9640287
  87.0262411  69.1354247  35.8840553  88.3226818  68.1279428  37.2753286
  88.4271649  68.0225985  38.3551826  88.1622255  67.1465917  36.8288931
  89.2305641  68.5694543  36.8643328  85.8330988  68.3899902  37.4376553
  84.9893884  69.0111347  37.1369368  85.7322188  67.4004533  36.9918513
  85.8476258  68.2988605  38.5237415  87.7644995  69.6531411  39.9165079
  87.2559824  68.6271716  40.3811464  89.0373551  69.9808047  40.1504569
  89.4606655  70.7920486  39.7229162  89.8693411  69.1304347  40.9939800
  89.8687664  68.1103688  40.6098388  91.3071478  69.6466385  41.0062836
  91.2812840  70.6560270  41.4168505  91.8743890  68.9979028  41.6737260
  91.9716301  69.6727580  39.6406508  91.3370837  70.2415359  38.9609867
  92.9365988  70.1702305  39.7379059  92.1774120  68.2732400  39.0885417
  92.7399845  67.6905904  39.8180146  91.2014066  67.8138271  38.9321679
  92.9369913  68.3071771  37.7739918  92.3717518  68.9188345  37.0707990
  93.9087078  68.7666508  37.9549614  93.1306737  66.9460829  37.2030357
  92.2303720  66.5203168  37.0348693  93.6382618  67.0152515  36.3325933
  93.6547860  66.3792755  37.8542919  89.3210204  69.0595254  42.4120087
  89.3192019  67.9902975  43.0333866  88.8472425  70.1879496  42.9433263
  88.8873070  71.0630728  42.4406798  88.3093960  70.1931612  44.2980628
  89.0305210  69.7691725  44.9968556  87.9921171  71.6243471  44.7318437
  87.2122827  72.0251719  44.0843113  87.5152968  71.6536060  46.1784035
  88.2948364  71.2533337  46.8266317  87.2946432  72.6809838  46.4680687
  86.6147586  71.0474627  46.2770030  89.1656319  72.4370466  44.6026019
  88.9644741  73.3352214  44.8753983  87.0664739  69.3189759  44.3933614
  86.9333110  68.5077131  45.3160691  86.1425705  69.4693693  43.4441126
  86.2690214  70.1227530  42.6843763  84.8891861  68.7325468  43.5193867
  84.5363919  68.7038285  44.5503138  83.8236594  69.4114868  42.6568004
  84.3869148  69.9602760  41.9020336  83.2051835  68.6570117  42.1706369
  82.9299396  70.3813488  43.4306213  82.5076105  69.8654775  44.2929529
  83.7351315  71.5790166  43.9021845  84.1574235  72.0956997  43.0403221
  83.0856646  72.2606366  44.4514454  84.5411991  71.2417741  44.5538155
  81.7472451  70.8245369  42.5876759  81.1549190  69.9540715  42.3056488
  81.1285499  71.5135938  43.1625829  82.1080854  71.3245308  41.6888437
  85.0358719  67.2775504  43.0999947  84.1508811  66.4699819  43.4007842
  86.1246180  66.9221561  42.4171419  86.8212019  67.6031838  42.1505496
  86.3105229  65.5430759  41.9928930  85.3686478  65.1352772  41.6259180
  87.3432530  65.4756191  40.8680321  87.0862642  66.1700431  40.0681375
  88.3339082  65.7167314  41.2534762  87.4453151  64.1251036  40.2441249
  88.3402612  63.1441615  40.5512340  89.0637969  63.3656386  41.3358000
  88.1202918  62.0407283  39.7650338  88.6460974  61.1790607  39.7990473
  87.0657902  62.2962195  38.9299891  86.4709654  61.4919811  37.9649150
  86.8668258  60.4887186  37.8072523  85.4173606  62.0163564  37.2688147
  84.9291819  61.4167403  36.5005425  84.9482242  63.3094564  37.5194165
  84.1061886  63.7162786  36.9594421  85.5337624  64.1079649  38.4793015
  85.1322853  65.1091494  38.6359744  86.6145215  63.5992940  39.2044709
  86.7455767  64.6397033  43.1372094  86.6221235  63.4152414  43.0249489
  87.2477694  65.2138033  44.2319586  87.2751740  66.2219431  44.2867529
  87.8048718  64.4485859  45.3344509  87.8690434  63.3943081  45.0652307
  89.2176278  64.9591163  45.6607071  89.7269832  65.0998780  44.7073749
  89.0953739  65.9240550  46.1526902  90.0451069  64.0399073  46.5464899
  89.4005588  63.6391115  47.3288079  90.4270981  63.2214081  45.9363721
  91.2111917  64.7858696  47.1823833  90.8063226  65.5306659  47.8675537
  91.8114599  64.0675346  47.7407492  92.0829826  65.4749649  46.1416676
  92.3970105  64.7292770  45.4113002  91.4838581  66.2386809  45.6457979
  93.2835809  66.1063361  46.7529091  93.8391023  65.3987628  47.2120775
  93.8337879  66.5511745  46.0321518  92.9928136  66.7976425  47.4294066
  86.9493613  64.5025938  46.5913737  87.1937879  63.7280689  47.5208191
  85.9528817  65.3834027  46.6407114  85.7542144  65.9814870  45.8514548
  85.1520754  65.5414723  47.8443929  85.7869204  65.8437118  48.6772929
  84.0854587  66.6145508  47.6288812  84.5242217  67.4934578  47.1565374
  83.2904749  66.2210386  46.9954391  83.4331433  67.0872456  48.8910041
  82.3088666  66.4894861  49.4164901  81.9570839  67.1166591  50.5248158
  81.0858187  66.7921601  51.0937589  82.8122473  68.0993940  50.7361182
  82.7925459  68.7478547  51.5102050  83.7449516  68.1041761  49.7280364
  84.5404777  68.8493142  49.7251176  84.5019296  64.2163698  48.2242862
  84.2455823  63.3588646  47.3763600  84.2352075  64.0523419  49.5208027
  84.4287535  64.7867094  50.1866432  83.7070923  62.7896719  50.0194086
  84.3130864  61.9608558  49.6534384  83.7351184  62.7777283  51.5474393
  83.1215047  63.6116700  51.8882013  83.2844946  61.8395849  51.8713611
  85.1296225  62.9003668  52.1390703  85.8281094  62.3643062  51.4965316
  85.4045637  63.9545458  52.1739410  85.2235014  62.3289630  53.5391569
  84.2623517  61.7564783  54.0550613  86.3847067  62.4836709  54.1638967
  86.5033605  62.1222817  55.0995359  87.1440936  62.9620397  53.7006516
  82.2916285  62.5137004  49.5382434  81.8001190  61.3961356  49.7272844
  81.6240528  63.4968345  48.9339629  82.0443273  64.4141823  48.8898984
  80.2891219  63.3220158  48.3804406  79.8782890  62.3616385  48.6918740
  79.3654257  64.4343204  48.8808451  79.8302588  65.4034140  48.6994976
  78.4067067  64.3894135  48.3641814  79.0639678  64.3702366  50.3544453
  79.1763772  63.1845082  51.0603726  79.4923170  62.2809545  50.5389586
  78.8935993  63.1389643  52.4081899  78.9880520  62.1996484  52.9530431
  78.4921852  64.2784832  53.0661977  78.2683082  64.2421592  54.1323400
  78.3735719  65.4617555  52.3796734  78.0559116  66.3654779  52.8997483
  78.6565799  65.5059129  51.0320118  78.5606646  66.4440783  50.4854354
  80.3016058  63.3028127  46.8555444  79.2502025  63.4646620  46.2287774
  81.4710655  63.1110605  46.2454967  82.3090089  62.9052688  46.7704727
  81.5791904  63.2520134  44.7980979  80.9120834  64.0546925  44.4838152
  83.0109636  63.6292688  44.4169235  83.6897492  62.8309862  44.7170818
  83.0744522  63.7730942  43.3383208  83.2908851  64.5530615  44.9232338
  81.1670678  61.9889744  44.0562162  80.6054355  62.0797083  42.9586892
  81.4284284  60.8140187  44.6251307  81.7645243  60.7512107  45.5754959
  81.3492544  59.5880125  43.8365818  82.0317484  59.6434899  42.9885114
  81.7407147  58.3829940  44.7032467  81.7885527  57.4952032  44.0726610
  82.7163251  58.5592480  45.1562576  80.8046809  58.0643474  45.8175735
  80.9259886  58.4499303  47.1193539  81.7938496  59.0582383  47.3740665
  79.8753453  57.9617646  47.8568666  79.7317650  58.1085578  48.8457730
  79.0517134  57.2441916  47.0319439  77.8708076  56.5664129  47.3139199
  77.4966594  56.5748786  48.3376582  77.2498183  55.9274272  46.2792975
  76.3220023  55.3854996  46.4625238  77.7768533  55.9509082  44.9841080
  77.2725740  55.4363541  44.1661618  78.9482818  56.6242015  44.7018840
  79.3161371  56.6140494  43.6758819  79.6065066  57.2869371  45.7388428
  79.9947846  59.3704800  43.1692054  79.9823005  58.9541790  41.9981607
  78.8491136  59.6155060  43.8139085  78.6076398  60.3404653  45.0712571
  78.6366524  61.4151545  44.8915301  79.3686321  60.0746410  45.8049649
  77.2521084  59.8620928  45.4604016  76.7698530  60.5915516  46.1111078
  77.3269139  58.9064807  45.9793534  76.5195052  59.7123992  44.1764006
  76.0737225  60.6642388  43.8876480  75.7415827  58.9514258  44.2384951
  77.5779591  59.2967898  43.1434586  77.5641181  58.2220692  42.9621236
  77.3853444  60.0332150  41.8303559  76.7385793  59.4999492  40.9211125
  77.9272371  61.2411029  41.7032848  78.4659369  61.6211120  42.4684612
  77.7314898  62.0665931  40.5200228  76.8178280  61.7699652  40.0049177
  77.6106730  63.5390319  40.9216510  78.5618458  63.9069113  41.3064034
  77.3163506  64.1312362  40.0551821  76.5860875  63.7996186  41.9882667
  76.8783281  63.5701626  43.3210155  77.8643703  63.1933709  43.5927667
  75.9384942  63.8127423  44.3011274  76.1805355  63.6234473  45.3469209
  74.6957739  64.2935470  43.9588235  73.9528452  64.4885849  44.7322038
  74.3915094  64.5281256  42.6380824  73.4067011  64.9067317  42.3643849
  75.3338883  64.2839076  41.6588861  75.0941728  64.4729769  40.6125166
  78.8487171  61.9142053  39.4965175  78.8841701  62.6717078  38.5220546
  79.7594432  60.9626667  39.6889600  79.6750821  60.3344409  40.4752900
  80.9264598  60.8366295  38.8264909  81.2424722  61.8208601  38.4807662
  82.0828917  60.1941189  39.5965886  81.6631590  59.3812816  40.1892262
  82.7738906  59.7860309  38.8589676  82.8266207  61.1550026  40.5099443
  83.2132330  61.9820615  39.9144568  82.1258380  61.5384020  41.2515713
  83.9835817  60.4964005  41.2323053  84.0575257  59.2716282  41.3200054
  84.8979095  61.3075998  41.7487521  85.6907755  60.9215403  42.2411168
  84.7967777  62.3073704  41.6471029  80.6542194  60.0380249  37.5569344
  81.6044494  59.7322288  36.8268977  79.4040107  59.6942873  37.2684075
  78.6498082  59.9557214  37.8872210  79.0860611  58.9025561  36.0890587
  79.7340024  59.2030152  35.2656538  79.2906441  57.4004864  36.3528343
  79.2384573  56.9010574  35.3853910  80.2928865  57.2871286  36.7660657
  78.2750586  56.7740610  37.3036078  77.2754858  57.1055664  37.0224332
  78.3376316  55.6899379  37.2094593  78.5198602  57.1485530  38.7479373
  79.4557007  57.8834387  39.0603978  77.6738682  56.6497051  39.6401359
  77.7907947  56.8676957  40.6193752  76.9168731  56.0542937  39.3359237
  77.6460815  59.1850007  35.6911481  76.8584698  59.6726873  36.5097576
  77.2700567  58.8893234  34.4489761  78.1020442  58.3921839  33.3393865
  78.2454534  57.3165138  33.4416998  79.0712779  58.8906007  33.3556884
  77.2954871  58.7521788  32.1309928  77.5096360  58.0549568  31.3209800
  77.5386974  59.7654711  31.8113230  75.8733379  58.6589631  32.5676901
  75.5666585  57.6148497  32.5054488  75.1824839  59.2749593  31.9920436
  75.8830754  59.1127896  34.0319417  75.6515299  60.1720484  34.1435471
  74.9187779  58.2928791  34.8729378  75.2480732  57.2074626  35.3553387
  73.7138784  58.8258771  35.0485832  73.4964678  59.7303033  34.6550795
  72.6963753  58.1585042  35.8495113  73.1151538  57.7382212  36.7638887
  71.5582325  59.1226997  36.2277626  71.0906658  59.4944038  35.3159969
  70.5163304  58.4098782  37.0774463  70.9830835  58.0382708  37.9896692
  69.7188985  59.1066345  37.3357745  70.0996389  57.5734098  36.5163844
  72.1139157  60.3284992  36.9541852  72.8213819  60.8483400  36.3081517
  71.2987268  61.0029267  37.2163191  72.6224291  60.0039135  37.8620173
  72.1681516  56.9707819  35.0572618  71.3242956  57.1283515  34.1692004
  72.6582343  55.7744113  35.3736578  73.3836125  55.7033618  36.0728558
  72.2213020  54.5510619  34.7007632  72.0944355  54.7421114  33.6351628
  73.2525789  53.4446703  34.8773604  74.2380116  53.8689073  34.6848911
  73.2004852  53.1023961  35.9109149  73.0164831  52.2738926  33.9455935
  72.0170382  52.3013677  33.1949965  73.8298862  51.3281893  33.9613919
  70.8662675  54.1545348  35.2721001  70.7639052  53.3414863  36.1911844
  69.8081016  54.7388897  34.7058252  69.9137073  55.3425140  33.9029650
  68.4748430  54.5690388  35.2727205  68.4798524  54.9370679  36.2986974
  67.4590403  55.3782186  34.4689058  67.4359506  55.0152762  33.4413652
  66.4707225  55.2675231  34.9150835  67.7444766  56.4301586  34.4757994
  68.0692222  53.1032419  35.3164016  67.4604331  52.6494990  36.2918006
  68.3927463  52.3452633  34.2666451  68.8701686  52.7347268  33.4663417
  67.9897268  50.9408616  34.2174507  66.9098197  50.8192635  34.3017933
  68.4555555  50.2981587  32.8986628  69.5211458  50.4877364  32.7695240
  68.2063933  48.7964975  32.9183560  67.1408855  48.6061222  33.0470076
  68.5420492  48.3596132  31.9778413  68.7575880  48.3470171  33.7443423
  67.7500861  50.9447305  31.7167068  67.9807570  52.0097913  31.6935003
  68.0898959  50.4796583  30.7913221  66.6732461  50.8088273  31.8169400
  68.5360217  50.1923470  35.4268319  67.7959221  49.4962717  36.1337787
  69.8366275  50.3263723  35.6871466  70.4555481  50.8226045  35.0620143
  70.4101095  49.6908223  36.8668989  70.1102703  48.6436199  36.9064325
  71.9348997  49.7603642  36.8189860  72.2034491  50.7821097  36.5506268
  72.3000186  49.5408615  37.8222840  72.5632187  48.7966356  35.8305892
  72.1579710  47.8011243  36.0117867  72.3027992  49.1162381  34.8215609
  74.0753867  48.7617634  35.9760603  74.4629898  49.7657099  35.8029871
  74.3182814  48.4491501  36.9916264  74.7055440  47.7989078  34.9863002
  74.2942180  46.8061735  35.1690294  74.4386746  48.1226716  33.9802898
  76.1881243  47.7529824  35.1156036  76.4356218  47.4525829  36.0475934
  76.5648949  47.1025287  34.4410268  76.5695010  48.6726841  34.9458989
  69.8868050  50.3310055  38.1454480  69.6372604  49.6358556  39.1374314
  69.7099706  51.6507280  38.1433984  69.8921025  52.1827620  37.3044305
  69.3137880  52.3712121  39.3455095  69.7782146  51.9210929  40.2228919
  69.7644798  53.8312481  39.2481495  69.2561001  54.2080234  38.3606307
  69.4080099  54.3694664  40.1264150  71.2737937  54.0411923  39.0991095
  71.6533394  53.3482801  38.3481643  71.5793833  55.4661693  38.6728693
  71.2005213  56.1596871  39.4235992  72.6573882  55.5928529  38.5730828
  71.0999178  55.6703394  37.7155147  71.9914559  53.7036707  40.3949483
  71.8041865  52.6615474  40.6538086  73.0628805  53.8592564  40.2686798
  71.6229218  54.3477075  41.1933831  67.8153054  52.3174548  39.6106544
  67.3708545  52.8257194  40.6447682  67.0277924  51.7198555  38.7154200
  67.4250886  51.3932374  37.8461814  65.5843119  51.5880692  38.9108638
  65.1273705  51.1758054  38.0112292  65.2815654  50.6536651  40.0857215
  65.8228389  49.7193610  39.9367316  65.6198084  51.1258082  41.0080949
  63.8054337  50.3423954  40.2146100  63.0798664  50.2979609  39.2217053
  63.3508078  50.1272577  41.4428771  62.3737868  49.9153779  41.5865319
  63.9839668  50.1764139  42.2282395  64.9352647  52.9587916  39.1167567
  64.3539891  53.2538654  40.1628561  65.0441928  53.7986687  38.0865368
  65.5593563  53.4994561  37.2709525  64.4901516  55.1525871  38.0987559
  63.9710213  55.3284091  39.0409287  65.5996548  56.1920574  37.9514160
  66.0083404  56.0044595  36.9584999  65.1604756  57.1892403  37.9805343
  66.7194823  56.0978700  38.9895951  67.0619920  55.0645901  39.0454579
  67.8833189  56.9968556  38.6091501  67.5416636  58.0304310  38.5535390
  68.6679860  56.9140715  39.3611774  68.2766252  56.6920646  37.6393496
  66.1994574  56.4468315  40.3735962  65.4048162  55.7535142  40.6491972
  67.0118074  56.3735914  41.0966623  65.8080831  57.4641356  40.3694051
  63.4774713  55.2648036  36.9664683  63.8276519  55.6635238  35.8447782
  62.2053213  54.9247512  37.2118730  61.5785191  54.6287760  38.5141648
  61.8442889  55.4077930  39.2287271  61.9369929  53.6656333  38.8774163
  60.1102241  54.6115230  38.1993475  59.6871938  55.5991587  38.3829782
  59.6107661  53.8792286  38.8336881  60.0026830  54.2328971  36.7658094
  59.0964201  54.6515235  36.3281584  60.0117759  53.1530463  36.6176904
  61.2375278  54.8616026  36.1084864  61.6605582  54.2160510  35.3388067
  60.9137175  56.2202139  35.5077025  61.0003659  56.4043214  34.2900480
  60.5418992  57.1793971  36.3527266  60.5355118  56.9935751  37.3454646
  60.0868768  58.4835927  35.8915253  59.6192715  58.3918437  34.9112056
  59.0577019  59.0548457  36.8736460  59.5395649  59.1543128  37.8462783
  58.7627294  60.0400448  36.5124341  57.8293831  58.1771731  37.0062084
  57.6958866  57.2158205  36.2207512  56.9981406  58.4480225  37.8977836
  61.2200812  59.4821713  35.7110776  60.9629761  60.6225858  35.3098974
  62.4635146  59.0893791  35.9948128  62.6624200  58.1475243  36.3005017
  63.5638749  60.0434360  35.9352165  63.3508794  60.8993394  36.5756550
  64.8547480  59.3841606  36.4151995  64.7018044  59.0718919  37.4482512
  65.0191468  58.5057069  35.7911866  66.0600865  60.2893384  36.3367516
  66.2249225  61.3351860  37.2310546  65.4674006  61.4962608  37.9980715
  67.3257247  62.1664152  37.1623398  67.4406992  62.9890686  37.8681187
  68.2823009  61.9514761  36.1916981  69.3852351  62.7722893  36.1169866
  69.3873398  63.4596741  36.7871339  68.1414805  60.9165527  35.2949635
  68.8965851  60.7450766  34.5278171  67.0355537  60.0932726  35.3713951
  66.9178766  59.2716602  34.6648506  63.7375046  60.6047294  34.5314062
  63.9383947  61.8121978  34.3586952  63.6607922  59.7486677  33.5143818
  63.4462031  58.7758543  33.6807695  63.9555433  60.1672904  32.1509780
  64.7820661  60.8778917  32.1487521  64.3506570  58.9551531  31.3051941
  63.8181379  58.0883354  31.6965376  64.0272049  59.1483160  30.2823711
  65.8361715  58.6819505  31.3200314  66.7410517  59.6375582  30.8760679
  66.3583002  60.5913748  30.5129773  68.0973816  59.3995821  30.8881777
  68.7955069  60.1597015  30.5375477  68.5698597  58.1905228  31.3487579
  69.9245650  57.9486384  31.3605750  70.4403314  58.6868993  31.0280762
  67.6950086  57.2250498  31.7953533  68.0699682  56.2688984  32.1604289
  66.3372751  57.4731365  31.7790238  65.6400272  56.7126559  32.1306126
  62.8011552  60.9083863  31.4915229  62.9639078  61.3931902  30.3666195
  61.6504383  61.0102116  32.1528723  61.4990133  60.4613405  32.9870847
  60.5709205  61.8667649  31.6851933  60.6911487  62.0660321  30.6203285
  59.2148242  61.1855199  31.9062324  59.1957932  60.8406686  32.9400673
  58.4481990  61.9471325  31.7636426  58.9437581  60.0142580  30.9768805
  59.0401114  60.3571242  29.9467060  59.6826935  59.2368658  31.1711429
  57.5484383  59.4523882  31.1950775  57.4932096  59.0504942  32.2067741
  56.8293461  60.2644449  31.0875143  57.2252089  58.3548256  30.1963757
  57.3393462  58.7617612  29.1916485  57.9352825  57.5405651  30.3408556
  55.8398768  57.8406237  30.3683448  55.1817311  58.5948899  30.2340818
  55.6633919  57.1147845  29.6885576  55.7340304  57.4631152  31.2991417
  60.5566581  63.2231120  32.3725449  60.0040578  64.1770586  31.8136489
  61.1473627  63.3279761  33.5633948  61.6149864  62.5315453  33.9722047
  61.0756327  64.5598877  34.3385604  60.1831896  65.1274378  34.0748725
  61.0519748  64.2373482  35.8422407  61.8440905  63.5217760  36.0627169
  61.2657555  65.4988090  36.6640913  60.4737107  66.2147271  36.4444852
  61.2456552  65.2496181  37.7250346  62.2313540  65.9375742  36.4126874
  59.7173042  63.5881156  36.2139024  58.9692057  64.3806237  36.2334046
  59.4739749  62.8788823  35.4227776  59.7280106  62.8714777  37.5481908
  59.9708261  63.5802132  38.3399197  58.7453275  62.4392764  37.7369631
  60.4755973  62.0784728  37.5292932  62.2232773  65.5106586  34.0193290
  62.0800128  66.7264487  34.2109083  63.3535536  64.9974385  33.5393315
  63.4221675  63.9937166  33.4502591  64.5139528  65.8044395  33.1796954
  64.3098894  66.8647177  33.3289184  65.7632708  65.4047585  33.9840993
  65.9274101  64.3326018  33.8762168  66.9865283  66.1593784  33.4761526
  66.8233120  67.2316648  33.5841483  67.8618185  65.8654561  34.0554431
  67.1503667  65.9213612  32.4251512  65.5454620  65.6561663  35.4784077
  64.7111772  65.0272146  35.7890352  66.4522920  65.3352164  35.9909990
  65.2486086  67.1013808  35.8335502  64.3415917  67.4229223  35.3216603
  65.1080035  67.1898319  36.9108180  66.0827061  67.7309247  35.5236218
  64.7600984  65.6425427  31.6892338  64.7839156  64.5180535  31.1772010
  64.9397266  66.7663379  30.9956057  64.8541515  67.6597365  31.4588716
  65.2061873  66.7537281  29.5650667  64.8745604  65.8107046  29.1305215
  64.4493331  67.9008180  28.8830569  63.4129400  67.8381986  29.2148212
  64.8902293  68.8301229  29.2437547  64.4971931  67.8738228  27.3649292
  65.5085636  68.1192381  27.0408895  64.2399149  66.8712998  27.0230847
  63.5187844  68.8768911  26.7745950  62.5152460  68.6146952  27.1096517
  63.7780442  69.8681370  27.1465029  63.5607973  68.8792011  25.2563488
  64.5645244  69.1656173  24.9423454  63.3455107  67.8695203  24.9066410
  62.5704903  69.8266004  24.6759337  62.7700642  70.7623167  24.9995150
  62.6291043  69.7992368  23.6680073  61.6403100  69.5611250  24.9664269
  66.6864059  66.8598549  29.2281454  67.0655678  66.5647171  28.0884507
  67.5260343  67.2689303  30.1785407  67.1511152  67.4956167  31.0885673
  68.9596590  67.4562272  29.9525447  69.2656797  66.9485842  29.0378048
  69.3105279  68.9400205  29.8289551  70.3900411  69.0566425  29.9246154
  68.8591975  69.4879673  28.4849327  67.7796505  69.3721084  28.3887314
  69.1181581  70.5445937  28.4172645  69.3556669  68.9406970  27.6836126
  68.6748799  69.6741307  30.8834023  68.8963638  70.6048469  30.8039500
  69.7381394  66.8128301  31.0934116  70.1589504  67.4949758  32.0375913
  69.9436755  65.4970888  31.0435540  69.3498030  64.5232152  30.1141586
  69.9019030  64.5296838  29.1743480  68.3086716  64.7847741  29.9251316
  69.4875890  63.2319794  30.8512822  69.5660057  62.4097147  30.1400644
  68.6169066  63.0784643  31.4888138  70.7336552  63.3664638  31.6713925
  71.5852126  63.0927060  31.0484915  70.7369244  62.7601700  32.5772053
  70.8120026  64.8534824  32.0369641  70.4112471  65.0533805  33.0307116
  72.2371587  65.3816370  31.9496377  72.7471680  65.6704437  30.8652405
  72.8837601  65.4980749  33.1095751  72.4202766  65.2412465  33.9694131
  74.2359570  66.0319265  33.1871895  74.7787630  65.7784609  32.2765765
  74.2226507  67.5593142  33.3413281  73.6139208  67.9526556  32.5271846
  73.7383646  67.7754789  34.2936094  75.5970474  68.2159061  33.3103608
  75.4463657  69.2937521  33.2499959  76.1003626  67.9717573  34.2458646
  76.6251209  67.6823252  31.9268967  75.6736868  68.2984503  30.5419472
  75.5762549  69.3812476  30.6204085  76.1813161  68.0463628  29.6108913
  74.6831913  67.8435243  30.5498383  74.9617898  65.3847723  34.3595543
  74.3336010  64.9304771  35.3201769  76.2910725  65.3459398  34.2712836
  76.7601589  65.7166717  33.4572719  77.1017997  64.7400649  35.3197534
  76.6596967  64.9652801  36.2902802  77.1863346  63.2204582  35.1617496
  77.5522360  62.7951954  36.0962906  76.1787715  62.8535271  34.9661015
  78.1016343  62.8094568  34.0282160  77.6396865  62.7813188  32.8679399
  79.2874780  62.5249840  34.2956012  78.4998800  65.3375963  35.2865636
  78.9458647  65.8719714  34.2679769  79.1881540  65.2337439  36.4268902
  78.7791709  64.7973000  37.2407384  80.5266395  65.8031786  36.5462160
  80.4939482  66.8750741  36.3510991  81.0697232  65.5800660  37.9564663
  81.2067682  64.5059705  38.0815135  82.0378385  66.0780293  38.0101829
  80.1693516  66.1060108  39.0575780  79.7037543  67.0256043  38.7030815
  79.3985115  65.3595765  39.2492636  81.0587466  66.4439881  40.5855679
  81.8565638  64.8680771  40.8691840  82.5091742  64.6340508  40.0280953
  82.4474346  64.9187576  41.7837352  81.0998705  64.0898747  40.9687710
  81.4784940  65.2127823  35.5143250  82.3277215  65.9248675  34.9684520
  81.3757094  63.9087184  35.2535170  80.6950349  63.3221311  35.7147077
  82.2643382  63.2974685  34.2770574  83.2928889  63.4355629  34.6103933
  82.0401755  62.2321028  34.2237075  82.1075060  63.9039969  32.8974683
  83.0917459  64.1138963  32.1819425  80.8668087  64.2045679  32.5077437
  80.0625870  63.9299305  33.0535468  80.6413817  64.8958190  31.2454313
  81.0598537  64.3250367  30.4164633  79.1411677  65.0778567  31.0056765
  78.7038149  65.5735335  31.8723525  78.8915165  65.9166148  29.7633609
  79.3282097  65.4213144  28.8961376  77.8182920  66.0329470  29.6125124
  79.3487221  66.8980746  29.8890599  78.5205979  63.7971072  30.8442860
  77.5796737  63.9141068  30.6940428  81.3503709  66.2412133  31.2417610
  81.9603560  66.6315123  30.2390777  81.2759387  66.9645060  32.3594517
  80.7172576  66.6513790  33.1404295  81.9312436  68.2631128  32.4551490
  81.7015022  68.9327088  31.6263190  81.5618488  68.9459084  33.7829422
  81.6538736  68.2237490  34.5941866  82.4868343  70.1173127  34.0427184
  82.3950182  70.8401674  33.2320695  82.2158059  70.5928721  34.9853146
  83.5161205  69.7628835  34.0979355  80.0803840  69.3356594  33.7917284
  79.9804497  70.2431738  33.1963030  79.5293009  68.5256824  33.3138747
  79.5215167  69.5771953  35.1755846  80.0718336  70.3874075  35.6539226
  78.4685350  69.8486476  35.1004681  79.6206871  68.6699161  35.7714952
  83.4393416  68.1187121  32.3056541  84.0849236  68.9056556  31.6035418
  84.0303035  67.1298155  32.9782510  83.5176469  66.5166315  33.5957363
  85.4734293  66.9525523  32.8697399  85.9733321  67.8883848  33.1195676
  85.9705566  65.8652490  33.8193118  85.4977788  66.0162212  34.7897694
  85.6721788  64.8971276  33.4170535  87.4851528  65.9025876  33.9812966
  87.8979643  66.4015642  33.1045356  87.7067705  66.4910784  34.8716147
  88.1061402  64.5260494  34.1182169  87.8394992  63.9512283  33.2313221
  89.1881606  64.6517481  34.1573447  87.6390414  63.7898829  35.3553978
  87.9031604  64.3662304  36.2420574  86.5573480  63.6618530  35.3148151
  88.2943883  62.4547417  35.4184553  89.2966997  62.5731655  35.4565011
  87.9816409  61.9648923  36.2444920  88.0494334  61.9203652  34.5971527
  85.8683103  66.6119596  31.4433838  86.8620375  67.1325115  30.9242097
  85.1073348  65.7310003  30.7919606  84.3381868  65.2555564  31.2419203
  85.4177924  65.3884799  29.4089748  86.4424306  65.0241297  29.3350501
  84.4732217  64.2924230  28.9179753  84.5776837  63.4492900  29.6008470
  83.4600459  64.6890098  28.9835018  84.7447381  63.8286126  27.4950229
  83.9380519  63.1616961  27.1907523  84.7572450  64.7032035  26.8446103
  86.0727392  63.0986470  27.3870956  86.8718613  63.7869484  27.6623121
  86.0646281  62.2567188  28.0793315  86.3064140  62.5910298  25.9767518
  86.2054363  63.4322089  25.2909517  87.3210608  62.1967945  25.9204515
  85.3385223  61.5248014  25.5995785  84.3982898  61.8900287  25.6512665
  85.5283837  61.2159144  24.6569007  85.4322234  60.7450754  26.2346741
  85.3284447  66.6164964  28.5125589  86.2079331  66.8454959  27.6724164
  84.2769706  67.4210059  28.6765395  83.5500924  67.2058404  29.3439608
  84.1237682  68.6099027  27.8472148  84.1495360  68.3354322  26.7926528
  82.7842208  69.2862886  28.1436570  82.6771331  69.3288986  29.2275462
  82.8387729  70.2990552  27.7443728  81.5843931  68.5690572  27.5437490
  81.6856342  68.5739960  26.4584718  81.5813729  67.5400263  27.9031769
  80.2815959  69.2446895  27.9332764  80.1205691  69.1147656  29.0034582
  80.3505582  70.3078955  27.7031970  79.1418452  68.6853361  27.2184106
  79.3153496  67.8784461  26.6362386  77.9085194  69.1650532  27.2827227
  77.6136415  70.2199431  28.0250510  78.3392752  70.6768431  28.5587158
  76.6642854  70.5633819  28.0545890  76.9442636  68.5705287  26.5861199
  77.1598490  67.7637623  26.0180082  76.0007740  68.9284961  26.6283727
  85.2720783  69.5848360  28.0695707  85.8193838  70.1436334  27.1122917
  85.6512381  69.7993473  29.3292709  85.1607848  69.3724962  30.1021571
  86.7541861  70.7059182  29.6263922  86.5687491  71.6819748  29.1780331
  86.8883600  70.8806193  31.1376178  86.9394766  69.8594258  31.5153083
  87.8265679  71.3933111  31.3497804  85.7380622  71.6197081  31.8218369
  84.7922032  71.2555590  31.4207796  85.7765242  71.3822730  33.3236825
  86.7219623  71.7466117  33.7255567  84.9517192  71.9145738  33.7974476
  85.6834945  70.3152347  33.5258584  85.7836567  73.1066286  31.5094016
  85.7025605  73.2548123  30.4325709  84.9547291  73.6088158  32.0081886
  86.7264215  73.5240003  31.8630882  88.0594241  70.1942061  29.0297194
  88.8330691  70.9635187  28.4501225  88.3169617  68.8901185  29.1608756
  87.6453853  68.2731053  29.5949022  89.5977650  68.3330292  28.7420590
  90.4169719  68.9305648  29.1419972  89.7340457  66.9037650  29.2669824
  89.5444357  66.9373169  30.3398391  88.9610705  66.3089459  28.7803618
  91.0915428  66.2740594  29.0129048  91.1072392  65.9053297  27.9872866
  91.8464576  67.0514662  29.1305549  91.3896427  65.1329929  29.9640860
  90.4496861  64.6548298  30.6335295  92.5620260  64.7102423  30.0411345
  89.7622618  68.3620521  27.2293005  90.8834654  68.5169752  26.7336713
  88.6679998  68.2138861  26.4804243  87.7884102  68.0117836  26.9338293
  88.7001620  68.2596933  25.0237002  89.7328612  68.2789164  24.6754732
  88.0104414  67.0260202  24.4397804  87.0312405  66.9117537  24.9047620
  87.8874648  67.1761398  23.3671943  88.8047703  65.7528696  24.6631974
  88.2732438  64.7556622  25.1482396  90.0825981  65.7779070  24.3014472
  90.6564551  64.9565563  24.4286123  90.4744971  66.6181806  23.9008772
  88.0647475  69.5322232  24.4764872  87.6025156  69.5489252  23.3306091
  88.0289175  70.5967744  25.2816312  88.2202580  70.4590812  26.2637354
  87.6411162  71.9349327  24.8308634  87.4070136  72.5556048  25.6957688
  88.7701401  72.6019110  24.0414225  88.4275627  73.5766177  23.6940226
  89.6232000  72.7332633  24.7071065  89.2130794  71.7876748  22.8408479
  90.2657825  71.1506516  22.8628157  88.4055784  71.7996950  21.7846209
  88.6524684  71.2744282  20.9580376  87.5489961  72.3340366  21.8137169
  86.3553487  71.9004548  24.0095326  86.2295092  72.5681262  22.9808380
  85.3835453  71.1119171  24.4731913  85.5303678  70.5044301  25.2666030
  84.0916186  71.0668007  23.7973867  84.2377352  70.8852457  22.7325924
  83.2276802  69.9435330  24.3703614  83.8404903  69.0424783  24.3961194
  82.9580366  70.2281158  25.3874185  81.9700361  69.6753805  23.5715301
  82.0135242  68.9356210  22.3978991  82.9729996  68.5466641  22.0569900
  80.8676218  68.6890388  21.6645317  80.9168135  68.1081080  20.7435532
  79.6588199  69.1845458  22.1028522  78.5163193  68.9406813  21.3758126
  78.6781885  68.4185214  20.5866694  79.5868245  69.9196605  23.2644098
  78.6306316  70.3103495  23.6124869  80.7390225  70.1615359  23.9915151
  80.6905049  70.7431240  24.9121135  83.3662798  72.3993729  23.9111810
  82.6147587  72.7772722  23.0055949  83.5821059  73.1188726  25.0092562
  84.2274491  72.7893786  25.7128649  82.9062567  74.3826685  25.2337600
  81.8301589  74.2604246  25.1105975  83.1826847  74.8708664  26.6549216
  84.2658686  74.9265878  26.7631206  82.7580334  75.8714802  26.7358118
  82.6127250  73.9928140  27.7439505  81.2567628  73.9731791  28.0060021
  80.6000077  74.6020597  27.4049352  80.7292855  73.1805553  29.0031060
  79.6569496  73.1812011  29.1985470  81.5647768  72.3843853  29.7525649
  81.0388581  71.5890756  30.7427149  80.0854650  71.6692938  30.8214945
  82.9228572  72.3839624  29.5142662  83.5880097  71.7585915  30.1097357
  83.4392234  73.1835981  28.5125388  84.5111970  73.1858945  28.3151371
  83.3963171  75.4391124  24.2458723  84.4283720  75.2901674  23.5843225
  82.6271614  76.5248884  24.1469185  81.6817481  76.4820355  24.4997028
  83.0715885  77.7580477  23.5092283  84.0760422  77.6241785  23.1076676
  82.1309920  78.1391725  22.3595539  82.2128573  77.4164706  21.5477046
  81.1002718  78.1731557  22.7124860  82.4263986  79.4853842  21.7671742
  81.7148575  80.6357068  21.9522966  80.8386794  80.5727512  22.5976246
  82.2890873  81.6675131  21.2499128  81.9513361  82.6189604  21.2221329
  83.3951743  81.1958698  20.5915442  84.2954512  81.8582894  19.7592079
  84.1429407  82.9203354  19.5671206  85.3223821  81.1257270  19.2319061
  86.0468983  81.6109057  18.5778588  85.4677109  79.7606467  19.5123206
  86.2893063  79.1859792  19.0847253  84.5742099  79.1009227  20.3393824
  84.7311627  78.0387843  20.5273415  83.5129557  79.8244291  20.8945572
  83.1625850  78.9254801  24.4779281  83.9606857  79.8383571  24.2543216
  82.3662477  78.9083302  25.5468054  81.7042901  78.1510356  25.6385460
  82.3794146  79.9399668  26.5707871  83.2664668  80.5609929  26.4460302
  81.1387951  80.8344898  26.4801512  81.0710552  81.2404887  25.4708566
  80.2559410  80.2299703  26.6880567  81.1794110  81.9849981  27.4625024
  81.0184004  81.7928599  28.6671665  81.3970682  83.1911333  26.9513789
  81.4342142  83.9954511  27.5611271  81.5244687  83.2986332  25.9552295
  82.4435088  79.2847743  27.9430653  81.9399690  78.1757713  28.1426404
  83.0726830  79.9824024  28.8905783  83.4718054  80.8901546  28.6987797
  83.2557488  79.4136688  30.2211842  83.7326796  78.4386135  30.1216685
  84.1630917  80.3184251  31.0544075  83.6947685  81.2958143  31.1705268
  84.3193387  79.8720022  32.0364430  85.1231570  80.4336020  30.5513088
  81.9236363  79.1992666  30.9290719  81.7343979  78.1881698  31.6129681
  80.9881559  80.1390719  30.7778914  81.1553634  80.9687934  30.2267987
  79.7062069  80.0095481  31.4610753  79.8662222  79.9051876  32.5342030
  78.8469770  81.2490417  31.2136777  79.5144373  82.1105110  31.1920744
  78.3756713  81.1306766  30.2379930  77.7757157  81.4647543  32.2707701
  76.9537410  80.7748757  32.0796526  78.2056985  81.2543937  33.2500378
  77.2303602  82.8783493  32.2749726  77.0992314  83.5090212  31.2264522
  76.9085550  83.3842246  33.4597328  76.5402059  84.3226266  33.5215554
  77.0336047  82.8282842  34.2936358  78.9414501  78.7690280  31.0297946
  78.0318256  78.3356974  31.7453795  79.2879079  78.1869710  29.8815666
  79.9683538  78.6090922  29.2660128  78.6235861  76.9638012  29.4435186
  77.5437762  77.1113721  29.4252764  79.0891281  76.5902971  28.0370840
  78.9049108  77.4545041  27.3988760  80.1614570  76.4032832  28.0939738
  78.3921457  75.3704587  27.4522328  78.6111353  74.5178346  28.0950208
  77.3190479  75.5616259  27.4561587  78.8460581  75.0661559  26.0370271
  79.7319595  75.7863224  25.5281774  78.3180237  74.1088189  25.4336653
  78.8677630  75.8337494  30.4376065  78.0014571  74.9758050  30.6411019
  80.0555895  75.7999851  31.0464860  80.7830651  76.4529696  30.7925375
  80.3513962  74.7956978  32.0631055  79.9364615  73.8309549  31.7712160
  81.8633538  74.6499853  32.2172591  82.3251182  74.3776099  31.2682151
  82.3064716  75.5759353  32.5838151  82.3370594  73.3781963  33.3823942
  83.6492866  73.5473365  33.2469334  79.7322595  75.1459693  33.4125938
  79.3476076  74.2475729  34.1751107  79.5794514  76.4400183  33.6986425
  79.9596250  77.1569418  33.0973206  78.9257029  76.8506343  34.9366786
  79.3168642  76.2932951  35.7878337  79.1303267  78.3577866  35.1729331
  78.7149519  78.9096569  34.3297229  78.4346980  78.7924402  36.4557156
  78.8498905  78.2412971  37.2994911  78.5884764  79.8605879  36.6090562
  77.3670361  78.5870345  36.3782185  80.6251866  78.6872891  35.2364863
  81.0074022  78.2781145  36.1716805  81.1038689  78.1827247  34.3972143
  80.9276743  80.1669630  35.1733888  80.4496744  80.6721686  36.0126643
  82.0056391  80.3204427  35.2237390  80.5461388  80.5767794  34.2381985
  77.4512160  76.4806539  34.8871425  76.8890077  75.9685117  35.8644767
  76.7979951  76.7440988  33.7547233  77.2212515  77.2652226  33.0001484
  75.4091171  76.3320043  33.6146691  74.8252088  76.7128651  34.4525804
  74.8149516  76.8793782  32.3160760  73.7572606  76.6159790  32.3129496
  74.9186657  77.9639109  32.3497241  75.4707946  76.3486093  31.0581922
  76.5274380  76.6154113  31.0787401  75.3708212  75.2632777  31.0454414
  74.8537750  76.9076800  29.7883545  74.1450980  77.9135403  29.8195306
  75.1217881  76.2546491  28.6634747  74.7373790  76.5825487  27.7889389
  75.7087980  75.4331048  28.6876789  75.2919157  74.8165581  33.6633683
  74.2664840  74.2930680  34.1004985  76.3318847  74.0945796  33.2367144
  77.1318358  74.5239302  32.7941810  76.3011766  72.6374265  33.3491538
  75.3761071  72.2494717  32.9227308  77.4805453  72.0291108  32.5920358
  78.3817271  72.5684454  32.8837357  77.5684565  70.9855317  32.8942185
  77.3103022  72.1066128  31.0873376  76.1748694  72.3504784  30.6279217
  78.3121506  71.9254900  30.3637140  76.3182259  72.1976641  34.8084411
  75.5514123  71.3108026  35.2045971  77.1781637  72.8090736  35.6297301
  77.8683926  73.4629117  35.2888794  77.1661773  72.4952144  37.0586145
  77.3202721  71.4262362  37.2057187  78.2837154  73.2530078  37.7752621
  78.4059905  74.2391051  37.3271995  78.0461866  73.3622345  38.8334443
  79.6221249  72.5799981  37.7031775  79.9033949  71.4845347  38.5009601
  79.1391783  71.1128726  39.1835582  81.1351491  70.8635165  38.4393903
  81.3437350  70.0004836  39.0716616  82.1014291  71.3359496  37.5773092
  83.0748062  70.8480344  37.5265592  81.8349238  72.4279381  36.7781383
  82.5968158  72.8041851  36.0954531  80.6022683  73.0441852  36.8435059
  80.3906446  73.9078993  36.2131781  75.8138830  72.8381423  37.6795892
  75.2542968  72.0554577  38.4659130  75.2795689  74.0105687  37.3373616
  75.7687927  74.6563022  36.7342135  73.9922615  74.4164941  37.8838580
  74.0229510  74.3895605  38.9730926  73.6631831  75.8415696  37.4395727
  74.5595043  76.4560208  37.5241732  73.3383983  75.8149455  36.3994256
  72.5657318  76.4692013  38.2733095  71.3871581  76.1613539  38.1021637
  72.9506970  77.3526733  39.1880652  72.2609999  77.8026691  39.7728056
  73.9312477  77.5701664  39.2944511  72.8934540  73.4525747  37.4616968
  72.0033010  73.1328065  38.2542648  72.9388549  72.9741955  36.2174496
  73.6246676  73.3130456  35.5579490  71.9664082  71.9896492  35.7588127
  70.9496109  72.3322288  35.9508063  72.1277184  71.7561479  34.2570041
  73.1444900  71.4165730  34.0596094  71.1373769  70.7059344  33.7666560
  70.1203026  71.0450359  33.9633020  71.2685139  70.5543423  32.6952448
  71.3142331  69.7664764  34.2903365  71.9100624  72.9843144  33.5515044
  72.0120875  72.8342322  32.6088133  72.1142491  70.6792057  36.5155313
  71.1177797  70.0107889  36.8138040  73.3523203  70.2786951  36.8090988
  74.1694948  70.7752853  36.4839473  73.5471579  69.0575293  37.5785384
  73.0692033  68.2213174  37.0682362  75.0343992  68.7490993  37.7330540
  75.5194742  68.9732290  36.7830186  75.4303484  69.4069812  38.5066921
  75.3058876  67.3019948  38.1112477  74.7425056  67.0848511  39.0187444
  74.9419421  66.6728145  37.2989806  77.0462828  66.9501194  38.3973826
  77.2621193  67.6403160  40.0371287  76.5940228  67.1357645  40.7351071
  78.2944973  67.5005948  40.3577128  77.0292988  68.7049769  40.0173031
  72.8908716  69.1765089  38.9461923  72.2393362  68.2377383  39.4161342
  73.0536542  70.3271030  39.6011275  73.6798155  71.0486208  39.2733572
  72.3553899  70.5382762  40.8692615  72.5575744  69.7072206  41.5449591
  72.8284929  71.8335685  41.5321109  72.5774606  72.6835009  40.8975268
  72.3519569  71.9539209  42.5050080  74.3147289  71.8970152  41.7694022
  75.0913952  70.7493145  41.7618012  74.6146579  69.7861293  41.5798793
  76.4525508  70.8152005  41.9809002  77.0510002  69.9042572  41.9690091
  77.0554635  72.0333794  42.2148452  78.1299499  72.0884714  42.3896134
  76.2959265  73.1822992  42.2272527  76.7698251  74.1466370  42.4104818
  74.9345307  73.1127121  42.0076600  74.3332561  74.0217806  42.0204369
  70.8412706  70.5692860  40.6666041  70.0799661  70.0133772  41.4714065
  70.3915682  71.2143818  39.5879878  71.0421939  71.5865995  38.9110538
  68.9681338  71.4510800  39.3811440  68.5152852  71.8909605  40.2697004
  68.7689492  72.4088974  38.2061114  69.2434748  71.9849056  37.3211500
  67.2885019  72.6243633  37.9329976  66.8133569  73.0487974  38.8174141
  67.1692998  73.3089897  37.0932496  66.8202398  71.6699547  37.6923001
  69.3869437  73.6674240  38.5009055  69.2605252  74.2668970  37.7618177
  68.2138710  70.1532854  39.1371238  67.0860378  69.9900340  39.6133446
  68.7995312  69.2327924  38.3719666  69.6941290  69.4017288  37.9346398
  68.1237328  67.9671910  38.0995926  67.1370346  68.1545955  37.6760300
  68.9353203  67.1445080  37.1009593  69.9198243  66.9516352  37.5271648
  68.4233452  66.1980131  36.9273826  69.1125301  67.8484747  35.7742820
  68.5207369  68.8993475  35.5327017  69.9304229  67.2703498  34.9019048
  70.0855136  67.6975771  33.9999494  70.3935001  66.4061734  35.1445144
  67.9062716  67.1858688  39.3877347  66.8139783  66.6528356  39.6332340
  68.9381160  67.1127461  40.2298062  69.8426029  67.4885960  39.9833524
  68.7981174  66.4343436  41.5108021  68.4598419  65.4098921  41.3553409
  70.1422698  66.3998548  42.2353868  70.8527277  65.7728017  41.6967282
  70.5498863  67.4057259  42.3362438  70.0491902  65.7282950  43.9060567
  71.3436441  65.8605431  44.1813704  67.7477562  67.1116306  42.3767551
  66.9458756  66.4380065  43.0345789  67.7357727  68.4459376  42.3958118
  68.4439361  68.9909345  41.9250865  66.7179851  69.1527548  43.1683575
  66.7469193  68.8293570  44.2088746  66.9756877  70.6588264  43.1175258
  67.3009858  70.8983763  42.1051542  66.0273021  71.1560504  43.3210771
  68.0138488  71.1330840  44.1045005  67.8609279  70.9036092  45.4656080
  66.9743514  70.3726955  45.8123243  68.8052157  71.3338349  46.3726203
  68.6725129  71.1471818  47.4382903  69.9213117  72.0038815  45.9249461
  70.8652067  72.4355050  46.8257221  70.6446504  72.2165574  47.7340263
  70.0986131  72.2441159  44.5786650  70.9828529  72.7736940  44.2240279
  69.1473257  71.8091420  43.6782451  69.2802231  71.9953113  42.6125156
  65.3136178  68.8316902  42.6674064  64.4083907  68.5455309  43.4604396
  65.1153295  68.8686630  41.3505374  65.8758782  69.0748216  40.7187434
  63.7775839  68.6970114  40.7908469  63.0526380  69.3160876  41.3193328
  63.7714689  69.0632289  39.2962666  64.6504752  68.6288111  38.8201053
  62.5129125  68.5278416  38.6236007  61.6334368  68.9621976  39.0989511
  62.5233941  68.7950183  37.5669043  62.4805739  67.4428847  38.7232095
  63.8659716  70.5779313  39.1203895  62.9034155  70.9977492  39.4125187
  64.6389698  70.9345872  39.8011023  64.1981211  71.0123466  37.7074988
  63.4252737  70.6564281  37.0262289  64.2475711  72.1003343  37.6634903
  65.1608275  70.5932638  37.4148117  63.2759918  67.2776397  41.0172633
  62.1498501  67.0679648  41.4821703  64.0983152  66.2776305  40.6904857
  65.0406490  66.4382298  40.3644271  63.6062367  64.9036829  40.7358272
  62.6763570  64.8259809  40.1724576  64.6274582  63.9494777  40.1248902
  64.8176924  64.2919013  39.1077097  65.5482835  64.0070929  40.7052877
  64.1413824  62.5172405  40.0918462  63.1481318  62.1225513  39.2075890
  62.7240172  62.8613853  38.5276254  62.6961179  60.8198386  39.1794634
  61.9183144  60.5223847  38.4761535  63.2311650  59.8945109  40.0447738
  62.7814762  58.5966344  40.0177460  62.0975862  58.4502272  39.3601298
  64.2138059  60.2608369  40.9361700  64.6381827  59.5279627  41.6223917
  64.6614974  61.5663785  40.9573448  65.4368852  61.8652674  41.6627095
  63.2674777  64.4750879  42.1589374  62.2594449  63.7971012  42.3826735
  64.0917546  64.8572636  43.1300869  64.8779218  65.4518012  42.9097113
  63.9379997  64.3973305  44.5016470  63.2608325  63.5437391  44.5320684
  65.2902172  63.9693377  45.0753061  66.0607981  64.6218849  44.6648352
  65.2667435  64.0733720  46.1600761  65.6377781  62.5370283  44.7344539
  66.4523374  62.2770346  43.8486077  65.0137595  61.5966492  45.4319243
  65.2070803  60.6227906  45.2466511  64.3482623  61.8589501  46.1449549
  63.3069723  65.4771886  45.3722490  63.1123634  66.6222419  44.9585506
  62.9910284  65.0906199  46.6029033  63.2719677  64.1627561  46.8861719
  62.2505148  65.9057131  47.5509411  62.0154681  66.8712200  47.1030029
  60.9381177  65.2149428  47.9436387  61.1969361  64.3467148  48.5496853
  60.3673163  65.9211532  48.5465921  60.1016796  64.7718662  46.7564402
  59.9617610  65.6271370  46.0953536  60.6435904  63.9885276  46.2265200
  58.7481729  64.2435851  47.1926382  58.9049493  63.3951460  47.8587247
  58.2235556  65.0340739  47.7292978  57.9161957  63.8034556  45.9994052
  57.8912019  64.6230715  45.2812787  58.4016691  62.9389713  45.5465457
  56.5257402  63.4434200  46.3893731  56.0755699  64.2444617  46.8086328
  56.0094513  63.1578075  45.5696346  56.5486592  62.6836773  47.0544782
  63.0896665  66.1518254  48.7975674  64.0029183  65.3757239  49.1035768
  62.8043153  67.2161463  49.5455786  61.8052613  68.2679113  49.2908877
  60.8121279  67.8941837  49.5401143  61.8334762  68.5490685  48.2381515
  62.2439281  69.3830974  50.1924627  61.3767485  69.9638205  50.5068815
  62.9416491  70.0311556  49.6620786  62.9043726  68.7267861  51.3478122
  62.1373052  68.4127546  52.0556899  63.6356213  69.3527494  51.8592269
  63.5959599  67.4972077  50.7497947  64.6223773  67.7050898  50.4475520
  63.5806102  66.3216057  51.7153854  62.5654848  65.6460572  51.8878404
  64.7283780  66.0828187  52.3494640  65.5071093  66.7072708  52.1953973
  64.9119235  64.9683085  53.2504751  65.4559475  65.3391225  54.1191718
  63.9215247  64.6331775  53.5585285  65.6675037  63.7955450  52.6592370
  66.1240621  62.9298284  53.4136104  65.8078435  63.7417631  51.3374151
  65.3646975  64.4329826  50.7492514  66.5619309  62.6722429  50.6980562
  66.3566203  61.7246661  51.1960974  66.1632503  62.5476430  49.2275506
  66.3041468  63.5203662  48.7563213  66.8292058  61.8199568  48.7637875
  64.7243581  62.1025441  49.0473307  64.1645007  61.5000888  49.9875972
  64.1527066  62.3586552  47.9666574  68.0584941  62.9358962  50.8148917
  68.5099627  64.0823211  50.7429183  68.8282267  61.8628363  51.0005229
  68.4316532  60.9354328  51.0529779  70.2647414  62.0123616  51.1980241
  70.4591926  62.6783143  52.0387351  70.8950901  60.6526071  51.4962226
  70.7158030  60.0052340  50.6378151  71.9678282  60.7986534  51.6227279
  70.3235691  60.0088940  52.7413018  70.4964423  60.5797753  53.8381151
  69.7029552  58.9315242  52.6250192  70.9279753  62.6548536  49.9863402
  71.8162591  63.5057598  50.1307305  70.5188314  62.2547505  48.7815366
  69.8724547  61.4860291  48.6749356  71.0630456  62.8713144  47.5790751
  72.1491878  62.7836570  47.5524203  70.4636356  62.2075925  46.3244425
  70.5722290  61.1264332  46.4104793  68.9930830  62.5586535  46.1845243
  68.8837188  63.6396935  46.0979647  68.5881064  62.0804487  45.2926640
  68.4502245  62.2082021  47.0623556  71.2277139  62.6354276  45.0687150
  70.6280103  62.3393734  44.2080127  71.3124409  63.7217999  45.0954736
  72.6033149  62.0267629  44.9559545  72.5193618  60.9403434  44.9286709
  73.0821993  62.3767357  44.0414667  73.2037919  62.3227683  45.8161336
  70.8119870  64.3720838  47.5906925  71.6361233  65.1527591  47.1018618
  69.6814285  64.8037211  48.1537633  68.9731331  64.1539994  48.4640514
  69.4012750  66.2324339  48.2538474  69.5169148  66.7356786  47.2939143
  67.9648809  66.4596304  48.7584498  67.8244511  65.9090640  49.6886408
  67.7149043  67.9376701  49.0027047  67.8547029  68.4888716  48.0727939
  66.6946946  68.0801223  49.3590471  68.4156614  68.3062759  49.7518181
  66.9658600  65.9107078  47.7551601  67.1331078  64.8417845  47.6227474
  65.9530154  66.0767456  48.1221435  67.0933443  66.4190162  46.7994033
  70.4253952  66.9216962  49.1468655  70.9250135  68.0048291  48.8190705
  70.7414010  66.3198497  50.2944291  70.2692592  65.4815570  50.6017512
  71.7480440  66.9077967  51.1716117  71.4852270  67.9404365  51.4011362
  71.8279551  66.1224493  52.4789241  71.8684586  65.0794408  52.1649306
  72.7559650  66.3846988  52.9869820  70.6511382  66.3213957  53.4335572
  69.7220486  66.2408326  52.8692852  70.6677298  65.2742546  54.5325628
  71.5963791  65.3545049  55.0976021  69.8215224  65.4345355  55.2006525
  70.5972187  64.2807972  54.0896509  70.6799845  67.7199575  54.0285586
  70.6153471  68.4572194  53.2283296  69.8351570  67.8446907  54.7059133
  71.6101629  67.8622109  54.5786777  73.1100420  66.9551346  50.4923838
  73.8452737  67.9431163  50.6194135  73.4678626  65.8924684  49.7675983
  72.9020788  65.0564113  49.7360288  74.7312733  65.8999776  49.0399534
  75.5579578  66.0787640  49.7275051  74.9474267  64.5502161  48.3569142
  74.0897626  64.3753675  47.7073456  75.8498268  64.6349140  47.7514388
  75.0947083  63.3868415  49.3259048  75.9031944  63.6276945  50.0161518
  74.1605496  63.2934545  49.8797355  75.4589330  61.8209757  48.5097348
  77.2151882  61.9891564  48.2275413  77.7268775  62.1127407  49.1820045
  77.5905240  61.0962506  47.7275985  77.4011049  62.8612263  47.6006200
  74.7583412  67.0277256  48.0162363  75.7632080  67.7385509  47.8840841
  73.6554977  67.2094820  47.2895763  72.8667657  66.5843243  47.3743051
  73.5833899  68.2829424  46.3078833  74.4107277  68.1814836  45.6055176
  72.2704115  68.1942166  45.5317490  71.4325792  68.3032392  46.2204079
  72.2336220  68.9891513  44.7868827  72.2069625  67.2268686  45.0334405
  73.7185147  69.6444784  46.9748009  74.4152452  70.5246660  46.4622628
  73.0530576  69.8393928  48.1139142  72.4462985  69.1288043  48.4973287
  73.1442901  71.1211040  48.8091596  72.8691118  71.9323133  48.1351303
  72.1926357  71.1357199  50.0051020  72.2886573  70.1699154  50.5011875
  72.5350532  71.9237475  50.6758201  70.7367085  71.3762958  49.6432286
  70.6765213  72.3259803  49.1116483  70.4161565  70.5701693  48.9833000
  69.8349171  71.4210453  50.8604228  70.3283379  71.7678335  51.9540018
  68.6325908  71.1081573  50.7244396  74.5712094  71.4002404  49.2630530
  75.0758016  72.5208582  49.1075459  75.2346920  70.3940822  49.8353314
  74.7940368  69.5022212  50.0099919  76.6094634  70.5851538  50.2820708
  76.6483496  71.4271048  50.9732333  77.1035717  69.3344603  51.0077600
  77.0790907  68.4845293  50.3257643  78.1252653  69.4936337  51.3525878
  76.4593166  69.1318065  51.8633101  77.5200051  70.9203487  49.1087584
  78.3453199  71.8417681  49.1906603  77.3761517  70.1894797  48.0021579
  76.7455395  69.4012775  47.9680280  78.1826599  70.4808276  46.8233259
  79.2419650  70.4485375  47.0781382  77.9109089  69.4452833  45.7357044
  76.8447304  69.2343551  45.8186020  78.1171811  69.8960051  44.7649307
  78.6986162  68.1444493  45.8701114  78.7135869  67.8449565  46.9180526
  78.0566086  67.0482887  45.0402896  78.0416963  67.3468809  43.9920916
  78.6303470  66.1276901  45.1471693  77.0359336  66.8817392  45.3846503
  80.1445275  68.3576487  45.4520760  80.5993987  69.1161695  46.0891301
  80.6942321  67.4218420  45.5530309  80.1781922  68.6880236  44.4138958
  77.9067940  71.8848994  46.3060386  78.8308493  72.5942018  45.8944938
  76.6403321  72.2995760  46.3089526  75.8929572  71.6911127  46.6111156
  76.2942176  73.6269075  45.8157703  76.6730619  73.7596573  44.8023831
  74.7742149  73.7971493  45.7955816  74.3723014  73.0201940  45.1452701
  74.4192846  73.6375482  46.8137427  74.3089996  75.1597597  45.3045003
  74.6529549  75.9104079  46.0160639  74.7740562  75.3387752  44.3350804
  72.8005416  75.2486315  45.1656076  72.1002936  74.3581594  45.6880884
  72.3164658  76.2125895  44.5368106  76.9436217  74.7104556  46.6636258
  77.5121547  75.6719005  46.1329593  76.8710457  74.5753849  47.9888785
  76.3702413  73.8192799  48.4334002  77.4649427  75.6049983  48.8366400
  77.1342175  76.5880933  48.5016110  77.0495861  75.4210910  50.2977731
  77.3432381  76.3351659  50.8138496  75.9627114  75.3386275  50.2959770
  77.6462289  74.2229909  51.0127567  77.2059887  73.3147403  50.6012104
  78.7227629  74.2138859  50.8421876  77.3700839  74.2876138  52.5097626
  77.8231932  73.4123912  52.9753552  77.8386888  75.1904330  52.9014593
  75.8815452  74.3135216  52.8210007  75.4648327  75.2375782  52.4202881
  75.4145588  73.4610531  52.3277255  75.6184610  74.2446699  54.2853423
  76.0507333  75.0347307  54.7425559  74.6221113  74.2643028  54.4496642
  76.0041427  73.3882887  54.6567717  78.9828435  75.6159261  48.7008186
  79.5985619  76.6879628  48.6933854  79.6082009  74.4420251  48.5743683
  79.1211203  73.5611611  48.6576169  81.0550402  74.4172787  48.3800268
  81.5455577  75.0063523  49.1549358  81.5702921  72.9813266  48.4588178
  80.9155605  72.4196321  47.7925407  82.5922685  72.9412137  48.0819156
  81.5192086  72.3673940  49.8613898  80.5564984  72.6060102  50.3134431
  81.6899681  70.8586292  49.8009245  82.6527203  70.6192254  49.3493796
  81.6499316  70.4472141  50.8095054  80.8899110  70.4256808  49.2004541
  82.5770087  72.9888480  50.7622626  82.4022137  74.0617742  50.8421097
  82.5219826  72.5375677  51.7529288  83.5654261  72.8128755  50.3378058
  81.4434773  75.0610872  47.0531778  82.4250865  75.8123554  46.9815851
  80.6812514  74.7859318  45.9929085  79.9315441  74.1114443  46.0486302
  80.9536778  75.4119008  44.7043253  81.9829187  75.2158405  44.4037878
  80.0163781  74.8430643  43.6380043  80.1679346  73.7674826  43.5471534
  78.9785292  75.0419288  43.9052544  80.2265556  75.4242743  42.2676244
  79.6085477  76.6070148  41.8969018  78.9638052  77.1172565  42.6124858
  79.8012674  77.1414403  40.6365965  79.3120504  78.0748450  40.3581666
  80.6141754  76.4916517  39.7306714  80.7661916  76.9078861  38.7348100
  81.2343902  75.3141738  40.0872011  81.8785617  74.8004768  39.3735775
  81.0402961  74.7846289  41.3480456  81.5304681  73.8524999  41.6290562
  80.8092681  76.9249934  44.7964916  81.6427719  77.6707086  44.2714941
  79.7530116  77.3950102  45.4630623  79.0427617  76.7756659  45.8264588
  79.5698278  78.8317142  45.6322698  79.5525317  79.3226765  44.6592559
  78.2459794  79.1117229  46.3444640  78.2779095  78.4604945  47.2179520
  78.2367275  80.1525457  46.6680416  76.9805999  78.8181006  45.5357609
  77.0662165  77.8249697  45.0947827  75.7496059  78.8724510  46.4259590
  75.6630558  79.8654895  46.8669606  74.8609412  78.6608288  45.8313231
  75.8408806  78.1300620  47.2188196  76.8443424  79.7869863  44.3727147
  77.7095114  79.6917913  43.7165745  75.9375014  79.5582073  43.8128926
  76.7881564  80.8068047  44.7533886  80.7320463  79.4382048  46.4061549
  81.1878330  80.5454859  46.0948719  81.2221690  78.7287193  47.4232150
  80.7769555  77.8761203  47.7313694  82.3903406  79.2025015  48.1560755
  82.2022875  80.1975045  48.5594416  82.6937004  78.2538781  49.3168251
  81.7994814  78.2105273  49.9385906  82.8846523  77.2706360  48.8868572
  83.8818752  78.6742187  50.1671329  84.7943473  78.5325579  49.5879716
  83.7739405  79.7284840  50.4220384  83.9933233  77.8753711  51.4489078
  83.3245394  76.8550907  51.6167229  84.8401197  78.3347241  52.3612140
  84.9535701  77.8405463  53.2347234  85.3673829  79.1764612  52.1779832
  83.6000225  79.3268958  47.2386542  84.3231527  80.3288585  47.2768972
  83.8349969  78.3157050  46.4024592  83.2270100  77.5100770  46.3648440
  85.0251054  78.3239871  45.5588608  85.8681800  78.7448846  46.1067382
  85.3790977  76.8967672  45.1382481  84.4463837  76.3942819  44.8820207
  86.0085824  76.9676550  44.2512172  86.1049889  76.1008584  46.2124851
  85.5661416  76.2200128  47.1524567  86.1021247  75.0499108  45.9233432
  87.5396091  76.5742251  46.3874442  88.0441554  76.5112273  45.4233056
  87.5227518  77.6117960  46.7210036  88.2850777  75.7276001  47.4049837
  88.0541856  74.6804032  47.2096176  89.3534361  75.8951546  47.2684736
  87.9045343  76.0668153  48.8043113  86.9146840  75.9112142  48.9311356
  88.4220607  75.4822465  49.4450497  88.1187975  77.0370190  48.9856815
  84.8615804  79.2007329  44.3220398  85.8367875  79.8086632  43.8697986
  83.6521426  79.2810544  43.7615171  82.8609212  78.7911404  44.1540120
  83.4607737  80.0198567  42.5191025  84.2080310  79.7226937  41.7833037
  82.0522864  79.7669679  41.9506303  81.8574534  78.6945231  41.9489732
  81.0051474  80.4698251  42.7954934  81.1990619  81.5424362  42.7972520
  80.0154102  80.2807405  42.3798399  81.0479988  80.0917074  43.8169091
  81.9587051  80.2542172  40.5007146  80.9189622  80.1451582  40.1922643
  82.2287210  81.3102422  40.4992597  82.8532171  79.5030837  39.5350233
  82.5834720  78.4469885  39.5355845  82.7272046  79.9092010  38.5313855
  83.8932314  79.6120708  39.8425816  83.6957509  81.5131718  42.6964655
  84.0308886  82.2009446  41.7242153  83.5334483  82.0395282  43.9113666
  83.2535016  81.4693124  44.6965948  83.7007013  83.4727521  44.1225007
  83.0114456  84.0277269  43.4860821  83.4074745  83.8223628  45.5816760
  83.9448284  83.1244271  46.2237320  83.7557810  84.8366230  45.7767631
  81.9299061  83.7455397  45.9123309  81.0937840  83.5573985  45.0296760
  81.6010258  83.8922201  47.1905252  80.6305778  83.8498488  47.4671750
  82.3228516  84.0454757  47.8801490  85.0963988  83.9547844  43.7451158
  85.2756926  85.1496066  43.4853034  86.0790928  83.0614439  43.7073072
  85.8830446  82.1063790  43.9709649  87.4489968  83.4153133  43.3634328
  87.6732954  84.4275493  43.6998367  88.4178105  82.4445715  44.0502912
  88.2436990  82.5409073  45.1219740  88.1343890  81.4435229  43.7252158
  89.8951717  82.6758291  43.7529820  90.0774096  82.3924967  42.7163466
  90.0991726  83.7390389  43.8797407  90.8051106  81.8753687  44.6624321
  90.4238446  81.6291566  45.8266781  91.9051028  81.4890432  44.2140676
  87.6910116  83.4263597  41.8585987  88.8138150  83.7048068  41.4266348
  86.6680847  83.1541085  41.0552876  85.7490922  82.9728381  41.4330351
  86.8500570  83.0720777  39.6130674  87.5380580  82.2623646  39.3699242
  85.5117704  82.7976485  38.9288719  85.1757596  81.8706657  39.3935211
  84.8298432  83.6051015  39.1955084  85.5308852  82.6279386  37.4089485
  86.1712100  83.3966919  36.9763942  86.0592877  81.2564944  37.0281748
  85.4191669  80.4871700  37.4600129  86.0643795  81.1570259  35.9427344
  87.0742161  81.1392772  37.4080181  84.1414009  82.8455592  36.8344195
  83.8020611  83.8531559  37.0746213  84.1716992  82.7213262  35.7519458
  83.4521233  82.1185524  37.2639034  87.4554020  84.3736010  39.0894421
  86.9069384  85.4542627  39.3508212  88.5648739  84.3232109  38.3562716
  89.3071834  83.1320480  37.9033352  88.6217263  82.4495846  37.4008489
  89.7488120  82.6329032  38.7658419  90.3459327  83.6961258  36.9732067
  89.9726174  83.6645392  35.9496164  91.2581135  83.1037994  37.0451577
  90.5830866  85.0887985  37.4198731  90.8921360  85.6901335  36.5648973
  91.3236706  85.1801934  38.2144056  89.2164386  85.5624557  37.9225691
  89.2978413  86.2252216  38.7840871  88.4356830  86.2588916  36.8206727
  87.5700086  85.6791722  36.1615869  88.7610090  87.5339725  36.6294616
  89.4384300  87.9754089  37.2347169  88.1380331  88.3389755  35.5868590
  87.0714644  88.1203034  35.5347734  88.3194521  89.8471140  35.8533387
  87.9202294  90.0800542  36.8404863  89.7925645  90.2345459  35.7970327
  90.1923940  90.0023142  34.8099641  89.8954073  91.3027431  35.9880227
  90.3448237  89.6760272  36.5527888  87.5921606  90.6001334  34.8744460
  87.7067250  91.5383339  35.0425385  88.7222921  87.9975773  34.2202300
  89.9329535  87.8221210  34.0796244  87.9888883  87.8714882  33.2421401
 104.4526778  33.3574840  32.7731814 103.9255122  32.8061171  33.4351421
 105.4371690  33.2467520  32.9696905 104.0994117  33.1751586  31.8447095
 104.1652465  34.7652953  33.0253811 105.0863257  35.2924129  33.2740966
 103.5504273  35.4144601  31.7839371 102.6599791  34.8397797  31.5290965
 103.2609473  36.4278867  32.0619080 104.4814681  35.4650839  30.5829103
 105.4189071  35.9279590  30.8912211 104.6727590  34.4448519  30.2502897
 103.8729519  36.2648909  29.4405785 102.9204855  35.8097049  29.1690781
 103.7024778  37.2847948  29.7853015 104.7876877  36.2868914  28.2271077
 105.7255365  36.7614821  28.5157318 104.9797671  35.2569847  27.9262809
 104.1850076  37.0318120  27.0883013 104.0073412  37.9862870  27.3667107
 104.8225294  37.0226924  26.3049861 103.3161777  36.5919545  26.8204223
 103.2217259  34.9269431  34.2149625 102.6915560  36.0115324  34.4521773
 103.0177367  33.8389729  34.9617706 103.4440879  32.9550954  34.7228467
 102.0970376  33.8797445  36.0944386 101.1271237  34.2977773  35.8249676
 101.8818501  32.4644168  36.6656318 101.2924448  32.5343716  37.5798566
 101.1494036  31.5955845  35.6562645 101.7384547  31.5247763  34.7418762
 101.0038085  30.5986272  36.0721714 100.1799308  32.0393896  35.4298548
 103.2083811  31.8299758  37.0636284 103.6918408  32.4438946  37.8235445
 103.0289205  30.8320238  37.4636101 103.8549047  31.7594057  36.1889125
 102.6015415  34.8447331  37.1602426 101.8089243  35.5159258  37.8350938
 103.9206034  34.9257725  37.3388880 104.5592584  34.3116941  36.8539893
 104.4703411  35.8770428  38.2991898 104.0362807  35.7052782  39.2841709
 105.9848301  35.7081311  38.3971527 106.2057913  34.6738241  38.6607517
 106.4265275  35.9377116  37.4274640 106.5284950  36.5722211  39.3799874
 107.4795263  36.4488377  39.4237576 104.1159894  37.3075910  37.9152891
 103.7936733  38.1302440  38.7814325 104.1643509  37.6237194  36.6197977
 104.5136363  36.9733684  35.9304918 103.7570571  38.9519679  36.1738093
 104.3395110  39.7131785  36.6928516 103.9908356  39.0992952  34.6681306
 103.1907774  38.5517232  34.1699628 103.9019033  40.1609710  34.4378363
 105.3373255  38.5856379  34.1793860 105.3550186  37.5049735  34.3206388
 105.4156987  38.8139338  33.1164477 106.5023978  39.2093362  34.9160589
 106.3722639  40.3669969  35.3668592 107.5500098  38.5425254  35.0463216
 102.2944474  39.2091464  36.5089543 101.9321567  40.3014664  36.9650248
 101.4370901  38.2102974  36.2858400 101.7409311  37.3394351  35.8742833
 100.0198616  38.3786280  36.5783281  99.6383959  39.2654814  36.0722904
  99.2326549  37.1620689  36.0917765  99.6186174  36.2942206  36.6265395
  98.1900007  37.3229162  36.3658209  99.3307354  36.9197040  34.5980575
  99.1527333  37.8572929  34.0714238 100.3334498  36.5592698  34.3683771
  98.3260559  35.8953580  34.1152124  97.7542203  35.1482029  34.9085077
  98.1003637  35.8588576  32.8074935  97.4394712  35.1946097  32.4305356
  98.5905870  36.4955050  32.1955600  99.7862640  38.6001457  38.0674124
  98.9779271  39.4491205  38.4542229 100.4957307  37.8581075  38.9200051
 101.1209393  37.1309435  38.6030730 100.3220645  38.0432906  40.3566012
  99.2609508  38.0371909  40.6057995 101.0105563  36.9146411  41.1240191
 102.0217075  36.9025212  40.7171705 101.0471623  37.1865550  42.1789233
 100.3846248  35.5242641  40.9768783 100.4867843  35.1953416  39.9427244
 101.0803772  34.5320173  41.8949964 100.9782416  34.8600461  42.9294355
 100.6249938  33.5484437  41.7796289 102.1374086  34.4751850  41.6350829
  98.8905851  35.5571943  41.2624565  98.4009894  36.2333117  40.5615565
  98.4763945  34.5552975  41.1495395  98.7224823  35.9065999  42.2811597
 100.8507573  39.3974389  40.8064136 100.2692118  40.0288602  41.6949304
 101.9438896  39.8690061  40.2050559 102.4899005  39.3029980  39.5713318
 102.4101995  41.2181836  40.5037470 102.5830641  41.3255955  41.5745783
 103.7219679  41.4923237  39.7670756 103.5955915  41.1391972  38.7436354
 103.8683736  42.5724378  39.7627261 104.9367917  40.8184173  40.3896785
 104.6424608  39.8265792  40.7327927 105.7078864  40.7238204  39.6251091
 105.4813729  41.6188258  41.5618273 105.6905459  42.6328606  41.2211236
 104.7222515  41.6480476  42.3434795 106.7548579  40.9973603  42.1152001
 106.9773784  41.4708293  43.0714492 106.5753242  39.9334766  42.2701779
 107.9100733  41.1762799  41.1922650 108.0768718  42.1620359  41.0488666
 108.7324225  40.7508723  41.5958367 107.7042562  40.7372544  40.3062655
 101.3573921  42.2536747  40.1258054 101.0736362  43.1802413  40.8970380
 100.7564011  42.1039283  38.9422198 101.0311169  41.3733363  38.3012316
  99.7206598  43.0406857  38.5203874 100.1011269  44.0614433  38.5577761
  99.2919609  42.7311934  37.0853745 100.1485723  42.7782194  36.4129872
  98.8393972  41.7412622  37.0277353  98.0681401  43.8811301  36.4188266
  97.9674950  43.3011490  35.2261864  98.5209549  42.9952805  39.4585732
  97.9518247  44.0377192  39.8018418  98.1141307  41.7949089  39.8767526
  98.5477408  40.9483354  39.5370543  96.9722196  41.6740715  40.7770722
  96.1305562  42.2438251  40.3832669  96.5501381  40.2126087  40.9157652
  97.4006264  39.6018479  41.2186514  95.7544802  40.1186594  41.6548201
  95.9127360  39.4664518  39.3942599  95.6745923  38.2668490  39.9168867
  97.2728560  42.2824088  42.1405756  96.4003279  42.9112149  42.7487438
  98.4918849  42.0917605  42.6485054  99.1585810  41.4720352  42.2108341
  98.8687112  42.7409747  43.8973913  98.1610290  42.4759067  44.6829001
 100.2645660  42.2901489  44.3252820 100.9815713  42.6086424  43.5686021
 100.5075798  42.7625859  45.2770423 100.3238945  40.8838432  44.4684617
 101.2088961  40.6266194  44.7371770  98.8176545  44.2551051  43.7581356
  98.3240172  44.9523439  44.6533017  99.3164383  44.7841888  42.6401092
  99.7694401  44.2184396  41.9366772  99.2132973  46.2168958  42.4114811
  99.7405760  46.7337976  43.2132846  99.6860448  46.4496590  41.4573164
  97.7740186  46.6948138  42.3788440  97.4371912  47.7308086  42.9571442
  96.9013386  45.9344569  41.7141861  97.2107211  45.1161224  41.2094978
  95.4901583  46.3069137  41.6320879  95.3622330  47.3328265  41.2867805
  94.7418030  45.3510872  40.6871248  95.0348993  44.3259501  40.9135950
  93.2371577  45.4991546  40.8641630  92.9432213  46.5239875  40.6374041
  92.7223369  44.8161113  40.1885063  92.9669818  45.2635411  41.8935271
  95.1596653  45.6109177  39.2369186  94.7712597  46.5914067  38.9614495
  96.2492291  45.6332148  39.2156342  94.6561440  44.5729497  38.2518675
  93.5665681  44.5503965  38.2722512  94.9950165  44.8293732  37.2481187
  95.0445360  43.5922036  38.5264376  94.8647074  46.3214988  43.0199396
  94.1690732  47.2723487  43.4024414  95.0935441  45.2602533  43.7953419
  95.6437259  44.4777277  43.4712233  94.4968105  45.1825555  45.1217348
  93.4168581  45.3126601  45.0519160  94.7843397  43.8224112  45.7496356
  94.5177066  43.1012311  44.9770391  95.8494130  43.7435239  45.9675706
  93.9822173  43.5302511  47.0174851  94.0363955  44.3947767  47.6791202
  92.5277303  43.2464978  46.6723700  92.4727088  42.3817578  46.0110862
  91.9704647  43.0404532  47.5862089  92.0965858  44.1137216  46.1722323
  94.5903544  42.3715828  47.7776240  95.6148006  42.6174568  48.0571869
  94.0051280  42.1791196  48.6768287  94.5897801  41.4824334  47.1471386
  95.0118636  46.3008706  46.0153509  94.2566836  46.8606867  46.8182595
  96.2951373  46.6429250  45.8933247  96.9371484  46.1046430  45.3292559
  96.8164308  47.7841180  46.6346921  96.6060184  47.6647398  47.6975066
  98.3289730  47.8898176  46.4452461  98.7670463  46.9761548  46.8470064
  98.5149919  47.9400946  45.3724138  98.9588953  49.0955709  47.1257716
 100.0296607  49.0861432  46.9221213  98.5174397  49.9988680  46.7047332
  98.7290799  49.0725121  48.6276258  97.6580281  49.1478518  48.8154317
  99.1006281  48.1260942  49.0204927  99.4444157  50.2202946  49.3143107
 100.4822023  50.2245946  48.9810224  98.9632094  51.1512421  49.0145166
  99.4003161  50.0944706  50.7953824  99.8465446  49.2321033  51.0734159
  99.8856772  50.8749571  51.2141490  98.4387763  50.0908967  51.1044576
  96.1294769  49.0699851  46.1989054  95.8381234  49.9398210  47.0284551
  95.8653052  49.2111290  44.8987924  96.1869941  48.5363974  44.2195628
  95.1407817  50.3827919  44.4198907  95.6764759  51.2904441  44.6979163
  95.0123798  50.3384624  42.8987185  96.0109873  50.4715601  42.4825848
  94.6365344  49.3508865  42.6312600  94.0848647  51.4015902  42.3377220
  93.0590601  51.1100675  42.5631997  94.3145110  52.3401860  42.8421026
  94.2407359  51.5807918  40.8456989  94.6655006  50.6179554  40.1724257
  93.9335938  52.6820466  40.3431638  93.7615721  50.4728845  45.0575663
  93.3254339  51.5559304  45.4631338  93.0564999  49.3446785  45.1528056
  93.4191492  48.4640896  44.8164308  91.7020534  49.3741967  45.6897165
  91.0995562  50.0999427  45.1434666  91.0529868  47.9959541  45.5499599
  91.7539695  47.2635275  45.9503019  90.1467469  47.9996099  46.1556132
  90.7019096  47.6299778  44.1137527  89.8878925  48.2822688  43.7975353
  91.5816717  47.8241667  43.5002289  90.2002933  45.9119927  43.9031485
  88.6097876  45.9160984  44.7231129  87.9470969  46.6260033  44.2281631
  88.1733315  44.9184292  44.6755443  88.7387293  46.2063682  45.7658107
  91.6708339  49.8266017  47.1440428  90.6036473  50.2000135  47.6408430
  92.8093128  49.8018190  47.8351728  93.6470886  49.4465171  47.3970043
  92.8864439  50.2338093  49.2237390  91.9302423  50.0694200  49.7204823
  93.9649029  49.4332772  49.9606030  94.7272560  49.0912156  49.2606666
  94.4279444  50.0573351  50.7249618  93.4459148  48.2126867  50.6598455
  93.2605218  47.0291152  49.9694384  93.4936330  46.9914531  48.9053234
  92.7867275  45.9048038  50.6115683  92.6424248  44.9782329  50.0559211
  92.4958627  45.9534516  51.9559927  92.1227067  45.0653920  52.4660954
  92.6765839  47.1251448  52.6566994  92.4449782  47.1661271  53.7210205
  93.1509224  48.2469560  52.0107678  93.2972353  49.1740253  52.5650555
  93.1893459  51.7176127  49.3765716  93.1393601  52.2299744  50.4999628
  93.4979708  52.4176127  48.2891104  93.4470515  51.9965741  47.3724681
  93.9607156  53.7931983  48.3915825  94.7556010  53.8485714  49.1353502
  94.5132299  54.2721766  47.0498431  93.7262851  54.2311351  46.2967604
  94.8684018  55.2980091  47.1479296  95.3396842  53.6295386  46.7463819
  92.8339680  54.7174612  48.8469152  91.6467877  54.4025823  48.7286134
  93.2268820  55.8774458  49.3802596  94.2004732  56.0606372  49.5768823
  92.2457165  56.8944531  49.7399349  91.4830529  56.4623226  50.3877827
  92.9250176  58.0449375  50.4846561  93.5802650  58.5431035  49.7701067
  92.1374638  58.7317469  50.7947398  93.7335069  57.6177304  51.7017551
  94.5325945  56.9578015  51.3640371  94.1665658  58.5108029  52.1522921
  92.8786793  56.8928754  52.7329059  92.4383575  56.0158141  52.2585862
  93.5237759  56.5766066  53.5526156  91.7720693  57.7854358  53.2743109
  92.2136943  58.7405262  53.5586877  91.0437885  57.9448807  52.4791482
  91.0945493  57.1823075  54.4530645  91.7691351  57.0348783  55.1901522
  90.3695728  57.8050204  54.7797718  90.6848950  56.2974908  54.1896603
  91.5196935  57.4329966  48.5190247  90.4542437  58.0429176  48.6598328
  92.0778979  57.2221986  47.3263432  92.9857564  56.7863031  47.2496149
  91.4132530  57.6532086  46.1039216  91.3128207  58.7384795  46.0897963
  92.2438830  57.2241253  44.8959831  93.2831465  57.4473181  45.1372624
  92.1176420  56.1458941  44.7981023  91.8728028  57.8975244  43.5872115
  90.7862562  57.9347624  43.5089123  92.2712880  58.9120683  43.5907066
  92.4421056  57.1320874  42.3968307  91.9082502  56.1850893  42.3175078
  92.2658840  57.7242488  41.4988384  93.9352235  56.8625685  42.5423800
  94.4445483  57.8189587  42.6607292  94.0871077  56.2575686  43.4362511
  94.4894316  56.1490277  41.3612149  94.3491788  56.7096589  40.5328904
  95.4775910  55.9902314  41.4969524  94.0179093  55.2625989  41.2516248
  90.0078879  57.0799003  45.9975615  89.1184865  57.7207434  45.4280255
  89.7898771  55.8789939  46.5364976  90.5592175  55.3740140  46.9526828
  88.4802484  55.2389211  46.5032679  87.7454608  55.9036892  46.0490986
  88.5604739  53.9580752  45.6715403  89.2245594  53.2363008  46.1470731
  87.5669064  53.5223957  45.5661506  89.0832712  54.1725609  44.2853769
  88.3371102  54.7580474  43.2874394  89.0505097  54.8124355  42.1782554
  88.6335198  55.2461529  41.2693507  90.2342891  54.2802556  42.4199136
  90.9894633  54.1845978  41.7560902  90.2808330  53.8713036  43.7311138
  91.1830767  53.4027184  44.1241602  87.9484344  54.9152676  47.8939121
  86.9115064  54.2511352  48.0076022  88.6243017  55.3656100  48.9528678
  89.4823061  55.8857310  48.8371016  88.1736550  55.0679698  50.3075094
  88.0807858  53.9859753  50.4011166  89.2054848  55.5595764  51.3234656
  89.3029272  56.6425940  51.2481138  88.8809234  55.2936158  52.3294602
  90.1691189  55.0934268  51.1180073  86.8159000  55.6797785  50.6209303
  86.1840667  55.2839601  51.6067555  86.3508734  56.6342297  49.8151424
  86.8986434  56.9905069  49.0450035  85.0473835  57.2326767  50.0706775
  85.0400650  57.6439960  51.0800644  84.7928417  58.3670868  49.0793419
  84.7881916  57.9692812  48.0645369  83.8281937  58.8274113  49.2930141
  85.5802898  59.1150132  49.1722431  83.9312696  56.1997019  49.9902673
  83.0183516  56.1981651  50.8246512  83.9837861  55.3128021  48.9957123
  84.7665544  55.3153297  48.3574594  82.9085403  54.3584891  48.7655187
  82.1966702  54.3943782  49.5901715  82.1700659  54.6964846  47.4661262
  81.3260829  54.0147321  47.3612194  81.8015674  55.7175252  47.5650450
  83.0478907  54.5968003  46.2511169  83.1824214  53.3997115  45.5712006
  82.6430346  52.5242005  45.9326446  83.9767762  53.3037961  44.4617117
  84.0767125  52.3531729  43.9378510  84.6427289  54.4162367  44.0014065
  85.4347255  54.3121880  42.8871963  85.4477682  53.4262584  42.5176585
  84.5265922  55.6191748  44.6548568  85.0590489  56.5003885  44.2970122
  83.7283501  55.7044129  45.7713374  83.6227568  56.6547832  46.2945452
  83.3457968  52.9012796  48.6932473  82.4916548  52.0373223  48.4721041
  84.6288242  52.5979246  48.8543884  85.3192849  53.3306134  48.9351995
  85.0856114  51.2153548  48.8591914  84.3400104  50.6170761  48.3355113
  86.4165967  51.1007325  48.1129032  87.1756425  51.6872914  48.6304919
  86.7259471  50.0561016  48.0790091  86.2976249  51.4770422  47.0968639
  85.2380584  50.6460242  50.2618259  85.6523784  49.4933481  50.4050175
  84.9063139  51.4155565  51.2917597  84.5109644  52.3298370  51.1247588
  85.1730223  51.0188614  52.6692878  86.1912021  50.6398652  52.7574402
  85.0160035  52.2228342  53.6042353  85.1244037  51.8877638  54.6357761
  85.7790464  52.9691322  53.3830911  83.6993772  52.9198870  53.5179014
  83.3668745  53.9416985  52.6794175  84.1405570  54.2871739  51.9937340
  82.0678477  54.3273315  52.8956295  81.5815371  55.0621971  52.4020972
  81.5369249  53.5520681  53.8918707  80.2682306  53.5656709  54.4557311
  79.5392687  54.2859869  54.0844386  80.0136703  52.6651644  55.4502668
  79.0289393  52.6467816  55.9172431  80.9871029  51.7629530  55.8864935
  80.7702945  51.0495297  56.6815537  82.2462525  51.7462404  55.3283099
  82.9688750  51.0202016  55.7008486  82.5382747  52.6566100  54.3084501
  84.2968750  49.8621360  53.1486221  84.7326118  49.1056103  54.0262749
  83.0744885  49.6753046  52.6364696  82.3376748  50.4439402  51.6180616
  82.6869614  50.1624217  50.6246602  82.5052592  51.5097722  51.7730349
  80.9198022  50.0503976  51.8593736  80.3485117  50.1457825  50.9359951
  80.4838266  50.6935384  52.6238320  80.9726913  48.6537327  52.3162005
  81.0160484  47.9740403  51.4651791  80.1167431  48.3986610  52.9410132
  82.2671159  48.5492986  53.1335905  82.0849928  48.7233921  54.1940719
  82.9275662  47.1967079  52.9502855  82.6746843  46.2857711  53.7467495
  83.7615225  47.0312767  51.9274295  83.9505638  47.8110294  51.3139570
  84.3796799  45.7475267  51.6233550  83.7704365  44.9357389  52.0207493
  84.5007823  45.5714304  50.1077623  85.2650073  46.2427238  49.7160679
  84.7649978  44.5415192  49.8678181  83.2368575  45.8760816  49.3585035
  82.0958701  45.1203320  49.5614792  82.1203001  44.2975461  50.2759906
  80.9360574  45.3990728  48.8707294  80.0433241  44.7967098  49.0389161
  80.9052808  46.4378677  47.9687800  79.9885406  46.6597823  47.4224823
  82.0336164  47.1969940  47.7567750  82.0114082  48.0201023  47.0425623
  83.1916976  46.9158625  48.4480600  84.0859875  47.5159779  48.2801106
  85.7551209  45.5729238  52.2549126  86.3386210  44.4907428  52.1336982
  86.2889436  46.5967809  52.9218872  85.7759101  47.4547930  53.0658009
  87.6595331  46.5191693  53.4161015  88.3490341  46.3940459  52.5812173
  88.0255433  47.8019355  54.1641873  87.1476450  48.0792343  54.7477103
  88.8451757  47.5525864  54.8380774  88.4325261  48.9626597  53.2836390
  88.1449801  48.9739185  51.9275034  87.6137159  48.1264959  51.4942222
  88.5201163  50.0353574  51.1282092  88.2857099  50.0326154  50.0637149
  89.1944648  51.1016066  51.6824654  89.5732559  52.1625858  50.8929399
  89.3176947  52.0561568  49.9737223  89.4916467  51.1107848  53.0265396
  90.0236373  51.9542534  53.4665932  89.1133159  50.0470323  53.8163766
  89.3484594  50.0477312  54.8807107  87.8788195  45.3192832  54.3260311
  88.9943616  44.7904105  54.3897687  86.8519256  44.8765873  55.0351984
  85.9455697  45.3065605  54.9179746  86.9875326  43.8104618  56.0140544
  87.9080786  43.2588496  55.8232188  87.0372108  44.3678282  57.4422336
  86.1678903  45.0124916  57.5718105  86.9665940  43.5217558  58.1258087
  88.2998148  45.1554360  57.7412774  89.1597262  44.5197390  57.5302265
  88.3240905  46.0273777  57.0876487  88.3485641  45.6073553  59.1886935
  87.4461184  46.1788071  59.4057963  88.3820322  44.7252435  59.8281136
  89.5702493  46.4708423  59.4532844  90.4584281  45.8763044  59.2393599
  89.5342477  47.3253638  58.7775655  89.6235647  46.9526778  60.8585321
  89.6573645  46.1610158  61.4848137  90.4486978  47.5204078  60.9886778
  88.8008539  47.5039693  61.0568341  85.8230072  42.8441212  55.8728973
  84.7919223  43.1882743  55.2853919  85.9607375  41.6254768  56.3960314
  87.1182179  41.0760441  57.1200594  87.1548223  41.5051551  58.1213706
  88.0328668  41.3283644  56.5835421  86.8541724  39.6067472  57.1352767
  87.2584795  39.1794228  58.0528979  87.3406574  39.1461478  56.2754616
  85.3799198  39.4397559  57.0627546  84.9928062  39.4616875  58.0814602
  85.0590619  38.5206764  56.5724052  84.8651347  40.6557364  56.2832838
  84.6993841  40.4361426  55.2285783  83.5851120  41.2048480  56.8931651
  83.6027116  41.8654879  57.9334493  82.4648963  40.9245101  56.2322321
  82.4902421  40.4287091  55.3526650  81.1736027  41.3793401  56.7320546
  81.2025399  42.4239053  57.0421278  80.0829846  41.2143827  55.6677839
  80.0598362  40.1746919  55.3412775  78.7240993  41.5978199  56.2353961
  78.7463324  42.6375909  56.5617132  77.9609589  41.4749838  55.4668725
  78.4902894  40.9559210  57.0847490  80.4104542  42.0473441  54.4392869
  81.3640120  41.7224639  54.0230148  79.6262963  41.9190968  53.6931310
  80.4762289  43.0986620  54.7194748  80.8382643  40.5970823  57.9934182
  80.7200781  39.3664038  57.9657012  80.6851387  41.3060887  59.1066102
  80.8057117  42.3086873  59.0877016  80.3914705  40.6701673  60.3829158
  80.9749316  39.7549246  60.4829317  80.7460346  41.6028659  61.5368754
  81.7632160  41.9602243  61.3764506  80.0566478  42.4467638  61.5107589
  80.6576235  40.9194168  62.8893364  79.8896623  39.9428084  63.0210738
  81.3560729  41.3596382  63.8248190  78.9169660  40.2899642  60.4221687
  78.0432889  41.1565713  60.3177148  78.6402517  38.9931262  60.5725690
  79.3781278  38.3051473  60.6207689  77.2597586  38.5284094  60.6001054
  76.6417312  39.0145603  59.8452554  77.2042808  37.0062246  60.3756200
  76.1777755  36.6629075  60.5041476  77.6803981  36.6657562  58.9715945
  78.7070605  37.0083770  58.8424580  77.6367958  35.5866365  58.8242855
  77.0389916  37.1579430  58.2405326  78.0335290  36.2679646  61.4251597
  77.6433784  36.4891034  62.4186295  77.9775337  35.1945798  61.2440263
  79.0721354  36.5927612  61.3626727  76.5617410  38.8946830  61.9004231
  75.3256824  38.8842571  61.9581505  77.3127573  39.2159153  62.9508807
  78.3185958  39.2088131  62.8595690  76.7393937  39.5288941  64.2538495
  75.6951791  39.2180534  64.2869108  77.5056473  38.7888872  65.3552315
  77.4668950  37.7269960  65.1123642  78.5387985  39.1335633  65.3116778
  76.9580630  39.0079946  66.7538745  77.1044831  40.0562484  67.0143084
  75.8914225  38.7843063  66.7354135  77.6399704  38.1314776  67.7853944
  77.8227018  36.9269935  67.5141688  77.9950906  38.6472077  68.8667038
  76.7382287  41.0216418  64.5503490  75.7960731  41.5259634  65.1675522
  77.7756797  41.7392737  64.1224639  78.5320982  41.2850705  63.6309053
  77.8850513  43.1656836  64.3905568  77.5471039  43.3401103  65.4120587
  79.3431274  43.6110956  64.2755550  79.6931044  43.4510787  63.2557458
  79.4209084  44.6695608  64.5239534  79.9563405  43.0306421  64.9648609
  77.0237663  44.0096977  63.4631102  76.9648247  45.2294669  63.6425728
  76.3700435  43.3986999  62.4756279  76.5519675  42.4225681  62.2907773
  75.4420336  44.1033456  61.6066130  75.2873314  45.1182570  61.9728387
  76.0032285  44.1769275  60.1805152  76.1981990  43.1374558  59.9167267
  75.2377979  44.5818132  59.5184853  77.2897426  44.9908275  60.0298323
  78.0104096  44.6520208  60.7741104  77.8769572  44.8154275  58.6407344
  77.1569949  45.1544761  57.8958860  78.7911868  45.4027903  58.5553535
  78.1048601  43.7629132  58.4722879  77.0404540  46.4561566  60.3204226
  76.6736584  46.5674692  61.3407999  77.9704928  47.0130520  60.2064200
  76.2975423  46.8440443  59.6234833  74.0608594  43.4685717  61.5785968
  73.1836051  43.9621553  60.8614392  73.8401540  42.3881601  62.3275108
  74.6141168  41.9412954  62.7980348  72.5171792  41.8238645  62.4942653
  72.5437074  41.2232661  63.4034831  71.8331777  42.6612181  62.6323966
  72.0201997  40.9654048  61.3513251  70.8734028  40.5041873  61.4050123
  72.8338191  40.7298731  60.3251019  73.7651458  41.1206689  60.3221740
  72.4008803  39.9616606  59.1590699  71.3861253  40.2486075  58.8833290
  73.3202484  40.2279394  57.9755270  74.2700661  39.7801691  58.2678406
  72.9280148  39.7083894  57.1012727  73.5352556  41.7018772  57.6374836
  73.9046547  42.2200605  58.5224306  74.5443694  41.8429709  56.5101847
  74.1754284  41.3253974  55.6246911  74.6875514  42.8987332  56.2800419
  75.4950156  41.4061342  56.8160374  72.2188130  42.3693640  57.2683869
  71.5272719  42.2990981  58.1079899  72.3965853  43.4183733  57.0315798
  71.7881080  41.8695042  56.4007854  72.3794210  38.4852143  59.5290968
  73.3599269  37.7602468  59.3563074  71.2367540  38.0370250  60.0522253
  70.4573462  38.6599427  60.2090571  71.1028152  36.6440577  60.4648857
  71.9222390  36.3703908  61.1295287  69.7817537  36.4450462  61.2100024
  68.9408968  36.5673724  60.5272908  69.7499969  35.4482005  61.6497639
  69.5683205  37.4137723  62.3297265  70.4509266  37.5454949  63.3797677
  70.0071403  38.4676484  64.2133285  70.5689513  38.7206538  65.1124700
  68.8656028  38.9392880  63.7426540  68.2961674  39.6553096  64.1706214
  68.5698334  38.2965069  62.5661103  67.6603497  38.5488743  62.0209028
  71.1833697  35.7032138  59.2696645  71.8880880  34.6874707  59.3104443
  70.4627748  36.0231603  58.1940813  69.9193997  36.8744120  58.1794766
  70.3900281  35.1371331  57.0392442  70.3048255  34.1011333  57.3671833
  69.1631580  35.4844373  56.1912196  69.0662183  34.7232318  55.4170955
  68.2887609  35.4541986  56.8413083  69.2649835  36.8543504  55.5437077
  70.2751311  37.5553783  55.7659679  68.3280595  37.2313641  54.8078686
  71.6363077  35.1844805  56.1651054  71.8543714  34.2549581  55.3811531
  72.4545265  36.2341327  56.2755555  72.2722033  36.9839719  56.9271680
  73.6147353  36.3469079  55.3984134  73.2911069  36.4131852  54.3596780
  74.4130054  37.6010939  55.7413306  73.7258965  38.4464606  55.7047837
  74.7803238  37.4758772  56.7599071  75.5788080  37.8591236  54.8136529
  75.4177757  38.6023055  53.6552949  74.4302888  38.9982758  53.4182787
  76.4786442  38.8441294  52.8090064  76.3371491  39.4307256  51.9012697
  77.7226693  38.3393498  53.1157083  78.7842676  38.5768717  52.2749840
  78.5452144  39.1028779  51.5083220  77.9095799  37.5982048  54.2603854
  78.8936757  37.1975786  54.5036023  76.8412997  37.3633483  55.1026091
  76.9825018  36.7796308  56.0122442  74.5072702  35.1167267  55.4868926
  75.1599447  34.7525136  54.5030583  74.5534825  34.4670594  56.6522778
  74.1235211  34.8430025  57.4852840  75.2816752  33.2079457  56.7580939
  76.3263389  33.3573684  56.4852388  75.2216264  32.6856160  58.1933082
  74.1849439  32.5331966  58.4935699  75.7644736  31.7437182  58.2723358
  75.9438098  33.7843648  59.4285163  75.6978507  32.9993972  60.4736136
  74.7190927  32.1713537  55.7955121  75.4713610  31.3963467  55.1934178
  73.3952994  32.1458217  55.6365014  72.8087830  32.8023356  56.1315645
  72.7526775  31.1389493  54.7999531  73.3042372  30.2002181  54.8515743
  71.3240167  30.8940595  55.2891723  70.8108286  31.8552797  55.3173275
  70.8299931  30.2399253  54.5707370  71.2804316  30.2574932  56.6653531
  72.3480632  29.8479149  57.1685443  70.1777470  30.1654292  57.2438182
  72.7449360  31.5376911  53.3276780  73.0990237  30.7331447  52.4602243
  72.3459960  32.7735876  53.0230590  72.0964998  33.4444423  53.7356633
  72.1673205  33.1508422  51.6248844  71.5833118  32.4023300  51.0893824
  71.4651962  34.5166305  51.5249808  71.8591975  35.1746207  52.2995209
  71.7048973  35.1432863  50.1560323  71.3107212  34.4860414  49.3809484
  71.2007781  36.1083201  50.1043189  72.7748170  35.2841784  50.0026685
  69.9661904  34.3451768  51.7895943  69.5634362  33.7516170  50.9688772
  69.8686219  33.7887278  52.7217662  69.1983659  35.6453204  51.8957496
  69.2950895  36.2021487  50.9637159  68.1460334  35.4321242  52.0834805
  69.6002772  36.2392608  52.7166040  73.4954727  33.1476173  50.8793703
  73.5415172  32.8069779  49.6919329  74.5877593  33.5220199  51.5394148
  74.4952091  33.8534002  52.4890046  75.9128361  33.5279506  50.9313224
  75.8398155  33.3251466  49.8628479  76.6354419  34.8681583  51.1502833
  76.6790107  35.0783813  52.2189313  78.0473815  34.8063993  50.5880926
  78.0046098  34.5966564  49.5193180  78.5458533  35.7620188  50.7506288
  78.6049642  34.0162004  51.0908714  75.8469659  36.0079820  50.5016691
  74.8795241  36.0513954  51.0019413  76.3978960  36.9280516  50.6967270
  75.6363786  35.8518786  49.0056792  75.0850697  34.9321980  48.8098583
  75.0692765  36.7023921  48.6273655  76.6034424  35.8088519  48.5046441
  76.7099457  32.3734317  51.5198158  76.7775456  32.2170896  52.7439189
  77.3101730  31.5686275  50.6459392  77.2424111  31.7761187  49.6598078
  78.0253009  30.3683095  51.0505401  77.7874132  30.1205395  52.0850055
  77.6136423  29.1930682  50.1586572  77.9939857  29.4067435  49.1597674
  78.1107828  28.3074447  50.5544125  76.1122568  28.9431053  50.0873665
  75.6387837  29.8372168  49.6817944  75.9401005  28.1039233  49.4133949
  75.5170680  28.6287682  51.4491346  76.0467485  27.7755520  51.8728795
  75.6493832  29.4958197  52.0962928  74.0373122  28.3014371  51.3376527
  73.6125806  28.3117998  52.3414436  73.5642656  29.0771630  50.7355104
  73.7977064  26.9733412  50.7119113  74.2355961  26.2543511  51.2699486
  72.8040269  26.8003157  50.6593439  74.1908210  26.9636713  49.7816068
  79.5381879  30.5285175  50.9991656  80.2563728  29.5900590  51.3614073
  80.0417678  31.6790401  50.5592281  79.4162548  32.4152481  50.2645577
  81.4839577  31.9013456  50.4332222  82.0084581  31.3335140  51.2017051
  81.9912423  31.4530210  49.0630294  81.3905408  31.9034418  48.2728534
  83.0337717  31.7454497  48.9376581  81.9337488  29.9732854  48.8534773
  80.7833219  29.3207690  48.4613926  81.0262436  28.0276989  48.3591008
  80.2374314  27.3375060  48.0599215  82.2927758  27.8147429  48.6688619
  82.7614500  26.9201017  48.6767021  82.8817377  29.0158240  48.9830755
  83.9329742  29.0489888  49.2692627  81.7853852  33.3715641  50.6663248
  81.9725949  34.1474531  49.7212196  81.8409619  33.7993167  51.9270182
  81.5428233  33.0455050  53.1555337  82.4066425  32.4419248  53.4341151
  80.6846388  32.3948718  52.9873235  81.2537203  34.1241855  54.1460830
  81.5040562  33.7790869  55.1492470  80.1965424  34.3866083  54.1059515
  82.1057169  35.2806838  53.7389339  83.0978432  35.1452372  54.1695596
  81.7101328  36.2515442  54.0373345  82.1851578  35.1956204  52.2093289
  81.4533184  35.8386884  51.7204805  83.5773350  35.5370667  51.7026800
  84.4823576  34.6992377  51.6895828  83.7423857  36.7882353  51.2785653
  82.9560862  37.4218996  51.2611834  85.0254336  37.2678822  50.7895633
  85.8285588  36.7654122  51.3286487  85.1917762  36.9886113  49.2901671
  84.9782426  35.9302591  49.1405231  84.4418984  37.5867672  48.7724869
  86.5714062  37.3114469  48.7326732  86.5896980  36.9891598  47.6915693
  86.7011423  38.3926596  48.7801027  87.9205875  36.5126656  49.6244513
  87.6194973  34.7913927  49.2295445  87.6691899  34.6517623  48.1496681
  88.3748194  34.1701553  49.7108480  86.6310249  34.5034848  49.5875007
  85.1318763  38.7593418  51.0696952  84.1257889  39.4550441  51.2251894
  86.3694526  39.2436824  51.1326889  87.1604735  38.6237056  51.0326188
  86.6256666  40.6524295  51.3989577  85.9817889  41.2642783  50.7671652
  86.3458596  40.9982159  52.8620427  86.5080512  42.0684166  52.9903536
  85.3030997  40.7613843  53.0733782  87.2372434  40.2368771  53.8133402
  86.9228665  39.0646273  54.1013134  88.2473257  40.8082331  54.2744857
  88.0675043  40.9666087  51.0320347  88.9172703  40.0756879  50.9617714
  88.3322853  42.2534841  50.8041467  87.6331058  42.9669442  50.9532171
  89.6264696  42.6554597  50.2620772  89.8306975  42.1116964  49.3397368
  89.6217783  44.1513103  49.9557733  89.1079981  44.6520554  50.7763728
  90.6598630  44.4819774  49.9220172  88.9362032  44.4978551  48.6414954
  89.6056657  44.2002750  47.8344224  88.0186027  43.9121362  48.5863159
  88.5345011  46.2473431  48.4640345  90.1227003  47.0029911  48.7936118
  90.8520471  46.6495900  48.0647360  90.0322417  48.0867480  48.7202030
  90.4526213  46.7335830  49.7969426  90.7727733  42.3095878  51.2033702
  91.8740396  41.9899062  50.7429244  90.5461183  42.3676131  52.5171489
  89.6686230  42.6999689  52.8908345  91.6041444  42.0044872  53.4545232
  92.5060008  42.5762806  53.2358760  91.1695313  42.3074206  54.8868069
  90.1597692  41.9243495  55.0342391  91.8517848  41.8054109  55.5728218
  91.1870469  43.7002551  55.1393703  90.9107153  43.8649408  56.0438698
  91.9840383  40.5358281  53.3137066  93.1701146  40.1857248  53.3559861
  90.9916889  39.6582711  53.1564287  90.0234993  39.9417236  53.2050379
  91.2888596  38.2443084  52.9699047  91.9099333  37.8715984  53.7844315
  89.9913197  37.4343484  52.9343944  89.3099384  37.8940328  52.2184963
  90.2619998  35.9944367  52.5238818  90.9429887  35.5339181  53.2396167
  89.3244120  35.4388237  52.5059238  90.7127846  35.9775892  51.5316067
  89.3780795  37.4505832  54.2290036  88.5643646  36.9418155  54.2040261
  92.0951501  38.0166924  51.6975339  93.0650427  37.2502099  51.6973043
  91.7248605  38.6911746  50.6091170  90.8967567  39.2693988  50.6086452
  92.4613398  38.5367012  49.3591417  92.5931975  37.4857548  49.1018006
  91.7209407  39.2560692  48.2155864  91.4834893  40.2714302  48.5330125
  92.5863045  39.3054095  46.9589189  92.8237968  38.2903374  46.6406003
  92.0443849  39.8175449  46.1638458  93.5094867  39.8436240  47.1737653
  90.3909739  38.5465712  47.9410198  90.6246092  37.4991881  47.7499596
  89.7964165  38.6254960  48.8511691  89.6048990  39.1093520  46.7742234
  90.1986721  39.0303426  45.8635693  88.6792834  38.5464722  46.6538019
  89.3704814  40.1566519  46.9647782  93.8890806  39.0419069  49.5195423
  94.8395469  38.4328754  49.0107954  94.0659952  40.1662059  50.2148365
  93.2834346  40.7010996  50.5635298  95.4114456  40.6835342  50.4378176
  95.9229994  40.8170095  49.4846145  95.3413409  42.0338106  51.1472097
  94.6476554  42.6578011  50.5837069  94.9391682  41.8531725  52.1440683
  96.6794199  42.7418938  51.2623612  97.3710734  42.0932631  51.7999432
  97.0620491  42.9278593  50.2588106  96.5421958  44.0601055  52.0037508
  95.8409489  44.6913665  51.4579840  96.1479565  43.8564366  52.9993379
  97.8773253  44.7741067  52.1245836  98.5895977  44.0903778  52.5864097
  98.2189940  45.0312132  51.1219581  97.7739657  46.0101610  52.9448424
  97.4577946  45.7720894  53.8740666  98.6795791  46.4538327  53.0006970
  97.1143256  46.6440335  52.5168475  96.2479162  39.6999755  51.2446304
  97.4209755  39.4645718  50.9276350  95.6640846  39.1148697  52.2913170
  94.7330002  39.3695120  52.5885351  96.3929654  38.1223047  53.0741858
  97.3255409  38.5501735  53.4420587  95.5545035  37.6762868  54.2715143
  94.5717126  37.3704360  53.9127990  96.0483523  36.8275317  54.7446191
  95.4078279  38.7228298  55.2149405  94.8782815  38.4152740  55.9542577
  96.7742702  36.9239165  52.2171202  97.9009889  36.4230892  52.3021543
  95.8474429  36.4504381  51.3807714  94.9144601  36.8365366  51.3568875
  96.1453417  35.3074434  50.5237373  96.4910803  34.4694001  51.1289210
  94.8923760  34.8763475  49.7632931  94.5780453  35.7285939  49.1608219
  95.1857403  34.0567758  49.1072903  93.7393606  34.4288887  50.6485078
  93.5009567  35.2439265  51.3318656  92.8796478  34.2282369  50.0091841
  94.0772140  33.1854196  51.4446683  94.3725902  32.3967024  50.7527312
  94.9085130  33.4126533  52.1120560  92.8850764  32.7209393  52.2618262
  92.5888916  33.5350360  52.9233561  92.0691304  32.4965699  51.5748112
  93.1972227  31.5129696  53.0717322  93.9529856  31.7207905  53.7087037
  92.3793346  31.2395842  53.5974885  93.4712852  30.7583641  52.4589032
  97.2789556  35.6279980  49.5582239  98.1678279  34.7980850  49.3376983
  97.2685269  36.8266714  48.9709613  96.5029790  37.4728850  49.0991938
  98.3494579  37.2050673  48.0653467  98.4768590  36.4373550  47.3021391
  98.0319525  38.5316472  47.3755279  97.4823996  39.0954553  48.1293258
  98.9717034  39.0387053  47.1567580  97.1937022  38.4371986  46.0974160
  96.3046901  37.8400931  46.3004513  96.7777691  39.8206186  45.6289006
  97.6663093  40.4182015  45.4252097  96.1829871  39.7332907  44.7196652
  96.1850575  40.3047036  46.4050804  97.9561695  37.7121477  45.0004507
  98.2014323  36.7036240  45.3333553  97.3394597  37.6581611  44.1033132
  98.8751654  38.2539791  44.7769235  99.6784265  37.2950905  48.8037235
 100.7113202  36.8464938  48.2917503  99.6774235  37.8714297  50.0069995
  98.8473720  38.3028028  50.3878290 100.9131158  37.9442857  50.7817192
 101.6934628  38.4235751  50.1905852 100.6943062  38.7606784  52.0555686
  99.7583857  38.4207245  52.4989460 101.5194396  38.5320529  52.7300946
 100.6295898  40.2630128  51.8250537 101.4993596  40.5494293  51.2338119
  99.7214593  40.4754577  51.2609035 100.6164513  41.0532027  53.1203221
 100.4320790  40.4391138  54.1919529 100.7915211  42.2885566  53.0670922
 101.4313187  36.5546698  51.1274320 102.6414754  36.3683491  51.2953434
 100.5385136  35.5756749  51.2426065  99.5556338  35.8015407  51.1875497
 100.9155518  34.1944108  51.5052784 101.8737896  34.2035610  52.0246973
  99.8738141  33.5305108  52.4114569  98.9108381  33.5057021  51.9013964
 100.1883199  32.5127704  52.6425216  99.7800635  34.1000426  53.3360884
 101.0844764  33.3741415  50.2320990 101.3487502  32.1708278  50.3195145
 100.9382642  33.9889793  49.0584715 100.6484786  34.9564073  49.0440915
 101.1049237  33.2963098  47.7818049 100.8317820  33.9643484  46.9649713
 102.5549558  32.8537401  47.5867738 102.8069102  32.1982233  48.4203899
 102.5972170  32.2889460  46.6554727 103.5489089  34.0029462  47.5277527
 104.4301329  33.6640873  46.9830328 103.0842475  34.8284322  46.9885267
 103.9597971  34.4713561  48.9143616 103.2829344  35.2622906  49.2374381
 103.8941380  33.6322557  49.6069646 105.3228257  34.9866907  48.9331050
 105.8661678  34.8773633  48.0887555 105.8868825  35.5796464  49.9759091
 105.2311893  35.7507030  51.1129082 104.2788029  35.4251402  51.1969869
 105.6862682  36.2060039  51.8911780 107.1399859  36.0151754  49.8767352
 107.6476774  35.8908543  49.0125051 107.5779044  36.4681509  50.6661269
 100.1594378  32.1031444  47.6667671 100.5178556  31.0507991  47.1357163
  98.9362160  32.2695383  48.1690066  98.6927984  33.1220866  48.6527510
  97.9356241  31.2134264  48.0843113  98.3913984  30.2494347  48.3103400
  96.8117195  31.4709461  49.0905917  96.3048634  32.3839236  48.7780728
  96.1209668  30.6306068  49.0213768  97.2850151  31.6209163  50.5290513
  98.0802562  32.3662824  50.5400910  96.4434652  31.9794295  51.1218087
  97.8008556  30.3238438  51.1179022  97.6921225  29.2767751  50.4444430
  98.3140119  30.3500286  52.2557537  97.3452341  31.0796373  46.6868403
  96.7028027  30.0655925  46.3961102  97.5423968  32.0746245  45.8221273
  98.1017602  32.8647082  46.1101890  96.9547884  32.0931829  44.4863695
  96.0737280  31.4517206  44.4674465  96.5373762  33.5074439  44.0891607
  97.4004109  34.1526540  44.2533996  96.3021311  33.4800114  43.0252025
  95.3551700  34.0472711  44.8506690  94.0639504  33.6641730  44.5227105
  93.9175862  32.9649026  43.6994864  92.9766272  34.1500045  45.2154682
  91.9663936  33.8399395  44.9482799  93.1733737  35.0357816  46.2490700
  92.0903208  35.5258048  46.9407343  91.2532894  35.1838163  46.6182099
  94.4475516  35.4304338  46.5959251  94.6018889  36.1293363  47.4180053
  95.5266420  34.9385446  45.8999230  96.5363077  35.2481552  46.1697684
  97.9550348  31.5444062  43.4774354  98.9596243  32.1953745  43.1723349
  97.6780168  30.3457144  42.9611467  96.8563337  29.8299018  43.2419914
  98.5932956  29.7240639  42.0132283  99.6022542  29.7088573  42.4253819
  98.1603343  28.2860499  41.7282825  97.1912794  28.3371586  41.2318756
  98.8958401  27.8609022  41.0453618  98.0502994  27.4078863  42.9650210
  99.0432589  27.2823287  43.3967241  97.3996185  27.8991492  43.6884692
  97.4777779  26.0493761  42.6117592  98.1069817  25.5775158  41.8570742
  97.4521902  25.4249888  43.5048354  96.1224584  26.1661380  42.0839876
  95.4768726  26.7203457  42.6282047  95.6856692  25.6028671  40.9633328
  96.4757539  24.8655587  40.1979757  97.4392923  24.7205846  40.4638259
  96.1111659  24.4515938  39.3519212  94.4201673  25.7888465  40.5980721
  93.8095462  26.3521472  41.1724712  94.0757438  25.3658990  39.7480211
  98.6659104  30.5193804  40.7169826  99.7133806  30.5422712  40.0601057
  97.5688738  31.1722469  40.3365605  96.7185503  31.0685426  40.8716257
  97.5324539  31.9926718  39.1360332  98.4891124  32.5016370  39.0183124
  97.2708015  31.1467782  37.8856769  97.4726208  31.7673544  37.0126057
  97.9638447  30.3056135  37.9009452  95.8512721  30.6288804  37.8184455
  94.9596831  31.3964109  37.4041206  95.6278695  29.4546002  38.1786443
  96.4599358  33.0597863  39.3063228  95.5829930  32.9555240  40.1681707
  96.5430421  34.0943301  38.4679235  97.2383789  34.1039624  37.7354528
  95.6809133  35.2619682  38.6187888  95.7954962  35.6250401  39.6401353
  96.1230850  36.3637963  37.6562770  96.0055475  36.0184170  36.6291461
  95.5101208  37.2513872  37.8129858  97.1693785  36.6084926  37.8392877
  94.2055051  34.9551119  38.3942455  93.3532084  35.7296104  38.8442606
  93.8798397  33.8609443  37.7054543  94.5803635  33.2478123  37.3137468
  92.4756537  33.5613353  37.4466201  91.9937809  34.4158561  36.9715496
  92.3584516  32.3548748  36.5158818  93.1152587  32.4696392  35.7398848
  92.5777728  31.4663999  37.1080055  90.9908673  32.2083878  35.8711889
  90.9907409  31.3078733  35.2570436  90.2382733  32.1137938  36.6539764
  90.6318595  33.3938022  34.9939164  91.5075790  34.0431260  34.4215636
  89.3408155  33.6840441  34.8883881  89.0465754  34.4632098  34.3170519
  88.6587107  33.1243716  35.3799172  91.7193337  33.3120179  38.7457209
  90.5628657  33.7276817  38.8902519  92.3554729  32.6367873  39.7043363
  93.2527826  32.2039113  39.5383453  91.7321090  32.4572631  41.0110262
  90.7605746  31.9762807  40.8975539  92.6132267  31.5758523  41.8972522
  93.5676792  32.0897522  42.0113862  92.1213156  31.5044774  42.8673188
  92.8528577  30.1785218  41.3467082  91.8823648  29.6978220  41.2235329
  93.3338638  30.2794023  40.3737974  93.7250898  29.3315037  42.2569172
  94.5855317  29.9041696  42.9572447  93.5508655  28.0954415  42.2704888
  91.4742881  33.7995875  41.6829970  90.4217443  34.0019606  42.2983228
  92.4258857  34.7297553  41.5791515  93.3052661  34.5279235  41.1252205
  92.2424035  36.0494887  42.1777165  92.0098691  35.9562416  43.2385331
  93.5338909  36.8565419  42.0293548  94.2465126  36.5497058  42.7949404
  93.9701158  36.6978258  41.0431413  93.3491554  38.3374758  42.1837196
  93.0488530  39.1317476  41.0888808  92.9441420  38.6676007  40.1082162
  92.8827641  40.4929510  41.2283829  92.6447424  41.1072347  40.3599925
  93.0182014  41.0765976  42.4684778  92.8870063  42.1525974  42.5829866
  93.3201651  40.2980583  43.5660968  93.4275944  40.7587050  44.5481170
  93.4859845  38.9383837  43.4213421  93.7278886  38.3234980  44.2882318
  91.0647510  36.7815374  41.5427137  90.2363051  37.3824135  42.2415830
  90.9820781  36.7517777  40.2121028  91.6823310  36.2957353  39.6448545
  89.8599036  37.3881524  39.5422188  89.8527330  38.4458575  39.8054825
  89.9932709  37.2831570  38.4655162  88.5335441  36.7731562  39.9367452
  87.5508683  37.4841684  40.1746924  88.4868437  35.4411283  40.0182669
  89.2723656  34.8699019  39.7412199  87.2686039  34.7740400  40.4570035
  86.4447413  35.0701389  39.8076383  87.4381087  33.2577867  40.3702447
  88.2537017  32.9449504  41.0221969  86.5152614  32.7699565  40.6840517
  87.6664395  32.9754097  39.3425154  86.9017039  35.1889028  41.8740311
  85.7267876  35.4052881  42.1785425  87.8971736  35.3087080  42.7539407
  88.8496392  35.0854197  42.5028413  87.6202273  35.7092731  44.1290648
  86.8739923  35.0468792  44.5677752  88.8964697  35.6284141  44.9649106
  89.7123915  36.0187089  44.3566009  88.7680570  36.2570094  45.8460907
  89.2213132  34.2149678  45.3969964  88.4920977  33.2848722  44.9931291
  90.2021835  34.0331372  46.1491222  87.0324555  37.1135069  44.1896431
  86.0601379  37.3571295  44.9124270  87.6101345  38.0550875  43.4429263
  88.4352144  37.8616677  42.8934435  87.1020969  39.4272289  43.4723672
  86.9966994  39.7988572  44.4916233  88.0481812  40.3653063  42.7022996
  88.2782987  39.9219212  41.7335092  87.3949837  41.7207712  42.4959789
  87.1649767  42.1650133  43.4644037  88.0760398  42.3735306  41.9499312
  86.4744593  41.5979822  41.9253132  89.3650576  40.5147805  43.4485099
  89.8381417  39.5381470  43.5508844  90.0247275  41.1809793  42.8925293
  89.1773859  40.9324860  44.4376521  85.6842148  39.4798285  42.9152337
  84.7863523  40.1246144  43.4848039  85.4594075  38.8138740  41.7806588
  86.1998181  38.3547718  41.2696630  84.1216910  38.8123479  41.2074659
  83.7658942  39.8361113  41.0916366  84.1358991  38.1419318  39.8341072
  84.7649972  37.2544685  39.9029825  83.1141475  37.8449069  39.5976758
  84.6645187  39.0535113  38.7386811  83.9782361  39.8946702  38.6408619
  85.6438570  39.4183916  39.0482952  84.7883287  38.3450981  37.4044207
  85.5370395  37.5568040  37.4826734  83.8265130  37.9068179  37.1381116
  85.1896760  39.2674456  36.3489301  85.0788346  40.2536851  36.5364004
  85.6832382  38.8979446  35.1742968  85.8522854  37.6219517  34.8644937
  85.6024629  36.9060657  35.5317238  86.2302948  37.3702768  33.9623472
  86.0166365  39.8309665  34.2885560  85.8918945  40.8069556  34.5165575
  86.3932176  39.5597602  33.3914871  83.1237606  38.1380332  42.1359704
  81.9626728  38.5473689  42.1924638  83.5549670  37.1192620  42.8813665
  84.4700790  36.7156829  42.7406779  82.6845666  36.5248708  43.8899855
  81.7308125  36.2444344  43.4429868  83.3390856  35.2721519  44.4697797
  83.4156535  34.6002040  43.6149566  84.3388743  35.5341349  44.8160274
  82.5754670  34.5768732  45.5973834  82.3857060  35.2962298  46.3940124
  81.2545098  34.0296138  45.0845744  81.4434905  33.3097923  44.2881811
  80.7234323  33.5378735  45.8995891  80.6473758  34.8479193  44.6974507
  83.4189103  33.4695754  46.2103792  84.3377047  33.8938105  46.6152752
  82.8588131  32.9863564  47.0109364  83.6655357  32.7338742  45.4448607
  82.3755692  37.5244278  44.9952200  81.2405380  37.5933934  45.4820925
  83.3780828  38.2991686  45.4099071  84.3128244  38.1874720  45.0440092
  83.1558504  39.3031650  46.4457290  82.8195830  38.8234719  47.3649231
  84.4556134  40.0538844  46.7338429  85.2046502  39.3066815  46.9960087
  84.7482296  40.5522163  45.8096454  84.3510087  41.0784668  47.8497707
  83.6150799  41.8289896  47.5612829  84.0159632  40.5706580  48.7541913
  85.9267803  41.8885004  48.1746823  86.0567689  42.9458109  46.7377584
  85.2093750  43.6309192  46.7122799  86.9837148  43.5169937  46.7889653
  86.0565409  42.3347286  45.8351623  82.0673058  40.2777205  46.0275171
  81.2011092  40.6397243  46.8320459  82.0992898  40.7208823  44.7700296
  82.8441492  40.4782546  44.1325223  81.0689071  41.6528579  44.3105485
  80.8840183  42.4082522  45.0742859  81.5222295  42.3531412  43.0310756
  81.8916972  41.6163470  42.3178245  80.6937308  42.9046585  42.5866450
  82.6340967  43.3430730  43.2417710  82.4778991  44.4012592  44.1167299
  81.5371536  44.5109655  44.6562318  83.4944900  45.3122628  44.3112460
  83.3577795  46.1415668  45.0052675  84.6781503  45.1748604  43.6311881
  85.4835793  45.8930227  43.7848989  84.8474051  44.1295111  42.7549166
  85.7866919  44.0197177  42.2128965  83.8293229  43.2198180  42.5614295
  83.9631838  42.3919873  41.8650980  79.7277643  40.9477270  44.0977964
  78.6647778  41.4941624  44.4337980  79.7551018  39.7401636  43.5343700
  80.6279691  39.3083956  43.2664549  78.5172089  39.0372966  43.2341630
  77.8495157  39.6852549  42.6663295  78.8086970  37.7895326  42.4040789
  79.4004549  38.0766440  41.5348902  79.3769417  37.0872022  43.0139395
  77.6065360  37.1761586  41.9746385  77.8132950  36.3954493  41.4556553
  77.7674852  38.6626619  44.4993073  76.5380193  38.5878647  44.4814181
  78.4771801  38.4115876  45.6006355  79.4861390  38.3696998  45.5820133
  77.7968326  38.1321551  46.8596580  77.1000875  37.3038023  46.7312941
  78.8150079  37.7516615  47.9324290  79.5935129  38.5139709  47.9626548
  78.3088229  37.7115819  48.8969342  79.4623880  36.4096561  47.6700600
  78.9639529  35.6120076  46.8780598  80.5805823  36.1529137  48.3356506
  81.0550369  35.2718289  48.1989679  80.9524485  36.8396807  48.9760938
  76.9746634  39.3348097  47.3017605  75.8108028  39.1999120  47.6984131
  77.5695358  40.5264493  47.2342556  78.5452338  40.6149020  46.9887176
  76.8305263  41.7349756  47.5736596  76.4457973  41.6623866  48.5909175
  77.7451273  42.9547953  47.4836715  78.5058319  42.9215519  48.2636220
  78.2280595  43.0002735  46.5075525  76.8854099  44.5271627  47.6901459
  77.9635133  45.2940083  47.5539871  75.6236984  41.9069452  46.6631044
  74.5284833  42.2381549  47.1273564  75.8057276  41.6874509  45.3581168
  76.7154377  41.4818634  44.9704822  74.6703634  41.7929259  44.4433888
  74.2326569  42.7888235  44.5119478  75.1197706  41.5547339  43.0006318
  75.7173180  40.6433009  43.0186961  74.2180859  41.3858072  42.4119652
  75.9247763  42.6721199  42.3788992  75.7148133  43.9954820  42.7342881
  74.9548269  44.2280173  43.4802422  76.4485627  45.0083841  42.1608118
  76.2759491  46.0454928  42.4484086  77.4028050  44.7060783  41.2183587
  78.1407943  45.7079088  40.6427750  77.9093068  46.5800383  40.9704993
  77.6280256  43.4042550  40.8459908  78.3847758  43.1654760  40.0987197
  76.8908500  42.3983956  41.4230254  77.0605900  41.3620164  41.1311237
  73.5700252  40.8033626  44.8096336  72.3860808  41.1549691  44.8482132
  73.9472583  39.5557566  45.0870185  74.9256405  39.3051841  45.0960212
  72.9630071  38.5063764  45.3206181  72.2115310  38.5074368  44.5310728
  73.6653233  37.1479177  45.3249799  74.1428845  37.0446376  44.3506248
  74.4298775  37.1986286  46.1002123  72.7674926  35.9498807  45.5777018
  72.2752368  36.0681154  46.5430026  72.0149698  35.8936184  44.7911611
  73.5923312  34.6709457  45.5825491  73.9882885  34.5183274  44.5785449
  74.4178956  34.8018554  46.2821244  72.7712136  33.4634210  45.9905871
  72.3346093  33.6576702  46.9702526  71.9747691  33.3242929  45.2595476
  73.6062840  32.2318113  46.0549460  74.3440905  32.3603638  46.7326005
  73.0304072  31.4485401  46.3287199  74.0106009  32.0513985  45.1471585
  72.2057805  38.7288169  46.6220912  70.9921903  38.5048074  46.6840871
  72.8993456  39.1681178  47.6721656  73.8864833  39.3721574  47.6087129
  72.2447268  39.3159345  48.9666440  71.6589512  38.4245171  49.1910123
  73.2879714  39.5045160  50.0672556  73.9580010  38.6462210  50.0173638
  73.8478721  40.4148237  49.8528935  72.6889429  39.5960571  51.4527328
  72.4133318  38.4527475  52.1914883  72.6376565  37.4788822  51.7563281
  71.8653037  38.5340089  53.4550340  71.6605539  37.6286259  54.0264017
  71.5738274  39.7676235  53.9921919  71.0256466  39.8539839  55.2499950
  70.8896018  38.9964636  55.6595684  71.8311649  40.9171810  53.2782767
  71.6025627  41.8941249  53.7042135  72.3821884  40.8264203  52.0156201
  72.5836743  41.7314690  51.4425665  71.2736733  40.4879027  48.9638681
  70.0804505  40.3241154  49.2430079  71.7664300  41.6779458  48.6542149
  72.7086721  41.7808878  48.3053853  70.9689240  42.8716852  48.8392508
  70.3742496  42.7898832  49.7490695  71.8815876  44.0840619  48.9619452
  72.5969714  44.0702089  48.1396719  71.2754598  44.9878939  48.9003267
  72.6426443  44.1025251  50.2618824  73.8318677  43.7907763  50.3006947
  71.9621870  44.4691531  51.3403702  72.4231731  44.4992768  52.2385262
  70.9863761  44.7164164  51.2581828  70.0019042  43.0779414  47.6805877
  70.2122268  42.5637444  46.5800379  68.9262131  43.8266734  47.9038254
  68.3227172  44.1595621  49.2038545  68.7926235  45.0573828  49.6053597
  68.4700867  43.3317630  49.8974899  66.8872455  44.3679028  48.8650564
  66.4469643  45.0776514  49.5654194  66.3562916  43.4181211  48.9291194
  66.8677578  44.8931511  47.4770375  66.9659358  45.9768741  47.5403191
  65.9706158  44.6425628  46.9109620  68.1054196  44.2958262  46.7894257
  67.8644134  43.4491815  46.1466139  68.8475844  45.3461189  45.9842359
  69.8374595  45.9214855  46.4595795  68.4050836  45.6252571  44.7572347
  67.2119257  45.1001415  44.0729702  66.3449161  45.2006847  44.7258758
  67.3647068  44.0481127  43.8321542  67.1121685  45.9622002  42.8423096
  66.4644527  46.8147469  43.0465828  66.6953786  45.3783077  42.0216654
  68.4996670  46.3964651  42.5333064  68.4800157  47.3578302  42.0199938
  69.0545080  45.6757279  41.9326493  69.1628961  46.5528185  43.9084768
  70.2020191  46.2240256  43.8937554  69.0929021  47.9842022  44.4088245
  70.0003173  48.7775936  44.1284594  68.0340961  48.3328738  45.1416812
  67.2928075  47.6684002  45.3121670  67.8780629  49.6900865  45.6545557
  67.9947344  50.4125470  44.8467576  66.4857921  49.8567513  46.2613102
  66.1488655  48.8830561  46.6169749  66.5722978  50.5412145  47.1051863
  65.4817455  50.4062175  45.2659317  65.7658388  51.4578635  44.6552224
  64.4137532  49.7836459  45.0892742  68.9507501  50.0508207  46.6777296
  69.4204781  51.1932750  46.6975214  69.3450256  49.1159031  47.5436649
  69.0150740  48.1631831  47.4840326  70.2536424  49.4666458  48.6304161
  69.7565092  50.1586910  49.3101448  70.6774727  48.2258342  49.4195114
  71.0164753  47.4467216  48.7367523  71.4834984  48.4813551  50.1073571
  69.5842801  47.6251524  50.2454474  69.8370315  46.8978270  51.3901970
  68.6937218  46.4912029  51.9119391  68.6804641  45.8995595  52.8272977
  67.7084958  46.9253400  51.1460862  66.7229917  46.7644884  51.2977707
  68.2383493  47.6383837  50.0982837  67.5789835  48.0824523  49.3525351
  71.4847486  50.1564133  48.0599748  72.0382361  49.7288754  47.0441422
  71.9172123  51.2333859  48.7203854  71.4896930  51.5401728  49.5824808
  73.0006596  52.0342308  48.1628162  72.7751180  52.3195563  47.1352854
  73.1625693  53.3005713  48.9956025  72.5351259  53.1973187  49.8809006
  74.2078187  53.3671392  49.2974675  72.7755756  54.5494530  48.2496110
  73.0950246  55.4137730  48.8318515  73.2928599  54.5470312  47.2901787
  71.2766360  54.6227792  48.0160360  70.8002542  54.0395208  47.0199119
  70.5743071  55.2596217  48.8295129  74.3060454  51.2541866  48.1111534
  75.2239243  51.6143886  47.3422576  74.3933087  50.1560353  48.8634697
  73.6401078  49.8256590  49.4496772  75.6542951  49.4408393  48.8961657
  76.4906978  50.0937423  49.1456598  75.6171502  48.2811367  49.9071015
  75.3909358  48.6835786  50.8945056  74.5624405  47.2624964  49.5232939
  74.7882506  46.8592420  48.5361280  74.5558704  46.4529165  50.2531142
  73.5836355  47.7417450  49.5042338  76.9884039  47.6394264  50.0137838
  77.7127509  48.3822528  50.3478981  76.9517744  46.8199213  50.7315368
  77.2868929  47.2545897  49.0386398  75.9269570  48.9695383  47.4882989
  77.0765379  48.9120758  47.0438173  74.8678059  48.5503444  46.7914335
  73.9387477  48.5634204  47.1873870  75.0409404  47.9975250  45.4597574
  75.7539329  47.1731243  45.4495419  73.6998441  47.4939108  44.9029995
  72.9019518  48.1480077  45.2546021  73.7209673  47.4929824  43.3867864
  74.5183640  46.8386963  43.0344099  72.7634850  47.1335454  43.0097807
  73.8962603  48.5060389  43.0247223  73.3971244  46.1076553  45.4385987
  73.3407308  46.1422566  46.5265898  72.4445822  45.7623189  45.0367211
  74.1881917  45.4206811  45.1379663  75.6563211  49.0671499  44.5774116
  76.4861451  48.7762759  43.7151110  75.1504354  50.3001045  44.6871233
  74.3716582  50.4908038  45.3013213  75.6815893  51.3955540  43.8830586
  75.5023987  51.2076047  42.8244440  75.0109730  52.7147081  44.2652396
  75.1893100  52.9211914  45.3205407  75.4264237  53.5221511  43.6622995
  73.9382406  52.6429035  44.0858279  77.1864619  51.4810747  44.0774616
  77.9607587  51.5912578  43.1118027  77.6211398  51.3225052  45.3300561
  76.9899321  51.1687147  46.1033766  79.0507344  51.4219913  45.6123464
  79.4645227  52.3089487  45.1325704  79.2825822  51.5287731  47.1193531
  78.9302869  50.5964886  47.5607518  80.3586918  51.6170234  47.2686853
  78.5804772  52.7023087  47.7861280  79.2018987  53.5898106  47.6666439
  77.6233431  52.8599617  47.2889942  78.2954224  52.4107659  49.5410808
  79.9208656  52.7413754  50.2112813  80.2070684  53.7678436  49.9820435
  79.9039351  52.6022276  51.2922308  80.6433495  52.0557724  49.7684869
  79.7941083  50.2196961  45.0458849  80.9019358  50.3543923  44.5119288
  79.2025881  49.0337746  45.1721865  78.3373268  48.9379860  45.6842869
  79.8159503  47.8326301  44.6218696  80.8178778  47.7145584  45.0345432
  78.9856658  46.6070064  44.9978858  77.9822338  46.7063347  44.5839314
  79.4571909  45.7105861  44.5951514  78.9242074  46.5282045  46.0832946
  79.9568940  47.9378986  43.1100461  80.9831431  47.5448015  42.5498376
  78.9325161  48.4575287  42.4312453  78.0694331  48.7014666  42.8956604
  79.0128770  48.6316125  40.9859661  79.2481251  47.6792645  40.5107918
  77.6786188  49.1358633  40.4354841  77.3513656  49.9546167  41.0763019
  77.8639854  49.5138556  39.4300682  76.5988285  48.0717962  40.3841406
  76.8344149  47.3914441  39.5657758  76.6185144  47.5255425  41.3271790
  75.2169618  48.6607242  40.1699252  75.0104436  49.3909572  40.9523629
  75.1803141  49.1511089  39.1971563  74.1892110  47.6287091  40.2114825
  74.4972153  46.6736091  40.0973916  72.8938887  47.8600165  40.3837300
  72.4217761  49.0874496  40.5163742  73.0542278  49.8743790  40.4872711
  71.4307543  49.2327591  40.6462229  72.0524139  46.8302667  40.4270493
  72.4054754  45.8890723  40.3290660  71.0644631  46.9945182  40.5577151
  80.1361535  49.5892353  40.6353301  80.8876465  49.3574038  39.6824799
  80.3073255  50.6388082  41.4378672  79.7019271  50.8180662  42.2261937
  81.3553686  51.6068384  41.1369565  81.2705591  51.9483736  40.1053266
  81.2141162  52.8140291  42.0644163  80.2478352  53.2619888  41.8326141
  81.1952802  52.4154622  43.0787583  82.2976151  53.8672709  41.9561163
  82.2790877  54.4539962  42.8745448  83.2532380  53.3491642  41.8757884
  82.1212520  54.7856043  40.7682304  82.0669210  54.1870141  39.8589248
  81.1961804  55.3497146  40.8870647  83.2933888  55.7494960  40.6708796
  83.0660974  56.6144876  41.2939596  84.1752895  55.2422399  41.0620849
  83.5566764  56.1973211  39.2800847  82.7397591  56.6677611  38.9175493
  84.3416420  56.8328456  39.2739536  83.7677308  55.3959928  38.7026523
  82.7173208  50.9292631  41.2719441  83.5697691  51.0032562  40.3694170
  82.9326232  50.2546692  42.4021693  82.2118352  50.1634499  43.1037696
  84.2374640  49.6716943  42.6740438  85.0129753  50.4281463  42.5537865
  84.2946721  49.1371454  44.1033019  83.9351434  49.9718511  44.7050532
  83.6081351  48.2963260  44.2022450  85.6836322  48.7204595  44.5885069
  86.0445938  47.9117156  43.9531008  86.6604254  49.8816461  44.5330918
  86.3003490  50.6906553  45.1686608  87.6380608  49.5518129  44.8845739
  86.7450630  50.2372251  43.5062031  85.6074631  48.1432383  45.9954358
  84.9562981  47.2691196  45.9953326  86.6052592  47.8523243  46.3238763
  85.2062272  48.8944727  46.6756972  84.5404869  48.5578112  41.6833861
  85.6875473  48.3942904  41.2614721  83.5243262  47.7802881  41.2961947
  82.6044371  47.8823167  41.7005381  83.7339711  46.7247590  40.3145571
  84.5994087  46.1256314  40.5976880  82.5115848  45.8107362  40.2367164
  82.2890403  45.4742211  41.2493026  81.6798800  46.4070770  39.8615569
  82.7166531  44.6017737  39.3340234  82.9344257  44.9494910  38.3241875
  83.5646313  44.0305378  39.7118122  81.5052188  43.6932503  39.2825420
  80.4569372  44.0051871  39.8461510  81.6427105  42.5647811  38.5992191
  80.8672041  41.9212594  38.5316090  82.5222787  42.3542031  38.1496436
  84.0355921  47.3023037  38.9433679  84.8077023  46.7113769  38.1851750
  83.4368982  48.4443366  38.5990247  82.7096069  48.8573200  39.1652327
  83.7933686  49.0991652  37.3468932  83.6378453  48.4159232  36.5119727
  82.9227392  50.3370002  37.1336760  83.0225004  50.9734600  38.0129176
  83.3015095  50.8651236  36.2586223  81.4613525  49.9928664  36.9225033
  81.1513622  48.7972693  36.7393081  80.6227822  50.9180586  36.9410547
  85.2676407  49.4722043  37.3533527  85.9907678  49.2295380  36.3780531
  85.7371499  50.0468018  38.4622985  85.1293211  50.3142475  39.2232954
  87.1596534  50.3776389  38.5611755  87.4982107  50.9832543  37.7205162
  87.4424002  51.1451782  39.8660812  87.0943452  50.5507690  40.7108502
  88.9344630  51.4099995  40.0128061  89.2831789  52.0047943  39.1685802
  89.1181670  51.9531579  40.9398079  89.4717967  50.4619112  40.0352249
  86.6617485  52.4476420  39.8962754  85.5946649  52.2337619  39.8355302
  86.8733342  52.9772092  40.8251940  86.9561936  53.0680296  39.0497991
  88.0075123  49.1120668  38.4647831  89.0283031  49.0731687  37.7594979
  87.5991053  48.0578114  39.1717332  86.7575291  48.1007495  39.7285143
  88.3858796  46.8309296  39.2018703  89.4045303  47.0520503  39.5205481
  87.7742416  45.8305206  40.1812736  87.9487355  46.1650831  41.2038776
  86.7024975  45.7285372  40.0107920  88.3584636  44.4537154  40.0747924
  89.6093498  44.1755410  40.5974966  90.1678928  44.9695653  41.0931326
  90.1510544  42.9098792  40.4967981  91.1352820  42.7022391  40.9166580
  89.4469873  41.9093548  39.8653405  89.8724514  40.9091810  39.7832879
  88.2022696  42.1741645  39.3365261  87.6427510  41.3834272  38.8367525
  87.6645111  43.4400438  39.4397508  86.6816823  43.6507125  39.0181275
  88.4873771  46.2091795  37.8182066  89.5475445  45.7063639  37.4381215
  87.3907277  46.2089757  37.0611148  86.5030286  46.5281017  37.4220138
  87.4357380  45.6836425  35.7011776  87.8949556  44.6950999  35.6998265
  86.0221366  45.5661931  35.1325980  85.5322524  46.5275725  35.2870729
  86.1199565  45.3764336  34.0637095  85.1890849  44.4658555  35.7677758
  85.2351400  44.5971247  36.8488623  84.1586886  44.5819640  35.4317675
  85.6847062  43.0810209  35.4061095  86.6143903  42.9780355  34.5794720
  85.1419350  42.0935527  35.9431103  88.2999133  46.5585590  34.8044150
  89.1039098  46.0462585  34.0185423  88.1504508  47.8829339  34.9060724
  87.4384409  48.2931592  35.4933171  88.9931971  48.7735617  34.1166455
  88.8117291  48.6125561  33.0539857  88.6774954  50.2327777  34.4509386
  88.6256984  50.3091253  35.5370267  89.5100287  50.8332548  34.0843110
  87.3823140  50.7417392  33.8461351  87.4950747  50.7585981  32.7621141
  86.5841285  50.0506968  34.1171747  86.9557391  52.3959213  34.4235339
  85.2653154  52.5288908  33.8481863  84.6638313  51.7405871  34.3008375
  84.8605660  53.5010243  34.1296732  85.2410646  52.4261189  32.7633125
  90.4699373  48.4881567  34.3568383  91.2898667  48.5996497  33.4381468
  90.8291718  48.1153261  35.5854020  90.1680799  48.0855905  36.3484044
  92.2280298  47.8030553  35.8684152  92.8790478  48.4756921  35.3099939
  92.5165541  47.9710107  37.3611900  91.8649790  47.2769792  37.8921037
  93.5565210  47.6853585  37.5192143  92.2929120  49.3776082  37.8871478
  91.2484804  49.6444488  37.7257177  92.5082570  49.3848527  38.9556402
  93.1876505  50.3852853  37.1833787  94.1995553  49.9839004  37.1282626
  92.8086173  50.5534080  36.1753271  93.2292839  51.6632396  37.8863584
  93.9132181  51.7535744  38.6240393  92.4443283  52.6981690  37.6213022
  91.5236929  52.6462396  36.6701136  91.4092148  51.8018280  36.1279293
  90.9405328  53.4513001  36.4915041  92.5803496  53.8151171  38.3308339
  93.2764864  53.8643316  39.0609514  91.9868640  54.6088327  38.1361830
  92.6073190  46.3930383  35.4159101  93.6580955  46.1969437  34.7948871
  91.7677656  45.4001922  35.7143205  90.8750047  45.5983512  36.1430516
  92.1299786  44.0057503  35.4834972  93.1588922  43.8308380  35.7978883
  91.2111884  43.0851567  36.2854293  91.2613905  43.3417505  37.3436063
  90.1820972  43.1773013  35.9381821  91.5718539  41.6329647  36.1783781
  92.7818625  41.1697830  36.6617082  93.4740142  41.8732208  37.1245269
  93.1177106  39.8341896  36.5635941  94.0738610  39.4826522  36.9512775
  92.2435872  38.9451391  35.9752112  92.5057576  37.8901425  35.8955327
  91.0342094  39.3941274  35.4865755  90.3401797  38.6940472  35.0214834
  90.7026544  40.7321218  35.5868815  89.7484560  41.0877820  35.1981514
  92.0745782  43.6167429  34.0153242  92.7362706  42.6503750  33.6218611
  91.3062018  44.3345648  33.1946881  90.7009687  45.0655102  33.5403920
  91.2826760  44.0350117  31.7695726  90.9576598  43.0032486  31.6356751
  90.2966818  44.9546290  31.0510105  90.6138172  45.9908481  31.1683775
  90.2691339  44.7014548  29.9911783  89.3026482  44.8286083  31.4800970
  92.6642974  44.1663468  31.1478633  92.9138312  43.5925824  30.0818420
  93.5663584  44.9049169  31.7934399  93.2797116  45.3807171  32.6369724
  94.9232152  45.1087692  31.3146186  94.9648318  44.9780281  30.2332889
  95.3797744  46.5278554  31.6530048  95.4925676  46.5853613  32.7356266
  96.3490808  46.6810784  31.1785916  94.4121374  47.6036309  31.1868464
  94.2951673  47.5160718  30.1066834  93.4503470  47.4339723  31.6708684
  94.9119919  48.9936332  31.5297765  95.0301725  49.0634510  32.6110987
  95.8784908  49.1438474  31.0487205  93.9403657  50.0608063  31.0571308
  92.9368726  49.7676566  31.3656198  94.2077298  51.0013904  31.5387086
  93.9741582  50.2334817  29.5782301  93.7260227  49.3621436  29.1318015
  93.3155422  50.9498573  29.3078027  94.9038250  50.5055378  29.2922158
  95.9077136  44.0926204  31.8886489  97.1187099  44.3417620  31.8744615
  95.4187543  42.9647254  32.3928688  94.4237358  42.7976625  32.4389935
  96.3137594  41.9481819  32.9222582  96.9544824  42.3834684  33.6891343
  95.5134630  40.8015454  33.5462779  94.8976616  41.2336520  34.3350566
  94.8705269  40.3977029  32.7642009  96.3703770  39.6834263  34.1264951
  97.0369295  39.3325900  33.3386357  96.9606408  40.1051281  34.9400418
  95.4080672  38.2929358  34.7514415  94.8310292  37.5618336  33.2234147
  95.6862551  37.2614532  32.6180558  94.2194839  36.6875753  33.4465411
  94.2353706  38.2905232  32.6735934  97.2041554  41.4126975  31.8023188
  96.7264163  41.1952533  30.6814225  98.5012266  41.1841026  32.0625543
  99.2252400  41.3939134  33.3294631  98.6609769  40.9463869  34.1476486
  99.3387555  42.4629889  33.5091597 100.5393936  40.7109032  33.0950312
 100.4828094  39.6811314  33.4478306 101.3252870  41.2373176  33.6366591
 100.7742859  40.7699999  31.6304394 101.3784839  39.9151861  31.3265691
 101.2608705  41.6908536  31.3089374  99.3794395  40.6702251  31.0053102
  99.2643754  41.3132061  30.1327084  99.0566680  39.2291898  30.6205443
  98.8566943  38.4007353  31.5081696  98.9945493  38.8833013  29.3792537
  99.0976948  39.5463844  28.6244152  98.6832184  37.4966882  29.0447704
  98.9272624  36.8505665  29.8880192  97.1715648  37.3390929  28.7195076
  96.6602883  37.7099513  29.6078542  96.9363897  37.9813978  27.8708397
  96.7054864  35.9071130  28.4216447  97.2053766  34.9592882  29.0615603
  95.8684704  35.7272816  27.5115645  99.5361769  37.0110534  27.8974732
 100.3758212  37.7406641  27.3484353  98.5027183  35.6336426  28.3394968
  72.8011104  53.5205615 101.4661763  73.1876474  54.1739461 102.1323435
  73.5424298  53.1968149 100.8614167  72.2260097  52.8541240 101.9613728
  71.9195355  54.2213970 100.6294611  72.2651792  54.1434892  99.5986557
  70.4927947  53.6607289 100.7121653  70.5512605  52.5813000 100.5724725
  70.1078371  53.8772850 101.7086648  69.5421055  54.2689478  99.6473814
  68.6138749  53.6989408  99.6871408  69.3482223  55.2992731  99.9456115
  70.1487288  54.2507286  98.0366927  68.6980146  54.5476913  96.9235388
  68.2499154  55.5129027  97.1594902  69.0297008  54.5457722  95.8852318
  67.9596344  53.7593737  97.0700010  71.8265618  55.6564476 101.0102116
  71.8895923  55.9063127 102.2235077  71.6012380  56.5487433 100.0352457
  71.6382703  56.2368761  99.0753150  71.2744387  57.9716837 100.3005322
  71.9466894  58.4089536 101.0387552  71.4563057  58.7268667  98.9542540
  70.6813983  58.3907443  98.2653132  71.3375343  59.7941327  99.1411678
  72.7550164  58.4819924  98.3737058  72.8314143  58.9626932  97.5462459
  69.8188699  58.2698302 100.7909771  68.8484185  57.7097454 100.3009984
  69.7280965  59.1610950 101.7653488  70.5951965  59.6689616 101.8668790
  68.6412828  59.4320816 102.7275734  67.6940312  59.2517594 102.2193436
  68.6856800  58.6083681 103.9448202  69.5766391  58.7751497 104.5501921
  67.8274910  59.0784121 104.4251017  68.4294807  57.0742659 103.8080779
  67.3916835  56.5707527 102.9774393  66.7827354  57.2630275 102.3960296
  67.1494810  55.1924349 102.9035965  66.2738840  54.8693729 102.3405133
  68.0424750  54.2433878 103.4140868  67.8156978  52.8911280 103.3439905
  66.9872225  52.6716476 102.9114901  69.1290643  54.7353554 104.1212061
  69.8417526  54.0381098 104.5616881  69.3124690  56.0964428 104.2697745
  70.1989066  56.4745413 104.7790584  68.7467042  60.9516561 102.9898584
  69.8139178  61.4630773 103.2952675  67.6319003  61.6606666 102.8979812
  66.8401698  61.1124963 102.5933972  67.4838632  63.1240293 102.9636754
  68.2588090  63.5492360 103.6014508  67.6179820  63.7351285 101.5480218
  66.7069505  63.5366431 100.9834650  67.7465863  64.8114359 101.6625786
  68.8218615  63.1752743 100.7559653  70.0148051  63.5254234 100.9999882
  68.6268920  62.3002257  99.8152545  69.4140503  61.9350828  99.2983868
  67.6891138  61.9893676  99.6053972  66.2670989  63.5537205 103.7716252
  65.3330456  62.7347601 104.1654743  66.1428349  64.8523193 103.9853792
  66.9252919  65.4268138 103.7064233  65.0570452  65.4755974 104.6860782
  64.1272100  64.9132560 104.6007689  65.4752114  65.4831977 106.1005891
  65.4224174  64.4782709 106.5194376  66.5180790  65.7920312 106.0288317
  64.7236886  66.4461472 107.0008429  65.2983184  67.7067173 107.1981263
  66.1328337  68.0431332 106.5828963  64.7822595  68.5484345 108.2120746
  65.2395262  69.5108011 108.4419869  63.5167195  68.2343226 108.7236079
  62.9973043  69.0128385 109.6742134  63.5731768  69.7408794 109.9190133
  62.9066483  67.0159607 108.4600872  61.9929690  66.7212652 108.9762706
  63.4788242  66.1667719 107.5214253  62.9428656  65.2758293 107.1942103
  64.7765630  66.8249658 104.0160322  65.7000916  67.4047233 103.3829026
  63.5234761  67.2433491 104.0899699  62.8567934  66.6238633 104.5280006
  63.0125797  68.3925640 103.3331319  63.6100070  69.3015179 103.4037193
  62.8051229  68.0448818 101.8154907  63.7598272  67.7292895 101.3947289
  61.8224970  66.9722502 101.6534822  60.8673405  67.2873039 102.0736229
  61.6972296  66.7505858 100.5936362  62.1701159  66.0789316 102.1723701
  62.4894196  69.2592531 100.9330011  63.3111397  69.9732130 100.9890308
  62.3603514  68.9349252  99.9004061  61.5721219  69.7337369 101.2816141
  61.8295556  69.1892656 103.9558386  60.9002537  68.5612040 104.4050052
  62.0516140  70.5286274 104.1492165  62.8518345  70.9794258 103.7290651
  61.2453910  71.2981061 105.1349451  60.1620838  71.1782666 105.1484878
  61.7789047  71.1385699 106.5796113  61.6878083  70.0796417 106.8214205
  63.1954502  71.5850143 106.8112492  63.2872286  72.6440300 106.5700785
  63.4605210  71.4266695 107.8566032  63.8672390  71.0085326 106.1752694
  60.8558580  71.6169734 107.6248332  59.9210279  71.0593630 107.5676907
  61.3078692  71.4679153 108.6054286  60.6552336  72.6778619 107.4752794
  61.1116618  72.7262658 104.6413630  62.0417880  73.1767093 103.9900574
  59.9507380  73.4412709 104.7801500  59.1426853  72.8465982 104.8964024
  59.7489265  74.8576907 104.7256623  60.0224592  75.0583615 103.6898002
  58.2460021  75.1823895 104.9125180  57.9533441  74.8354915 105.9035343
  57.9420652  76.6364568 104.7855107  58.2340433  76.9839978 103.7945195
  56.8734408  76.7984763 104.9265447  58.4961907  77.1914716 105.5424810
  57.5667423  74.7020048 103.7644615  56.6284151  74.8873233 103.8469208
  60.6463703  75.5720385 105.8365700  60.3794422  75.3347883 107.0015553
  61.5134501  76.4552107 105.4456180  61.6886230  76.5302172 104.4537573
  62.2343641  77.3747197 106.3581925  62.3420162  76.9602185 107.3605393
  63.6603438  77.6934955 105.7923791  63.5685798  78.1178143 104.7925627
  64.1594558  78.4090609 106.4457960  64.2463756  76.7756804 105.7446151
  61.4617569  78.6804656 106.4570855  61.5349408  79.3458232 107.4572432
  60.6147849  79.0028467 105.4935955  60.5198827  78.2742610 104.8005906
  59.8692032  80.2104554 105.3144727  59.4827359  80.5863457 106.2618105
  60.8514865  81.2675471 104.7222569  61.4539820  81.6362863 105.5523953
  61.4919057  80.7399788 104.0154082  60.2091117  82.3929189 104.0501357
  61.0791736  83.0296597 103.8899662  59.7661173  82.1351753 103.0881449
  59.1724417  83.1753127 104.8749656  59.4355827  83.4164810 106.0297707
  57.9546284  83.4265210 104.4228660  57.3032952  83.9438132 104.9958190
  57.6819506  83.0998340 103.5068836  58.6318625  80.0421939 104.3605267
  58.7421529  79.6817459 103.1971535  57.4487753  80.1923830 104.9930645
  57.4830399  80.2881130 105.9979331  56.1377250  79.9703639 104.3564228
  56.0547270  78.9640142 103.9459709  55.1103582  80.1355056 105.4249107
  54.1791517  79.7374662 105.0217750  55.4353812  79.5194852 106.2633492
  54.8875065  81.5603817 105.9005568  55.6882621  81.8908944 106.5621101
  54.7999864  82.2524038 105.0629723  53.5907123  81.5279522 106.6611186
  52.8011609  81.3156299 105.9402671  53.6587411  80.7084607 107.3765941
  53.2580827  82.8660631 107.4253710  52.2549457  82.7567085 107.8375097
  53.9771624  82.9551255 108.2396753  53.3169966  84.1248808 106.5520153
  52.6504499  84.0427422 105.7976491  53.0927853  84.9344484 107.1127555
  54.2465606  84.2266294 106.1703649  55.9092612  80.7242330 103.0332929
  56.6520351  81.7442524 102.7281482  54.9990970  80.3031695 102.1766951
  54.1893171  79.1528171 102.3835670  53.4132491  79.4256470 103.0986772
  54.8254734  78.3803474 102.8156490  53.6083227  78.7380060 100.9999644
  52.6293557  78.2679976 101.0938514  54.2807327  78.0710822 100.4603545
  53.5093322  80.1237285 100.2891121  52.5415079  80.5853695 100.4848230
  53.6509709  80.0200819  99.2133354  54.6383660  80.9950280 100.8885667
  55.5322967  80.9918569 100.2648873  54.1305466  82.4619761 101.0619126
  53.3313385  82.6138962 102.0415481  54.4615662  83.4051521 100.1802011
  54.9965607  83.1900187  99.3509859  54.0314670  84.7805242 100.3864927
  53.3753529  84.8524416 101.2539265  55.2220060  85.7051170 100.5990740
  54.8576159  86.7314114 100.6442398  55.9962328  85.3602561 101.9386116
  56.3613470  84.3341956 101.8939910  56.8395593  86.0406271 102.0569113
  55.3209293  85.4684699 102.7873492  56.2005031  85.7152180  99.5835271
  56.9002657  86.3286081  99.8195044  53.2610906  85.3723883  99.1986079
  52.6861183  86.4493143  99.3631659  53.2606183  84.7540248  98.0214429
  53.9096113  83.9820755  97.9666547  52.5981793  85.1737771  96.8175253
  52.6625396  86.2616828  96.8379736  53.2810986  84.6834633  95.6037240
  53.2172171  83.5960462  95.5644409  52.8025987  85.1071485  94.7207581
  54.3283446  84.9847177  95.6286411  51.0771906  84.8493410  96.8826290
  50.6304564  83.7611662  97.1516037  50.2324217  85.8513571  96.5349104
  50.5451638  86.7969272  96.3670152  48.7881477  85.5795884  96.5061259
  48.4818539  84.8017086  97.2055445  48.0021546  86.8388511  96.8080685
  48.3913686  87.6334097  96.1714459  46.5010525  86.6790451  96.5631037
  46.1110060  85.8849183  97.1997569  45.9926003  87.6143655  96.7970966
  46.3281474  86.4237889  95.5176136  48.2054181  87.3779532  98.2255257
  49.2586978  87.6137167  98.3775765  47.6085279  88.2799019  98.3608405
  47.8940386  86.6248320  98.9493711  48.4118089  84.9753475  95.2074789
  48.2658246  85.7185428  94.1875209  48.1938406  83.6868683  95.1593017
  48.4126217  83.1177561  95.9645008  47.7610385  83.0303377  93.9600866
  48.1935154  83.5084514  93.0811837  48.2391113  81.5397060  94.0050713
  47.8089417  81.2035775  94.9485070  47.8371928  80.9394988  93.1887914
  49.7039038  81.3452035  94.0577754  50.3757282  81.1170795  95.0662536
  50.3511811  81.5695111  92.9667904  51.3541364  81.4524262  92.9450747
  49.8526348  81.8613933  92.1383235  46.2618326  83.1382097  93.7005979
  45.8748565  83.0203109  92.5164419  45.5053353  83.3980335  94.7174432
  45.8708994  83.4258145  95.6585545  44.1329719  83.6514689  94.5263671
  44.0498632  84.3583814  93.7008571  43.6693451  82.7065736  94.2429547
  43.4122803  84.2110333  95.7255187  43.8153470  84.1038663  96.8532431
  42.3615126  84.9858953  95.4511450  42.0953735  85.1368459  94.4886049
  41.5273069  85.6235735  96.5311211  41.5812279  85.0079070  97.4289777
  42.0089943  87.0427961  96.8785381  41.4202524  87.5181407  97.6630951
  43.0660640  87.0874364  97.1406656  41.8165887  88.0574944  95.4358554
  42.2838767  89.1737552  95.9876723  40.0277667  85.8084004  96.1546887
  39.5890944  85.9697294  94.9967696  39.2036239  85.9509464  97.1519134
  39.5205533  85.9693787  98.1107227  37.7459323  86.0223981  96.8920690
  37.4620091  86.7481649  96.1299999  37.1697404  84.6018000  96.4794218
  37.8453397  84.2057185  95.7212766  37.0297220  83.5916256  97.6124534
  36.3538586  83.9868343  98.3708199  36.6279202  82.6576360  97.2196184
  38.0071287  83.4070720  98.0582310  35.8519618  84.5779269  95.7420185
  35.9465748  85.1346796  94.8097219  35.5766204  83.5464246  95.5222690
  35.0802529  85.0354257  96.3610993  37.0457559  86.5597608  98.1200687
  37.4806917  86.2563035  99.2251997  35.9016042  87.2819360  97.9640401
  35.5969372  87.5499632  97.0391408  35.0708190  87.6427192  99.0906148
  35.1523392  87.1995769 100.0831260  35.1358551  89.1981725  99.2311964
  34.3609289  89.4233196  99.9639300  36.4294978  89.8851819  99.6352999
  37.2048275  89.6608614  98.9027402  36.2713163  90.9628071  99.6777450
  36.7416717  89.5254057 100.6157126  34.5197132  90.0278473  98.2312154
  34.6461026  90.9516635  98.4596658  33.5616475  87.2849451  98.9441767
  32.9186879  87.1868451  97.8779167  33.0357350  87.1909157 100.1296772
  33.5743015  87.3428220 100.9704923  31.6108911  86.8529187 100.2658602
  31.0321174  87.6595974  99.8159827  31.4331935  85.9286139  99.7161481
  31.1662861  86.6675775 101.6932372  31.8795691  87.0910059 102.5792834
  29.9862061  86.1013174 101.9267167  29.5451955  85.7222612 101.1009291
  29.2953263  85.9520726 103.2175076  29.7632719  86.5829726 103.9732135
  27.7741662  86.3940593 103.0565803  27.5199231  86.0621126 102.0499667
  27.0334550  86.0159809 103.7612104  27.6459160  87.8970528 103.0606394
  26.4637428  88.5499691 102.6908831  26.7027267  89.8377976 102.7985239
  25.9608206  90.5540069 102.4453686  27.8998808  90.0219900 103.3629866
  28.3128860  90.9083533 103.6157446  28.4720566  88.8347245 103.5428403
  29.4518273  88.7679537 104.0158015  29.3692446  84.4261040 103.5964030
  28.5267670  83.6232461 103.2599395  30.4852932  84.0033781 104.1806679
  31.1265628  84.6903189 104.5507828  30.8469188  82.5243289 104.3210511
  30.2479914  81.8732681 103.6842584  32.3592871  82.4668155 103.8280488
  32.4059157  82.6419231 102.7532175  32.9463085  83.2258627 104.3451109
  33.0798682  81.0758291 104.0936793  32.6371278  79.9061326 103.4062375
  31.8270904  79.9437022 102.6778640  33.2903108  78.6508814 103.6957943
  32.9825213  77.7524297 103.1608635  34.2874439  78.5825771 104.6320513
  34.7672121  77.6217002 104.8181644  34.7040722  79.7470693 105.3631058
  35.4256385  79.6626200 106.1757008  34.1750937  80.9978970 105.0240044
  34.5927077  81.9036193 105.4637378  30.7172018  82.0325191 105.7456870
  30.7031508  80.8303902 106.0365870  30.6981907  83.0258861 106.7076364
  30.6570637  84.0138335 106.5018021  30.7093118  82.5992166 108.1445757
  30.8528459  81.5190091 108.1191020  31.8945885  83.2268976 108.8354892
  31.8993529  82.8911746 109.8724886  33.2207307  82.8464951 108.1699195
  33.2168955  83.1823272 107.1329519  34.0445470  83.3219650 108.7022297
  33.3457625  81.7641156 108.2002876  31.8846510  84.6160627 108.6914497
  32.6473474  84.9896348 109.1390415  29.4742535  83.0415240 108.8992605
  29.0728313  82.3403804 109.8439863  28.7942764  84.1016722 108.4082717
  29.4422870  84.6997405 107.9158331  27.3821237  84.5350008 108.5164251
  26.7760565  84.0890761 107.7277979  26.8290501  84.0568505 109.9048871
  26.7997300  82.9674333 109.9251258  27.4851664  84.4169221 110.6973263
  25.5443627  84.5595119 110.1016890  25.2118134  84.2636378 110.9522590
  27.1617667  86.0287177 108.3492642  28.1170994  86.7986547 108.4441829
  25.9784943  86.3520278 107.7368485  25.1937457  85.7285530 107.8615406
  25.8065995  87.5093979 106.8855998  26.4118183  87.3891195 105.9870774
  24.3190516  87.5269700 106.4791007  23.7006247  87.6559407 107.3673658
  24.1400332  88.3518775 105.7894775  24.0636209  86.5855294 105.9927429
  26.1913291  88.8105619 107.5129995  26.5878167  89.7010600 106.8039292
  26.1999519  89.0184754 108.8505247  25.8584966  88.2817658 109.4511632
  26.6233813  90.2863862 109.4714005  25.9999065  91.1217652 109.1527780
  26.4619165  90.1048495 110.9573196  26.7137949  91.0804751 111.3730253
  25.3958329  89.9190848 111.0879231  27.2538048  89.0297336 111.6761852
  28.1276286  88.9214268 111.0336882  27.5585885  89.4471517 112.6358561
  26.6096349  87.6561490 111.8981140  25.9020888  87.0984698 111.0475192
  26.8078227  87.1692827 113.0492065  28.0636030  90.7645531 109.1479105
  28.3595723  91.9696165 109.1150714  28.9362960  89.8372791 108.8549483
  28.6261596  88.8821533 108.9628806  30.3590376  90.0838293 108.3764159
  30.6310194  91.1115369 108.6171279  31.4016453  89.1254328 109.0320487
  31.2450475  88.1146983 108.6552305  32.3581379  89.5031948 108.6707762
  31.4070554  89.1044444 110.5193891  31.6448386  88.0968869 111.1431848
  31.2307643  90.1504168 111.1290989  30.4895591  89.8981883 106.8710789
  29.8560675  88.9617876 106.3787912  31.2800756  90.6514747 106.1623948
  31.5266265  91.5339521 106.5873015  31.7441310  90.3817477 104.7382649
  31.1540799  89.5680445 104.3165708  31.5813933  91.6176291 103.8469522
  30.5229919  91.8354729 103.7040188  32.0270342  92.3837316 104.4814530
  32.3065648  91.6058516 102.4523255  33.3830230  91.6421062 102.6197300
  31.9567300  90.3470708 101.6563226  30.8804138  90.3103536 101.4881141
  32.4734023  90.3680403 100.6967859  32.2667707  89.4646933 102.2161307
  31.6983311  92.7671522 101.6644006  31.8765500  93.7012073 102.1972030
  32.1592376  92.8184937 100.6779776  30.6251325  92.6105311 101.5557103
  33.1678590  89.8485731 104.8605173  34.1184948  90.5747304 105.2210810
  33.3529610  88.5024244 104.6535997  32.5192198  87.9921132 104.3995183
  34.6586298  87.7503585 104.7221996  35.1937901  88.0832064 105.6115336
  34.4946495  86.2040558 104.7900198  34.0804548  86.0214397 103.7984587
  35.4504701  85.6887107 104.8844994  33.5418006  85.6468457 105.8213063
  32.3801744  85.4160465 105.5727179  33.9898902  85.5898240 107.0271870
  33.4023890  85.2271466 107.7643487  34.9267209  85.9080465 107.2301241
  35.5589078  87.9740320 103.4379474  35.0476888  88.1094771 102.3108668
  36.8643089  88.1081475 103.6020904  37.1725852  88.1924850 104.5601887
  37.8906045  88.0720573 102.5348553  37.4028018  88.1454677 101.5628683
  38.9130895  89.2644524 102.6769402  38.4587345  90.2180257 102.4079444
  39.0461737  89.2180414 103.7577893  40.3007590  89.1340947 101.9764701
  40.8025096  88.2370756 102.3393805  40.1198488  89.0388313 100.4839094
  39.6185427  89.9357648 100.1201770  41.0944613  88.9481510 100.0043177
  39.5154607  88.1635537 100.2457824  41.0957187  90.4769880 102.0995942
  41.2483800  90.7142221 103.1524541  42.0625890  90.3739254 101.6070081
  40.5305098  91.2792127 101.6251750  38.6258632  86.7217251 102.8389799
  39.2737163  86.5644845 103.8847397  38.7669549  85.8493172 101.8425745
  38.1991488  86.1250356 101.0541109  39.5319226  84.5684221 101.7514968
  39.9900137  84.3596849 102.7182856  38.6278679  83.3762521 101.3658052
  38.3353568  83.5890383 100.3375744  39.2201196  82.4615842 101.3926462
  37.3933143  83.2001687 102.2129155  37.6055136  83.5865987 103.2097827
  36.2140462  83.9208497 101.6396069  36.0009371  83.5346167 100.6428585
  35.3465070  83.7672200 102.2813814  36.4343852  84.9864705 101.5763349
  37.0706475  81.7107012 102.3855707  37.9084302  81.2109014 102.8718010
  36.1767359  81.6008495 102.9995380  36.8971417  81.2603283 101.4082484
  40.7091171  84.7541538 100.7283244  40.5487089  85.2662429  99.6047186
  41.9104330  84.2757686 101.1212427  41.9093478  83.8412232 102.0329819
  43.1930125  84.3341965 100.3691676  42.9857825  84.6360236  99.3424956
  44.1521310  85.3921720 101.0453809  44.0115242  85.2978384 102.1221498
  45.6500605  85.2276042 100.7056785  45.7915289  85.3222829  99.6290526
  46.2259190  85.9993011 101.2165324  45.9911964  84.2449421 101.0314093
  43.6555400  86.7888118 100.4927077  44.3217392  87.1939030  99.7310120
  42.6402918  86.7415962 100.0988277  43.6820421  87.6932970 101.7261116
  44.6971271  87.7413789 102.1203075  43.3522294  88.6948407 101.4500084
  43.0156810  87.2890705 102.4881245  43.9381368  82.9632079 100.3271347
  44.2112507  82.2968507 101.3168609  44.3239374  82.5961444  99.0894420
  43.9429206  83.0994597  98.3010263  45.2195397  81.4668043  98.8255909
  45.3069862  80.8561110  99.7242043  44.5629983  80.6387055  97.7392742
  44.4767441  81.2338041  96.8301439  45.1693017  79.7554102  97.5385611
  43.5700843  80.3304764  98.0667124  46.6443647  81.8812708  98.4200021
  46.8427917  82.6850393  97.5460228  47.6729513  81.2373930  99.0843183
  47.4393390  80.6659343  99.8836678  49.0803374  81.3869893  98.7283753
  49.1768480  81.9355057  97.7914043  49.8299536  82.1913749  99.8641263
  50.0084417  81.5134130 100.6987573  50.7844279  82.5335229  99.4641093
  49.0021242  83.4215093 100.3602087  48.7650191  84.0838998  99.5276699
  48.0785979  83.0937574 100.8374715  49.8431394  84.1529927 101.3539192
  50.2478387  83.4244166 102.0564107  50.6615050  84.6326102 100.8169424
  49.0270372  85.2371721 102.1383721  48.8661755  86.0826477 101.4694962
  48.0656611  84.8004476 102.4087917  49.7069038  85.6926069 103.3394864
  50.5975728  86.0977106 103.0890878  49.1398969  86.3871918 103.8044111
  49.8556765  84.9093962 103.9596048  49.7460009  80.0517699  98.4994079
  50.1411577  79.4085542  99.5276830  49.9370848  79.4841036  97.3107961
  49.7754785  80.1112515  96.5357682  50.2134358  78.0661316  97.0166085
  49.8716729  77.8219236  96.0107955  51.7483524  77.7848257  97.1046083
  52.3084996  78.5442058  96.5590113  52.0917993  77.7536195  98.1386153
  52.0191703  76.4003216  96.4488225  51.4779162  76.1328602  95.4259064
  52.8096963  75.5316510  96.9980546  52.9662533  74.6407811  96.5486766
  53.2652022  75.7499568  97.8726733  49.4013927  77.0658669  97.8696441
  48.3845950  76.6037344  97.4598613  49.8728229  76.7073265  99.1046058
  50.7035472  77.1935073  99.4105875  49.3082507  75.6975116  99.9756700
  48.4033550  75.1675012  99.6784295  50.3535010  74.6911409 100.3415331
  49.9939160  74.1802360 101.2347157  50.6718556  73.6594821  99.2576976
  51.0319650  74.1696417  98.3643007  51.4401427  72.9764117  99.6199805
  49.7706075  73.0962921  99.0154797  51.5146126  75.3625576 100.9310453
  52.1788782  74.7091446 101.1621362  48.7155304  76.2466078 101.2841960
  48.3458522  75.4754656 102.1366693  48.5195399  77.5938984 101.3825358
  48.7702760  78.1342663 100.5669175  48.0017763  78.2765250 102.5042861
  47.8913929  77.5721950 103.3288066  48.9202594  79.4231174 102.9572646
  48.9244128  80.1829915 102.1758086  48.5074286  79.8465632 103.8728869
  50.3667360  78.9445886 103.2178114  50.7380523  78.5590779 102.2682817
  50.9371222  79.8302429 103.4977724  50.5231678  77.8830298 104.2900241
  49.9702599  76.9986176 103.9734695  51.5822650  77.6387172 104.3720238
  50.0347904  78.2949737 105.6037283  49.8417738  79.2854488 105.6461904
  49.7576878  77.5473654 106.6701944  50.0863639  76.3283228 106.5930440
  50.5306999  75.9802951 105.7554628  49.9028743  75.7088790 107.3693947
  49.2599296  78.0468064 107.7558783  49.0693857  79.0371105 107.8114740
  49.0644832  77.4438002 108.5421881  46.6286046  78.8978048 102.1992811
  46.4819949  79.4155469 101.0670935  45.7617211  78.8152744 103.1626993
  45.9205799  78.2374539 103.9757102  44.3941189  79.4360789 102.9800657
  44.3888190  80.1280905 102.1379309  43.4027499  78.3188317 102.6970035
  43.5400814  78.0405260 101.6521182  43.7542532  77.5096964 103.3371953
  41.9395849  78.5694731 102.9619277  41.8721378  79.1686354 103.8699785
  41.2082955  79.3054573 101.7987531  41.2749211  78.7066441 100.8904126
  40.1604681  79.4504388 102.0616957  41.6773678  80.2747081 101.6295653
  41.2831232  77.2600703 103.1056925  41.7321931  76.7172817 103.9374474
  40.2202224  77.4051790 103.2987901  41.4100887  76.6866292 102.1874638
  44.1352363  80.3845449 104.2433895  44.2261377  79.9109341 105.3756689
  43.9469268  81.6631155 104.0652722  43.7830109  81.9490990 103.1105763
  43.8049249  82.6804795 105.1400862  43.9431309  82.2033445 106.1103132
  44.8433990  83.7974280 104.9913359  44.7422755  84.2187770 103.9911668
  44.6197011  84.5646524 105.7325686  46.2989721  83.2894644 105.1946826
  46.4413748  82.8049713 106.1606478  46.3332684  82.5397581 104.4041996
  47.4168711  84.3230621 104.9698118  47.1367863  85.5313404 104.7637609
  48.5695062  83.8969476 105.1809226  42.4656801  83.4499269 104.9676569
  41.9495729  83.5110759 103.8348143  41.9302227  83.8993473 106.1003059
  42.4889776  83.8742682 106.9412954  40.5585847  84.4039958 106.1928695
  40.1916105  84.7620559 105.2309848  39.5436904  83.4240028 106.7941583
  39.9414276  83.0445378 107.7353873  38.2081882  84.1025513 107.0460925
  37.8095770  84.4818942 106.1051841  37.5091821  83.3830242 107.4724397
  38.3461366  84.9303294 107.7416879  39.4195041  82.1244762 105.9183647
  38.9025076  82.4246625 105.0069353  40.4396777  81.8271037 105.6756407
  38.6795676  80.9393842 106.5602688  37.6591065  81.2358750 106.8028637
  38.6580107  80.1026182 105.8620876  39.1962758  80.6383177 107.4715709
  40.5904492  85.7006259 107.0765555  41.1185321  85.7028314 108.2228441
  39.9919005  86.7516843 106.5897848  39.4255852  86.6322438 105.7620648
  40.0894513  88.1168881 107.1907802  40.3371757  88.0200773 108.2478325
  41.1601646  88.9743939 106.5144239  40.7334711  88.8650361 105.5173919
  41.0585588  90.0093336 106.8410368  42.5770401  88.6107949 106.4807720
  43.4944782  89.2884099 107.3185699  43.1490697  90.0651714 108.0007971
  44.8633331  88.9530337 107.2668489  45.5659669  89.4609374 107.9274862
  45.3283775  87.9816057 106.3548399  46.6344675  87.5901667 106.3204834
  47.1784568  88.0412354 106.9702621  44.4243759  87.3673152 105.4510157
  44.7826924  86.6010221 104.7636261  43.0773762  87.7418086 105.4398942
  42.4172887  87.3788784 104.6520705  38.7668226  88.9337576 107.0821322
  37.9239054  88.5123830 106.2903398  38.5161600  89.8964631 107.9592790
  39.2191858  90.0735356 108.6624854  37.3464670  90.8459550 107.8615835
  36.8112691  90.9042144 106.9138133  36.3447906  90.5292984 108.9686254
  35.6639693  91.3670230 109.1196191  35.5851649  89.3548093 108.5462096
  36.2653034  88.5164865 108.3954535  34.8564055  89.0971005 109.3147124
  35.0662985  89.5734249 107.6128894  36.7684190  90.4075923 110.4565940
  37.2050424  91.3494519 110.7888026  35.8944473  90.1778772 111.0661053
  37.5037407  89.6098435 110.5614733  37.9052158  92.2624746 108.2444297
  38.9030027  92.4110957 109.0307536  37.2332707  93.3208641 107.7323366
  36.5441699  93.0975021 107.0285264  37.5789558  94.7688338 107.9587867
  38.6557374  94.8431019 108.1108550  37.1965119  95.5787976 106.6627403
  36.1195254  95.7257788 106.5815244  37.9127500  96.9900303 106.8364475
  38.9898810  96.8438892 106.9172716  37.6955665  97.6171671 105.9717907
  37.5438626  97.4765895 107.7393781  37.7074320  94.9934386 105.3255831
  37.3009981  93.9914329 105.1881130  37.3857263  95.6315294 104.5025124
  38.7961905  94.9441931 105.3423342  37.0045419  95.2494790 109.3178433
  35.7803900  95.1602355 109.6000859  37.8590074  95.8216708 110.1704536
  38.8297187  95.9000931 109.9027433  37.4673923  96.2412019 111.5564108
  36.3789558  96.2648396 111.5030590  37.8940131  95.2220460 112.6775512
  37.6545603  95.7174538 113.6184730  37.2688769  93.8498533 112.6590288
  37.5082986  93.3536147 111.7185374  37.6587771  93.2611559 113.4893977
  36.1870540  93.9415390 112.7557422  39.2284177  94.8775536 112.5185220
  39.4824607  94.2561940 113.2047980  37.9602622  97.6400473 111.9498682
  38.7446969  98.2401667 111.2155740  37.6349957  98.2066177 113.1086838
  36.9960538  97.7610172 113.7515623  38.0761714  99.6080543 113.4025521
  37.6165494 100.2231696 112.6289372  37.5350377 100.0541913 114.7711799
  37.9930024  99.4533958 115.5569363  37.7744702 101.1053314 114.9320427
  36.4535516  99.9205081 114.7959949  39.6425025  99.8113487 113.2513162
  40.1614713 100.8093475 112.6955656  40.4581738  98.9080539 113.7440604
  40.0253809  98.1829193 114.2981086  41.9405891  99.0090793 113.7501305
  42.2469872 100.0547785 113.7230676  42.5029284  98.3606766 115.0437980
  42.0131306  97.4031709 115.2209430  43.5771468  98.2055971 114.9432736
  42.2319167  99.2958939 116.2199302  42.8504198  98.9650547 117.0542564
  42.5758297 100.2720914 115.8780802  40.7897251  99.3985297 116.6706809
  39.9767350  98.4287964 116.5641849  40.3177922 100.4224786 117.2065262
  42.5157372  98.5610984 112.4496615  43.7367479  98.4815209 112.3448072
  41.7153606  98.1743339 111.4344470  40.7208372  98.2387456 111.5983792
  42.1687523  97.6828144 110.1509706  41.7371572  98.3022281 109.3647445
  43.2558391  97.7521857 110.1118666  41.7553854  96.2321182 109.9232020
  40.7570414  95.7501743 110.4205333  42.5414687  95.4606499 109.1100319
  43.4993728  95.7334137 108.9423451  42.0718962  94.2296390 108.5327245
  41.0220206  94.2648718 108.2418310  42.9295910  94.0807751 107.2627410
  42.6867205  94.9382783 106.6352050  43.9782436  94.1310823 107.5558229
  42.6864741  92.8209995 106.4992389  42.4408183  92.0149454 107.1906367
  41.5020264  93.0399039 105.5176185  41.7471472  93.8455553 104.8255633
  41.3197751  92.1230019 104.9571045  40.6070979  93.3049329 106.0806131
  43.8722292  92.3232404 105.6961051  44.7089328  92.1265559 106.3664346
  43.5998979  91.4045674 105.1765121  44.1615230  93.0802443 104.9671653
  42.4177874  93.1675950 109.5710860  43.5883752  92.7642753 109.7403149
  41.4031936  92.6254701 110.1730080  40.4779160  92.9898856 109.9964799
  41.5583832  91.5740343 111.2023490  42.4808265  91.6920777 111.7709114
  40.3553974  91.7418036 112.1684793  40.2949590  92.7953564 112.4413765
  39.4539592  91.4549946 111.6269538  40.4820154  90.8822485 113.4523679
  40.4335664  89.8353897 113.1526343  41.4581443  91.0892401 113.8910351
  39.4188550  91.1603036 114.4554159  38.4737340  91.2778021 113.9252844
  39.3537913  90.3048642 115.1277920  39.6724856  92.4100410 115.2809478
  40.4445070  92.9301707 114.8890965  39.1608376  92.8130555 116.3954417
  38.2013701  92.1400797 116.9387452  37.8575836  91.3036457 116.4889796
  37.7995094  92.4535143 117.8107351  39.5306319  93.9868467 116.8932494
  40.2058178  94.5517766 116.3981956  39.1350884  94.3095439 117.7647484
  41.6865162  90.1839055 110.5082699  40.8381568  89.8325397 109.6864916
  42.6255803  89.3172297 110.9135768  43.7241561  89.5957501 111.8214439
  43.2646016  89.7503108 112.7976718  44.1610469  90.5318947 111.4737964
  44.6943707  88.4905243 111.8225560  44.6655292  87.9273604 112.7553548
  45.7097926  88.8439530 111.6433692  44.1848614  87.6355957 110.6268376
  44.3247023  86.6219992 111.0025579  44.6782900  87.7354726 109.6600633
  42.6767927  87.9388544 110.4827373  42.2538257  87.8258240 109.4845282
  41.8292141  87.1296238 111.4967641  42.0543922  87.1230123 112.7167613
  40.9317091  86.3258920 110.8999542  40.7675533  86.4913627 109.9172174
  40.0740342  85.3573816 111.5958962  39.9475990  85.4005811 112.6776758
  38.6703749  85.3606547 110.9317225  38.8294815  85.2492430 109.8591687
  37.7275466  84.2648215 111.4224919  37.5675824  84.3758628 112.4949574
  36.7728660  84.3466041 110.9028793  38.1680681  83.2884720 111.2205413
  38.0914489  86.8285740 110.9298517  38.7594620  87.4824397 110.3692089
  37.1062047  86.8305394 110.4636012  38.0082110  87.1881783 111.9554525
  40.6380896  83.9103234 111.7605236  40.7550811  83.3093622 112.8119439
  41.0295099  83.2664925 110.6443637  40.7315397  83.6675900 109.7666200
  41.6190914  81.8968012 110.6318222  42.2929407  81.7548268 111.4767302
  40.4693822  80.8783032 110.7427803  39.9852485  81.1206271 111.6888209
  39.8032291  81.1332370 109.9185541  40.7797039  79.4004945 110.7003456
  39.8571317  78.8557000 110.4999454  41.4918496  79.2163132 109.8959652
  41.3690157  78.9289905 112.0138450  42.1424900  79.6214647 112.3459836
  40.5884631  78.8660852 112.7720534  41.9703539  77.5728537 111.8028419
  41.1764038  76.8527983 111.6046903  42.6494646  77.6076971 110.9509652
  42.7259055  77.1577326 113.0259847  42.0967181  77.1249665 113.8153828
  43.1290092  76.2434726 112.8785533  43.4619160  77.8245908 113.2095268
  42.6456076  81.7443812 109.5109183  42.3123705  82.1267449 108.3866006
  43.7740431  81.0523732 109.7340285  43.9898041  80.9089611 110.7102352
  44.7717358  80.5656236 108.6968256  44.3867788  80.6545890 107.6809553
  45.9693017  81.4652918 108.8376337  45.6693357  82.4775575 108.5666398
  46.2882920  81.4481338 109.8797713  47.1410529  81.0150330 107.9323402
  47.2534369  79.9336423 108.0102158  46.7311886  81.2677187 106.9544545
  48.4970182  81.6777898 108.0990628  48.5342195  82.8423599 108.5503316
  49.4947058  81.0164939 107.8963283  45.0516820  79.0498381 108.9133332
  45.3931359  78.5620283 109.9855971  45.0124003  78.2578730 107.7824423
  44.7270520  78.7961617 106.9768860  45.1860651  76.8043021 107.6248060
  45.6784898  76.4484928 108.5298015  43.8719634  76.0463861 107.4543212
  44.0909171  74.9963323 107.6480881  42.7220641  76.5106913 108.3753371
  42.5022144  77.5606028 108.1818098  41.8331984  75.9114985 108.1778875
  43.0182156  76.3880705 109.4171433  43.3378187  76.2280618 106.0728646
  44.0606517  75.8488736 105.3504860  42.4008650  75.6806478 105.9701246
  43.1612194  77.2875605 105.8874571  46.1760847  76.5310053 106.4961046
  46.4412138  77.3859428 105.6516814  46.5983839  75.2744111 106.3186915
  46.4460924  74.6146649 107.0681189  47.2879265  74.7879188 105.0649211
  47.2153665  75.5588125 104.2977464  48.3373851  74.5960888 105.2883876
  46.6564084  73.5194463 104.5474654  46.0246933  72.8181491 105.3238638
  46.9595139  73.1118827 103.3153648  47.6870251  73.6844329 102.9116161
  46.4126862  71.9993465 102.5073056  45.8354411  71.3094494 103.1228779
  45.4736762  72.6167560 101.4428839  46.0549554  73.3624191 100.9004816
  45.1910973  71.8125363 100.7635607  44.2471566  73.2514235 101.9970552
  43.6388932  72.4709141 102.4541346  44.5516752  73.9676795 102.7601724
  43.2481137  74.1242599 100.7079221  42.5145432  72.8820008  99.6243850
  41.8747938  72.2211557 100.2092813  41.9200705  73.3753191  98.8553987
  43.3049703  72.2979816  99.1529535  47.5337365  71.2058709 101.7994294
  48.6364035  71.6622378 101.4916752  47.1604707  70.0096161 101.4534681
  46.2987356  69.5943400 101.7775942  48.0487213  69.2009627 100.6141425
  49.0942454  69.4442208 100.8033620  47.8183277  67.7292877 100.9629626
  46.8125971  67.5549913 100.5805676  48.5334253  67.1471327 100.3817304
  47.8855046  67.3096268 102.4051575  48.8817737  67.8359453 103.2369494
  49.5664843  68.6049430 102.8792994  48.9897827  67.3567230 104.5508158
  49.8451220  67.6602509 105.1544445  48.0066378  66.4376375 105.0952869
  48.0495468  66.1207131 106.4414544  48.7625214  66.5626500 106.9083148
  47.0326512  65.9483389 104.2262926  46.2873138  65.2430718 104.5939487
  47.0086066  66.3548194 102.8983689  46.2849388  65.9206374 102.2085202
  47.9037736  69.3850297  99.1347833  47.5401323  68.4582257  98.3420630
  47.9930322  70.6844711  98.7259423  48.2538498  71.3877536  99.4023055
  47.7385534  71.0923634  97.4043522  48.2979780  70.4129129  96.7613202
  46.6703852  70.9500087  97.2404888  48.0931223  72.4708817  97.0635497
  47.7710037  73.4238242  97.8116821  48.4997482  72.5450893  95.8071988
  48.8487016  71.7083768  95.3619538  48.6054694  73.8044155  95.0875110
  48.9893966  74.6254067  95.6930458  49.6734898  73.4596220  93.9646491
  50.6348496  73.2685045  94.4414726  49.3478923  72.5653383  93.4332897
  49.8165797  74.6142469  92.9766887  48.9102049  74.5930551  92.3715966
  49.8253170  75.5183328  93.5855025  51.0680661  74.6049855  92.0403057
  51.0284198  73.6682741  91.4843392  50.9426275  75.4409268  91.3521438
  52.4295206  74.7236849  92.7484279  52.4099676  74.0500865  93.6051562
  53.1922492  74.3923778  92.0437437  52.7318735  76.0413702  93.1887712
  52.0254632  76.3483929  93.8420869  53.6344588  76.0460608  93.6420015
  52.7504617  76.6656215  92.3950056  47.3118843  74.4078570  94.5959858
  46.6697237  73.9573181  93.6395719  46.8014309  75.3065815  95.4735533
  47.3424328  75.6293187  96.2630195  45.4346473  75.7809950  95.3347032
  44.7588349  74.9279004  95.3947566  45.0754632  76.7954004  96.4279869
  45.8055466  77.6047414  96.4212184  43.6984609  77.3585295  96.1759330
  42.9677221  76.5497826  96.1830165  43.4510545  78.0779000  96.9565717
  43.6804697  77.8552768  95.2058723  45.1017016  76.1112491  97.8230979
  44.1887383  75.5188916  97.8840188  45.9655803  75.4466065  97.8151531
  45.1866251  77.0439572  99.0352553  44.3227832  77.7086362  99.0441351
  45.1979830  76.4515163  99.9501237  46.0996248  77.6363531  98.9752680
  45.2233289  76.4034100  93.9394978  45.8079649  77.4498823  93.6669205
  44.3108741  75.8094015  93.1773711  43.8746332  75.0117517  93.6173121
  44.0319384  76.0605305  91.7546764  44.8059156  76.7891115  91.5133712
  44.3316943  74.7731179  91.0152434  43.5602243  74.0365275  91.2396731
  44.3488109  74.9652136  89.9424403  45.3020751  74.3897989  91.3307222
  42.6574391  76.7122007  91.3177029  42.4890105  77.1417742  90.1583081
  41.7827359  76.8646482  92.3301134  42.1620413  76.6511185  93.2415034
  40.4038590  77.3085461  92.2456375  40.3669114  78.0835320  91.4800457
  39.3668524  76.1814855  91.8720109  39.4923537  75.3678012  92.5863403
  37.9130453  76.6659987  91.9002953  37.7866492  77.4794321  91.1858367
  37.2499559  75.8428952  91.6339994  37.6671512  77.0207341  92.9011951
  39.5518023  75.6231630  90.4867241  40.5476682  75.1887163  90.3994932
  38.8026465  74.8533415  90.3016836  39.4392386  76.4224847  89.7542522
  40.1000527  77.8084933  93.6078488  40.3307014  77.1728125  94.6252456
  39.4464422  78.9910924  93.6929699  39.5610906  79.6894253  92.9723546
  38.6945350  79.3518128  94.8950578  38.3084353  78.4661565  95.3996756
  39.6490901  80.0694962  95.8357093  40.5876713  79.5215930  95.9191752
  39.8493068  81.0799888  95.4794536  38.9772442  80.1367058  97.2020397
  38.2695753  80.9649574  97.1659172  38.4340762  79.2008811  97.3335800
  40.1099276  80.3764298  98.6129868  40.8049196  81.9829025  98.2449099
  40.0065392  82.7237996  98.2029692  41.5155944  82.2590387  99.0238777
  41.3167572  81.9462456  97.2832552  37.4114466  80.1268690  94.5033935
  37.5534489  81.1548188  93.9045016  36.2298861  79.6033927  94.8503030
  36.2636303  78.7916618  95.4503477  34.9846135  80.0568624  94.4224989
  35.0663460  81.1130151  94.1656711  34.4575019  79.2798397  93.1759195
  35.2617905  79.4024059  92.4505254  34.4345753  78.2461670  93.5210212
  33.0934487  79.6343384  92.5047538  32.8276968  78.9314006  91.7152253
  32.3794535  79.5470267  93.3237084  33.0615931  81.0326292  91.9606976
  33.1604707  81.1670584  90.7064436  32.8346439  81.9925713  92.7396810
  33.8847140  79.9609334  95.5531327  33.9393432  79.1044561  96.3993569
  32.8908102  80.8308774  95.6239254  32.9316335  81.6453889  95.0281034
  31.7196216  80.7012653  96.5921113  31.8706937  79.8838034  97.2971166
  31.6432919  82.0263628  97.3818793  31.7285621  82.7544832  96.5752388
  30.6752126  82.1376676  97.8702786  32.7361578  82.2579442  98.3810870
  33.7028247  82.0000522  97.9484815  32.7261358  83.7388445  98.7585508
  31.7598812  83.9973967  99.1916806  33.5138541  83.9342052  99.4861735
  32.8975135  84.3426414  97.8673945  32.7469739  81.3650378  99.6290367
  32.8440557  80.3216386  99.3290492  33.5883079  81.6393696 100.2654332
  31.8162517  81.4989571 100.1803267  30.3325387  80.3855231  95.8626040
  30.0803183  80.9048342  94.8105409  29.4796558  79.6203167  96.5573117
  29.8719680  79.1394248  97.3541389  28.0643154  79.3319053  96.1835115
  27.6383364  80.1859193  95.6569176  27.9954021  78.0996899  95.2603143
  26.9265271  78.0714530  95.0486348  28.5500182  78.1389310  94.3227850
  28.3494179  76.7527631  95.9269168  29.7102170  76.4646398  96.2114863
  30.4437343  77.2427969  96.0004799  30.1174744  75.2588889  96.7336807
  31.1600963  75.1076287  97.0132528  29.1843834  74.2191302  96.9067240
  29.4819584  73.2478626  97.3019307  27.8606787  74.4518281  96.5618550
  27.1342428  73.6473735  96.6769364  27.4483988  75.7124095  96.0665380
  26.4070255  75.8746559  95.7884773  27.0188867  79.1575421  97.2801450
  27.4892052  78.7614611  98.3494581  25.7175488  79.3944454  97.0488191
  25.4803922  79.8701600  96.1900108  24.6190369  79.1160265  98.0358370
  24.9683685  78.4798583  98.8490754  24.1762911  80.4695394  98.6247920
  25.0667158  80.9947989  98.9702561  23.7014575  81.0444774  97.8297578
  23.1548831  80.2980599  99.8400201  22.2697599  79.7456624  99.5245604
  23.6296184  79.7781025 100.6721095  22.7299056  81.7621629 100.3022348
  22.2761889  82.2887130  99.4626008  22.0092922  81.6890248 101.1167694
  23.8499676  82.5048446 100.7522004  24.7476146  82.1903991 100.4124163
  23.8091693  83.5768000 101.5407162  22.7499647  83.8938995 102.1985326
  21.9214380  83.3213550 102.1221372  22.7519932  84.7138775 102.7882204
  24.8210370  84.3525737 101.7324786  25.6982364  84.1565310 101.2718393
  24.7316677  85.1526236 102.3424228  23.4623417  78.2923032  97.4192842
  22.5232311  78.8978900  96.8789715  23.4313686  76.9470915  97.5656507
  24.4445029  76.1400707  98.1743289  24.3387156  76.1959645  99.2577426
  25.4234389  76.5223939  97.8851710  24.1873848  74.7557142  97.6385824
  24.6114360  74.0026900  98.3028369  24.6168321  74.6444554  96.6429430
  22.6651477  74.6612059  97.5888573  22.2481012  74.3530205  98.5476028
  22.2933153  74.0034891  96.8032054  22.2746472  76.0828926  97.2950440
  22.0117245  76.1866223  96.2423285  21.0683860  76.4485015  98.1590041
  21.2462005  76.7928498  99.3697312  19.8417327  76.2825493  97.5693799
  19.7140092  76.1098848  96.5824792  18.6434595  76.5401020  98.3969111
  18.7183680  77.5325036  98.8414638  17.3650584  76.4737752  97.5636480
  17.2261219  75.4519177  97.2106562  16.5199399  76.7593154  98.1900198
  17.4553093  77.4432610  96.3345142  17.8322312  78.4011964  96.6928304
  18.1645350  77.0166894  95.6251923  16.0768027  77.6572489  95.6279538
  15.6231636  76.6734488  95.5077540  15.4641180  78.2598164  96.2984977
  16.1687440  78.3441040  94.2684973  15.1977588  78.6750649  93.9000505
  16.8620179  79.1852146  94.2703553  16.6718616  77.3171364  93.4221373
  16.0293925  76.5378236  93.4199374  16.7715511  77.6739541  92.4825399
  17.5717892  77.0106168  93.7631288  18.5427965  75.6639448  99.6505061
  18.9477198  74.5521104  99.6318686  18.2757944  76.2877461 100.8218467
  18.0250333  77.2654982 100.7869318  18.3295303  75.6255265 102.1404470
  17.4182550  75.8667461 102.6877034  18.3855073  74.5479798 101.9859833
  19.5596963  76.0817684 102.9786785  19.5883224  76.0820534 104.2101976
  20.5805939  76.6567339 102.3644784  20.6442625  76.5420826 101.3630290
  21.6639015  77.4108557 103.0604912  21.8338209  77.0158083 104.0620721
  22.9432937  77.2517663 102.2513632  22.7001303  77.7347962 101.3049738
  23.6603277  77.8644991 102.7977339  23.5525550  75.8749187 101.9790960
  22.9359454  75.4435078 101.1905669  24.5563940  76.0576517 101.5956705
  23.6274911  74.8886738 103.1745049  23.1463893  73.7274825 102.9725990
  24.1071227  75.2104303 104.2517965  21.3763531  78.9130330 103.2798116
  20.9964178  79.6837412 102.3881928  21.6245853  79.4080904 104.4890961
  21.6806992  78.7881191 105.2844489  21.6386572  80.8592720 104.7333071
  21.1466994  81.4024436 103.9264358  20.8628262  81.1119154 106.0422408
  20.8011818  82.1800948 106.2503079  19.8572637  80.6963241 105.9772188
  21.5574806  80.4821877 107.0626904  21.0990820  80.6206633 107.8947331
  23.0046956  81.4931785 104.6860760  23.0795620  82.6886035 104.9262161
  24.0933924  80.7973683 104.3433555  24.0132779  79.7924000 104.2823664
  25.4493003  81.4063645 104.2305664  25.3255785  82.3811915 103.7588628
  26.2097706  81.5942748 105.5568155  27.1812117  82.0494163 105.3638190
  25.6345908  82.2360323 106.2242101  26.4116259  80.2087514 106.2201828
  25.4189049  79.8336433 106.4689799  26.8646315  79.5644031 105.4667219
  27.2783862  80.2144862 107.4689172  28.2794146  80.5198245 107.1642706
  26.8619599  80.9601978 108.1461194  27.3543104  78.8355260 108.1970095
  28.1119091  78.9183670 108.9762927  26.3818468  78.6531135 108.6543271
  27.6911240  77.7217195 107.3047805  28.5923923  77.8903453 106.8812471
  27.7239536  76.8631501 107.8357050  26.9890112  77.6445156 106.5828551
  26.2127948  80.6047763 103.1761919  25.9674084  79.4171353 103.0133199
  27.0744062  81.2302763 102.4125791  27.0152639  82.2378921 102.4488004
  27.9179250  80.6050643 101.3399417  27.2739645  80.0843722 100.6312149
  28.7292742  81.6618373 100.5801120  29.5671709  82.0276056 101.1736117
  29.1000558  80.9966963  99.8002347  28.0021025  82.8498078  99.9357018
  28.6974064  83.5956558  99.2501092  26.7139981  82.9656076  99.9292710
  28.7206383  79.3851737 101.7554839  29.2884942  79.3355343 102.8437103
  28.8050766  78.4332577 100.8540251  28.0633853  78.4486003 100.1686362
  29.7936695  77.3732427 100.7746374  30.2923045  77.2591750 101.7371606
  29.1227146  76.0432275 100.4095898  28.8739264  76.2099160  99.3615351
  29.8419145  75.2277921 100.4865090  27.8364611  75.6733290 101.1934240
  27.1330265  76.5059423 101.1874557  27.1989455  74.4564091 100.4889059
  27.9016625  73.6231912 100.4948881  26.2888650  74.1672717 101.0145045
  26.9555844  74.7183983  99.4592276  27.9962225  75.4378035 102.6421963
  28.3863310  76.3383898 103.1163892  27.0294100  75.1875192 103.0789257
  28.6910390  74.6133773 102.8023540  30.9283126  77.5768542  99.8001650
  30.7590044  78.2235495  98.7837783  32.0160023  76.9532313 100.1016223
  31.9151697  76.2909665 100.8574910  33.3140190  77.1605594  99.5544873
  33.2900504  77.9657232  98.8201605  34.3129152  77.5578575 100.7040336
  33.9072188  78.4878452 101.1023205  34.2590730  76.7820395 101.4677793
  35.7732263  77.7717195 100.2963039  36.1920561  76.8241870  99.9573871
  35.8601456  78.7899945  99.1790160  35.4418984  79.7379880  99.5173596
  36.9034355  78.9334735  98.8978387  35.2977601  78.4325769  98.3164178
  36.6253212  78.2354709 101.5031853  36.5891673  77.4783346 102.2864713
  37.6579543  78.3798065 101.1854790  36.2295101  79.1751845 101.8883750
  33.9461207  76.0740052  98.7639353  34.0658079  74.9905707  99.3618072
  34.1071985  76.2038925  97.4608090  33.7126240  77.0303989  97.0350185
  34.7276218  75.2226042  96.6038288  34.8208155  74.2954455  97.1693293
  33.9517833  74.9326994  95.3103660  33.0043321  74.4924625  95.6212146
  33.7611025  75.8603727  94.7707707  34.5650107  73.9804376  94.3243677
  34.5904701  72.6140466  94.6931769  34.2703249  72.3294720  95.6954864
  35.0274666  71.6147072  93.7731509  34.9496282  70.5490279  93.9884866
  35.5662022  72.0406541  92.5703208  35.9069999  71.3052081  91.8415712
  35.6765178  73.4371916  92.2821361  36.1944719  73.7511376  91.3759012
  35.1258094  74.4048721  93.1525203  35.1549588  75.4604459  92.8823089
  36.1241260  75.5816442  96.2345834  36.3199879  76.6653840  95.6611594
  36.9872378  74.6176160  96.3797620  36.5754428  73.7803832  96.7664988
  38.4061376  74.6249441  96.1206083  38.6222424  75.4214209  95.4085531
  39.2305951  74.8366997  97.3848328  39.0003731  74.0471864  98.1002118
  40.7256150  74.8003102  97.0477465  40.9567047  75.5898895  96.3327202
  41.3073890  74.9524549  97.9568624  40.9772719  73.8326763  96.6136353
  38.8728496  76.2048564  98.0170949  39.0201330  76.9583822  97.2433978
  37.8173366  76.1621804  98.2857407  39.7043054  76.5762222  99.2602106
  40.7599594  76.6195489  98.9922232  39.3847601  77.5488287  99.6344117
  39.5571646  75.8233452 100.0345657  38.7668932  73.2734501  95.4267890
  38.4618584  72.2096942  95.9156796  39.5293952  73.3020273  94.3555490
  39.6164572  74.2427151  93.9983011  40.2392774  72.2397893  93.6729828
  40.1125026  71.2971572  94.2054038  39.6822208  72.0809916  92.2604303
  38.6667199  71.7083658  92.3946208  39.6470845  73.0909268  91.8519007
  40.4198767  71.1872344  91.3161069  41.0613507  70.5014464  91.8695567
  39.3927898  70.3917581  90.5219765  38.7511983  71.0768962  89.9678600
  39.9056041  69.7301417  89.8238461  38.7852517  69.7979632  91.2049153
  41.3414513  71.8577913  90.2807676  42.1113956  72.4315553  90.7965972
  41.8117910  71.0928684  89.6628884  40.7544787  72.5243137  89.6488577
  41.7258288  72.6865254  93.6111636  42.0513837  73.8781992  93.5245527
  42.6095691  71.6880442  93.5346951  42.2406927  70.7513843  93.4528543
  44.0773951  71.8630740  93.5662894  44.3194972  72.9246982  93.6156859
  44.6802234  71.1488826  94.8372082  45.7413562  71.3862378  94.9131032
  43.9356429  71.6446538  96.1393391  42.8744629  71.4072151  96.0643754
  44.3581143  71.1465649  97.0119928  44.0598844  72.7227346  96.2413513
  44.5027666  69.7359216  94.7059822  44.8676275  69.2946704  95.4765496
  44.6934533  71.2527102  92.3006076  44.0030701  70.8179767  91.4213285
  45.9935045  71.3450927  92.0368969  46.5894549  71.6321573  92.8001377
  46.6044763  71.1177367  90.7279811  45.9211451  71.5427053  89.9927538
  47.9169279  71.8821799  90.6700898  48.6148190  71.4622973  91.3944838
  48.3409153  71.8018926  89.6691458  47.7375846  72.9313326  90.9050661
  46.8708991  69.6707278  90.3504610  47.0575552  69.4051425  89.1740355
  46.8421375  68.7158260  91.3168167  46.8738578  69.0614840  92.2652963
  46.7850350  67.2671522  91.1071468  47.2011537  66.9587065  90.1480818
  47.6809403  66.6895012  92.2489393  48.3883638  67.4409738  92.5995673
  47.0678858  66.3506930  93.0840880  48.4510707  65.4958047  91.6617137
  47.7666760  64.6652122  91.4890268  48.9155425  65.7852014  90.7190486
  49.5671359  65.0529073  92.6827418  50.3487795  65.8101758  92.7433780
  49.1366370  64.8958435  93.6717317  50.1597141  63.7570403  92.1801707
  49.3649785  63.0111019  92.1717020  50.5094596  63.9261401  91.1617491
  51.2865124  63.2698424  93.0156502  50.9625396  63.1126778  93.9592819
  51.6401385  62.4047805  92.6326143  52.0232180  63.9607155  93.0232826
  45.3987635  66.6794761  91.1721081  45.2735816  65.4320595  91.1983253
  44.3471543  67.5118781  91.1351758  44.7433090  68.4094483  91.3750269
  42.8879693  67.4086804  90.9983937  42.4373950  68.3981900  90.9212398
  42.5701213  66.6274449  89.7261426  42.8020283  65.5773266  89.9038217
  41.4898747  66.7530570  89.6527331  43.2282656  67.0819658  88.4150809
  42.8536717  68.3425438  87.8062660  42.0313565  68.8824791  88.2756988
  43.4741174  68.8648220  86.6982924  43.1454118  69.8132320  86.2733534
  44.5722554  68.2112809  86.1657768  45.1063965  68.8732389  85.0998397
  44.6379320  69.6841651  84.8887960  45.0268218  66.9673420  86.6312126
  45.8796821  66.4349885  86.2101075  44.2918342  66.3952685  87.7347593
  44.5346158  65.3939891  88.0905638  42.0971369  66.9033779  92.2139090
  40.9072006  66.6625985  92.1430168  42.7734410  66.8425871  93.3957496
  43.7814108  66.9030219  93.4168212  42.0535787  66.7592719  94.6742808
  41.4056533  65.8831397  94.7004377  43.0811255  66.6375324  95.7897072
  43.6051772  67.5923647  95.8317120  42.5641080  66.4655877  96.7337559
  44.1402863  65.4909170  95.5798300  45.2646823  65.7044516  95.2610157
  43.7127267  64.2669438  95.7414728  44.3494875  63.4925544  95.6191762
  42.7474473  64.1008851  95.9879701  41.2784770  68.0795243  94.8803294
  41.7093245  69.2053132  94.6551016  40.0153600  67.9270559  95.3314101
  39.6897658  67.0053357  95.5854174  39.0972180  69.0471140  95.4752996
  39.5737410  70.0063392  95.6775671  38.3068728  69.1537582  94.1125665
  37.8166709  68.2034899  93.9009245  37.5561379  69.9404056  94.1879544
  39.0014297  69.3911032  93.3067394  38.1765725  68.7711643  96.6003118
  38.0357231  67.6753587  97.1969101  37.4896225  69.8710527  97.0320283
  37.5547978  70.7505824  96.5398099  36.6193913  69.8025752  98.2603396
  36.1253749  68.8324705  98.3145966  37.5037062  69.9947300  99.5633828
  36.8621898  70.2633385 100.4026715  38.0264523  69.0653010  99.7892111
  38.7804198  71.2812063  99.4740233  39.2453193  71.1015880 100.7071105
  35.5537451  70.9154114  98.1919006  35.6826831  71.9829433  97.5537967
  34.4908965  70.7159652  98.9240216  34.4108383  69.7577033  99.2329297
  33.4661792  71.6627435  99.3391689  33.5766798  72.6926675  98.9998382
  32.0607384  71.1439050  98.9602395  32.0725184  70.0752733  99.1746877
  30.8382913  71.8112863  99.6904966  30.8255758  72.8799235  99.4761293
  29.9118530  71.3591596  99.3363860  30.9289337  71.6580127 100.7658525
  31.8302614  71.0931887  97.4110335  31.6167831  72.1005139  97.0535092
  32.7365479  70.7226518  96.9320276  30.6538159  70.1675609  97.0656843
  29.7470157  70.5377429  97.5439923  30.5117551  70.1473740  95.9851703
  30.8667799  69.1598807  97.4225130  33.5312768  71.8294231 100.8489391
  33.5162084  70.7969546 101.5860244  33.9154399  73.0336204 101.2880356
  34.0393822  73.7028972 100.5418411  34.2231643  73.4516876 102.6485324
  34.3919986  72.6034406 103.3119110  35.5526628  74.2785803 102.5435937
  35.2646125  75.0671688 101.8484285  35.7945605  74.7183802 103.5111481
  36.7474767  73.5589542 102.0118230  36.4503011  72.9370220 101.1674370
  37.7886008  74.5675633 101.5559237  38.0866288  75.1895993 102.3999316
  38.6602986  74.0405721 101.1679495  37.3667462  75.1970351 100.7724032
  37.2865308  72.5578368 103.0503902  36.5127137  71.8278201 103.2878395
  38.1571786  72.0440974 102.6427807  37.5717935  73.0919775 103.9567112
  33.0838028  74.2276914 103.2471729  32.4077946  74.9077677 102.5511218
  33.0785823  74.2991880 104.5527483  33.7118630  73.6748820 105.0315978
  32.1481307  75.0755562 105.3467667  31.8953692  76.0006005 104.8285931
  30.8680159  74.2793174 105.5746061  30.3701130  74.1874278 104.6093351
  31.1623912  73.2906022 105.9265798  29.8987173  74.9225611 106.5955492
  30.3647338  75.0019319 107.5777048  29.7962634  75.9169938 106.1611462
  28.4595132  74.2575384 106.7435203  28.2934414  73.1270811 106.2855666
  27.6510581  74.8694054 107.4272381  32.7280320  75.6337567 106.6666882
  33.4277425  74.9293090 107.2969348  32.4834162  76.8906019 107.0332429
  32.3532606  77.5811868 106.3078111  32.6967788  77.3540091 108.3974995
  33.6727857  77.0230059 108.7523892  32.6477469  78.8870525 108.4557387
  33.4834343  79.1132343 107.7934944  31.7295553  79.2957024 108.0338032
  32.8979957  79.5063949 109.8118944  31.7398027  79.8897840 110.5576711
  30.7623191  79.5755850 110.1917420  31.8344651  80.6251166 111.6932252
  30.9533349  80.7974329 112.3113018  33.1322157  80.9735641 112.1845810
  33.2904209  81.7695997 113.2979891  32.4556532  82.0466940 113.6826725
  34.2724209  80.6905058 111.4083877  35.2268344  81.1176815 111.7161480
  34.2014809  79.8715042 110.2505009  35.1164601  79.5570542 109.7484706
  31.9426820  76.6636310 109.5161411  30.7764041  76.3530582 109.4566573
  32.7151680  76.3489804 110.5814647  33.7220684  76.3816451 110.5094644
  32.1285193  75.9047319 111.8334007  31.0790623  76.1990625 111.8229742
  32.2124323  74.3865828 112.1002114  31.7558286  73.8843307 111.2473603
  33.2698105  74.1267904 112.1508020  31.5442636  73.9585869 113.3347883
  32.0747157  74.4641592 114.1417071  30.5295429  74.3506649 113.2660950
  31.4914055  72.4405415 113.6248299  30.6469611  72.2457491 114.2859415
  31.3424845  71.9149970 112.6815776  32.7767533  71.9482627 114.2835406
  33.6036986  72.1494839 113.6025324  32.9208054  72.5114561 115.2055825
  32.7325681  70.5007454 114.5915702  32.5995232  69.9786726 113.7372642
  33.6014092  70.2220394 115.0246269  31.9666317  70.3141396 115.2229329
  32.7676422  76.6164308 113.0776846  33.9622907  76.8120204 113.1245212
  31.9125469  77.1006567 113.9651926  30.9613138  77.1881192 113.6371601
  32.2574001  77.6869108 115.2722141  33.2771437  77.3980875 115.5267791
  32.1667059  79.2091014 115.2761258  32.5769477  79.5933390 116.2100222
  32.7381092  79.6074960 114.4377465  30.7007374  79.6406598 115.1462651
  30.5087225  79.4611499 114.0884336  30.0035970  79.0554576 115.7459615
  30.4732956  81.1155049 115.4379328  31.1749600  81.9929610 114.9515709
  29.5899088  81.3882089 116.3652786  29.3940861  82.3496626 116.6047815
  29.1084913  80.6358211 116.8367140  31.4594077  76.9697079 116.3196195
  30.2933779  76.6520790 116.0556946  32.0755676  76.5816839 117.4763188
  32.9438847  77.0569038 117.6770445  31.5849866  75.5709328 118.4480231
  30.5061542  75.6979826 118.5379024  31.8823466  74.0869276 118.0613842
  32.9579564  73.9127127 118.0898781  31.3881109  73.4212243 118.7689647
  31.3907272  73.8277762 116.7373479  31.5739908  72.9155993 116.5008156
  32.1751742  75.6393750 119.9060643  33.3696838  75.3110918 120.0338410
  31.4831756  76.2024339 120.9334180  30.5152424  76.4361709 120.7643863
  32.0444164  76.4875998 122.2513631  31.3545749  77.1730934 122.7436196
  32.0654399  75.5423601 122.7937459  33.4047257  77.0809120 122.2620998
  34.2815456  76.5683986 122.9269365  33.5948317  78.1384897 121.5027796
  32.8977442  78.1779948 120.7729798  34.7496049  78.9676463 121.3808124
  34.4537789  79.8644162 120.8363955  35.3955706  79.3948265 122.7271761
  35.5589341  78.4751056 123.2888922  36.3573215  79.8402258 122.4727067
  34.6111510  80.3493895 123.5564266  35.2659129  80.7431365 124.3338267
  34.3156000  81.1575165 122.8873380  33.3650296  79.7396733 124.2004363
  32.1634503  80.1460233 124.0397719  33.5700249  78.7340838 124.9287217
  35.7897863  78.6482513 120.3261700  36.5819042  79.4959235 119.9096943
  35.7635501  77.3969367 119.8311957  35.0814434  76.8173558 120.2990800
  36.6121955  76.8001376 118.9076370  37.6064607  77.2438712 118.9589825
  36.7293657  75.2572171 119.2386376  35.7689566  74.7612132 119.0983031
  37.4780706  74.7847066 118.6028116  37.1182295  75.1480252 120.5747780
  37.1990971  74.2207438 120.8097449  36.1898236  77.1211843 117.4397365
  35.0338748  76.9790103 117.0729138  37.2132036  77.3424357 116.5876706
  38.0994858  77.4794551 117.0522444  37.1436080  77.5725711 115.1374623
  36.0951047  77.6873286 114.8625609  37.9453533  78.8841925 114.7281608
  38.9903028  78.7657268 115.0147736  37.8558927  79.1120184 113.2482195
  36.8112011  79.2310461 112.9608999  38.4095973  80.0131615 112.9846798
  38.2817794  78.2576318 112.7221556  37.1844199  80.0371534 115.5555031
  37.3716795  79.7941545 116.6014410  37.7117874  80.9551846 115.2962702
  35.6727349  80.2348710 115.3374637  35.1446182  79.3173417 115.5969489
  35.3174303  81.0490351 115.9691239  35.4847259  80.4783697 114.2917769
  37.5379877  76.3072525 114.2815682  38.4908130  75.6263049 114.5801153
  36.7348230  75.9303914 113.2623351  35.9272035  76.5042639 113.0660688
  36.9525273  74.7488162 112.4499708  38.0230200  74.5514816 112.3933699
  36.2818810  73.5567912 113.0048186  35.3278824  73.9867250 113.3100116
  36.1098206  72.7947386 112.2447061  36.9734946  72.9150027 114.2305711
  38.1353463  72.4358169 114.0775563  36.2610777  72.7922598 115.2562228
  36.4123088  74.9862546 110.9896749  35.5545088  75.7863213 110.6674245
  36.9898359  74.2740417 110.0748038  37.7892958  73.7516525 110.4035478
  36.7018744  74.2765698 108.6222909  35.7498780  74.6650721 108.2605339
  37.9158435  74.9123303 107.7440143  38.8240534  74.3408363 107.9354551
  37.5807119  74.8655111 106.2043589  36.6728152  75.4372144 106.0120581
  38.4071468  75.2959784 105.6388469  37.4301160  73.8309219 105.8960648
  38.4871385  76.2449233 108.3306274  38.6435593  76.0906048 109.3982505
  39.4460476  76.4296915 107.8464232  37.5436137  77.4831775 108.1132768
  36.5846032  77.2993281 108.5976302  38.0039333  78.3716717 108.5454608
  37.3870896  77.6384134 107.0458022  36.2898494  72.8673039 108.2028044
  37.2015637  72.0610120 108.0047352  34.9674623  72.5993565 108.0921542
  34.2957843  73.3527877 108.1280630  34.4573689  71.2012255 107.9488064
  35.1412223  70.3873192 108.1896389  33.1863576  71.0874247 108.8328588
  32.5689804  71.9697921 108.6644146  32.3909883  69.8468414 108.5040324
  33.0075971  68.9639770 108.6726874  31.5086656  69.8004903 109.1423575
  32.0817056  69.8791989 107.4593332  33.5181875  71.2274110 110.3015636
  33.9863432  72.2109587 110.3411215  32.5301312  71.2772272 110.7591252
  34.3775746  70.2262495 111.0590512  35.3660054  70.1762233 110.6023218
  34.4735041  70.5417345 112.0979766  33.9097941  69.2424907 111.0203235
  34.1500853  70.8846659 106.5218790  33.6987601  71.7898485 105.8093750
  34.5514105  69.7357187 106.0176247  34.9992629  69.0940271 106.6561851
  34.4872785  69.3720085 104.5949578  34.3295598  70.2508825 103.9698143
  35.8424669  68.7516860 104.2352127  36.0001843  67.8815515 104.8724657
  35.9047513  68.3119529 102.7193934  35.7475714  69.1816998 102.0814793
  36.8814956  67.8775534 102.5063987  35.1282266  67.5727263 102.5227869
  36.8900083  69.5903518 104.4141307  37.7036949  69.1422067 104.1718904
  33.3398285  68.5118673 104.3724612  33.3559457  67.3460079 104.7940226
  32.2627649  69.0238858 103.7358420  32.2622898  70.0085682 103.5111203
  31.0430593  68.2245550 103.4167160  30.5884746  67.8931554 104.3503252
  29.9922697  69.0316020 102.6135048  30.4791559  69.4656268 101.7401987
  29.2041850  68.3519999 102.2892152  29.3802561  70.1549542 103.4708502
  29.2388678  69.7360080 104.4671405  30.1269987  70.9478449 103.5133001
  28.0798920  70.7187101 102.9763087  28.2679529  71.1623899 101.9986174
  27.3837765  69.8867921 102.8693733  27.4742101  71.7267772 103.8380420
  28.0705150  72.0995562 104.5629941  26.2776606  72.2501894 103.6784451
  25.5368199  71.9952929 102.6321130  25.8812075  71.3765349 101.9119493
  24.6234674  72.4182914 102.5486919  25.8925214  72.9167325 104.6921857
  26.4937478  72.9940134 105.5000562  24.9875509  73.3651263 104.6838141
  31.4353223  66.9627268 102.6592310  31.0677314  65.8234233 103.0623294
  32.1482580  67.1582537 101.5231835  32.4235241  68.1115696 101.3347251
  32.4716681  66.1399100 100.5375831  32.6746047  65.1606512 100.9711361
  31.1945911  66.0353174  99.6441870  30.9837566  67.0061614  99.1957332
  31.3606786  65.3002615  98.8566542  30.3469289  65.7264422 100.2558765
  33.7504819  66.5219822  99.7896578  34.1459601  67.6964557  99.7291019
  34.3322215  65.4399706  99.2487937  33.8541621  64.5503416  99.2596949
  35.7162470  65.4858676  98.7296492  35.8846778  66.3944309  98.1515117
  36.6665194  65.4796981  99.9095214  37.6194883  65.9511634  99.6693758
  36.1457767  66.0753561 100.6592671  37.0024134  64.1094539 100.5814997
  36.2305267  63.4743407 101.5699749  36.9519720  62.3330490 101.8551188
  36.4681879  61.6415142 102.5449242  38.1398441  62.2672006 101.2280352
  38.8866478  61.5921647 101.3099540  38.1545503  63.3778574 100.3850280
  38.9985871  63.5425755  99.7152736  35.9126806  64.3571239  97.7705968
  35.3640061  63.2723822  97.8933067  36.7973273  64.6224817  96.8741385
  37.1001425  65.5806555  96.7726244  37.3939986  63.5997436  95.9849905
  37.9176412  62.8703297  96.6029330  36.5889912  63.1042339  95.4422819
  38.3742658  64.1950619  94.9828072  38.2094224  65.3607755  94.6063401
  39.3100893  63.3653481  94.4442793  39.5521380  62.4920826  94.8902830
  40.0242095  63.7411683  93.2037719  40.3934671  64.7667000  93.1980447
  41.2347312  62.7804904  93.2378601  41.7610983  62.6330339  94.1808837
  40.7048234  61.8660306  92.9712871  42.2586020  63.0843566  92.1510869
  41.9400251  63.4038404  91.0231366  43.5091185  63.2590375  92.4813959
  44.1936038  63.4607861  91.7666392  43.7865011  63.1916506  93.4502192
  39.0446502  63.5382546  91.9649295  38.1537012  62.6398287  91.9471558
  39.1931912  64.3183049  90.9021279  39.9016196  65.0298231  91.0115370
  38.3907767  64.3231462  89.6845826  37.8952381  63.3629681  89.5410601
  37.2995255  65.4363190  89.7982268  36.7207387  65.4268056  88.8746389
  36.3668688  65.2400057  90.9822541  36.9449162  65.2498683  91.9063021
  35.6329440  66.0455781  91.0047937  35.8529677  64.2835875  90.8859649
  37.9207830  66.8757403  89.9587396  38.5422446  67.1024842  89.0924401
  37.1199661  67.6114238  90.0333163  38.5304408  66.9102914  90.8616374
  39.3556957  64.4686637  88.4565105  38.9484819  64.8205716  87.2987580
  40.5675607  63.9973642  88.5116914  40.9618323  63.8296041  89.4262983
  41.4373374  63.7958808  87.3203922  41.7147436  64.7427487  86.8571578
  42.7011999  63.1106907  87.8214431  43.4237554  63.1998984  87.0102373
  43.0369491  63.7023801  88.6730746  42.5774686  61.6159975  88.2443330
  41.6613623  61.3797558  88.7856644  42.5351014  61.1736284  87.2490357
  43.7426449  61.0187305  88.9869798  44.8695848  61.5310782  89.0133513
  43.5601828  59.9812147  89.8494120  44.3520996  59.5913181  90.3402786
  42.6337235  59.6060758  89.9944818  40.8568902  63.0317845  86.0879272
  39.8689182  62.2780008  86.3070400  41.4533153  63.0006463  84.8909353
  42.1138973  63.7444188  84.7161981  41.1856901  62.0119401  83.7904618
  40.4729470  61.2719819  84.1545476  40.6031244  62.6746710  82.5065717
  41.1894831  63.5869992  82.3973012  40.6842935  62.0800513  81.5966602
  39.1285324  63.0393437  82.7506319  38.2840673  62.1692129  83.1664937
  38.6490698  64.1672560  82.4318522  42.5142595  61.2134632  83.4120242
  43.6302577  61.7002576  83.6251371  42.3089435  60.0664816  82.7365254
  41.3452893  59.8112816  82.5742210  43.3454060  59.1354880  82.3289869
  43.8374120  58.7474690  83.2208784  42.7936164  57.9534704  81.5196170
  42.2514767  58.3772088  80.6742594  43.6544997  57.3933599  81.1545743
  41.8306030  56.9770069  82.3324973  40.9795458  57.5709837  82.6656551
  41.4884468  56.2117493  81.6357821  42.4984810  56.2993903  83.5568456
  41.9488980  55.3818966  83.7672328  43.5234397  56.0529146  83.2797015
  42.5241191  57.1010732  84.7430485  43.2848265  57.7596256  84.8309824
  41.6004622  57.0413938  85.7369727  40.5571641  56.2809242  85.7921089
  40.3620369  55.6408508  85.0355829  39.9417807  56.3302105  86.5914671
  41.7633901  57.8423107  86.8033927  42.5573669  58.4650606  86.8467914
  41.0911488  57.8179750  87.5567837  44.5045250  59.7991952  81.5494244
  45.6197497  59.2470168  81.5024473  44.2277522  60.9292952  80.8928547
  43.2862356  61.2928408  80.9313318  45.1786440  61.5873162  80.0364605
  46.0703770  61.8697143  80.5960700  45.5796428  60.8320910  78.8068566
  45.8268380  59.8088561  79.0896733  44.4498235  60.8171540  77.7814073
  44.2023693  61.8400906  77.4977387  44.7671952  60.2624622  76.8984051
  43.5716709  60.3382256  78.2145062  46.9314553  61.1917803  77.9765166
  47.0268419  60.4616558  77.1728248  46.7995116  62.1860188  77.5496910
  48.1773944  61.1707143  78.8244665  48.3102664  60.1765979  79.2512891
  49.0412844  61.4193290  78.2080381  48.0829350  61.9009599  79.6281571
  44.5932209  62.9674358  79.7055212  43.3996394  63.2040141  79.9669879
  45.4413563  63.9161983  79.2716155  46.4144141  63.6822819  79.1354507
  45.0046490  65.3032950  78.9820998  44.4815437  65.3031801  78.0258258
  44.3198434  65.6163621  79.7702176  46.1429530  66.2706208  78.9139475
  47.0381191  66.1255670  79.7156339  46.0864076  67.3058142  78.1143161
  45.2914327  67.3796333  77.4957168  47.1539378  68.3599645  78.0312783
  48.1504799  67.9602598  78.2189992  47.0914590  68.8922031  76.5186123
  46.9095444  68.0332522  75.8726946  46.2530629  69.5849420  76.4457787
  48.3382198  69.5775510  76.0911514  48.3702717  70.5148897  76.6465520
  49.1583341  68.9362690  76.4140631  48.4796079  69.8742464  74.5558217
  49.5128431  70.1536214  74.3497306  48.2314641  68.9683943  74.0026887
  47.5697499  70.9953200  74.0865559  46.7960415  70.7443593  73.4878128
  47.7518128  72.3110043  74.3978903  48.8045598  72.7735067  74.9312065
  49.5708706  72.1529146  75.1496856  48.8720332  73.7604039  75.1351203
  46.8577212  73.1163693  74.1892746  45.9855016  72.8048684  73.7864097
  46.9950021  74.0898759  74.4206565  46.9336268  69.4954793  79.0666329
  45.7796418  69.8174746  79.2660186  47.9232248  70.1446590  79.6409590
  49.2898543  69.7739559  79.5027276  49.4804609  69.6300047  78.4392204
  49.4235963  68.8275337  80.0266524  50.1521950  70.9206082  80.1162396
  50.6051096  71.5065572  79.3164701  50.9360398  70.4946170  80.7425143
  49.1897861  71.7620641  80.9462625  49.3686126  72.8335129  80.8561648
  49.2385361  71.4731125  81.9961339  47.7698704  71.4028914  80.3537253
  47.0592916  71.2179842  81.1593216  47.2867461  72.5730665  79.5113222
  48.0606848  72.8837698  78.5657767  46.2922599  73.3675585  79.8036812
  45.9513412  73.2057793  80.7405384  45.7035515  74.4686197  79.0284441
  45.3953549  74.1192608  78.0430191  44.4696614  74.9995820  79.7681306
  44.7919200  75.4098821  80.7251585  44.0214718  75.7905015  79.1667385
  43.5096138  73.9718477  79.9917482  42.7522809  74.3367862  80.4552853
  46.6863760  75.6066688  78.9956847  47.0934149  76.0775053  80.0500312
  47.0028698  76.2559650  77.8753570  46.9771952  75.7242397  77.0170399
  47.5584860  77.6166120  77.8360203  48.5797227  77.5783277  78.2151102
  47.5800832  78.2419063  76.4112341  46.6016481  78.0441967  75.9734272
  47.7059240  79.3159093  76.5482807  48.6991081  77.7028094  75.4542327
  48.8273672  78.3026315  74.5531978  49.5583643  77.8444733  76.1097548
  48.5862633  76.2016818  75.0653830  49.5093941  75.4291546  75.4977673
  47.5363072  75.7907559  74.5248508  46.9582726  78.6547182  78.8608049
  47.8222483  79.3253341  79.4327762  45.6251988  78.7001062  79.1286130
  45.0095997  78.3552381  78.4059767  45.0517742  79.5582325  80.1872147
  45.8391305  80.2356548  80.5177723  43.8580548  80.3951032  79.6937754
  43.7160410  81.2193819  80.3927009  44.0700748  80.9532773  78.2825181
  44.2117074  80.1295130  77.5829096  43.1970623  81.5348285  77.9862978
  44.9524849  81.5930928  78.2730681  42.7208358  79.6226695  79.6270726
  41.9872160  80.1592651  79.3180947  44.9617288  78.8412973  81.5585705
  44.2088329  79.2711419  82.4272910  45.5698137  77.7035237  81.8178098
  46.1965339  77.4227699  81.0772030  45.4519731  76.8337490  82.9995147
  46.0687124  75.9650037  82.7692684  45.9110347  77.4001027  83.8098266
  44.0525837  76.3522714  83.4514990  43.0444929  76.2914647  82.7045890
  43.9401730  75.8474729  84.6835608  44.7650626  75.9010555  85.2638930
  42.7294051  75.1424169  85.2290899  42.1666035  74.4999485  84.5518987
  43.1654873  74.3173219  86.4909459  43.7691949  74.9856375  87.1049424
  41.9895642  73.7377386  87.3508751  41.3856393  73.0689195  86.7376408
  42.3961889  73.1852186  88.1979162  41.3681812  74.5555688  87.7157532
  44.2431727  73.2063116  86.1469340  43.7210118  72.3785673  85.6670505
  44.9535665  73.6429278  85.4449322  45.0005643  72.6861578  87.3889115
  44.2908309  72.2489492  88.0912127  45.7226132  71.9286999  87.0839491
  45.5233840  73.5133109  87.8690960  41.6181992  76.1293957  85.5328206
  41.9013756  77.2447865  85.9211717  40.3520301  75.8280871  85.2924917
  40.2061412  74.9229251  84.8688202  39.1696654  76.6675676  85.5759824
  39.1806720  77.5146732  86.2618324  38.6247420  77.1260616  84.1966391
  38.7440429  76.2837560  83.5151782  37.1539639  77.5763511  84.2021261
  37.0339587  78.4189838  84.8830590  36.8621326  77.8783028  83.1962631
  36.5220754  76.7513116  84.5309513  39.5345137  78.0433932  83.3789899
  39.5644973  78.9992460  83.9020072  40.5262091  77.5912205  83.3923900
  39.0970354  78.2683525  81.9318742  38.1055492  78.7209596  81.9176714
  39.8058674  78.9318192  81.4364264  39.0672588  77.3129330  81.4080546
  38.1710395  75.7731953  86.3376690  37.9574589  74.6201568  85.9222241
  37.5742831  76.3219188  87.4241193  38.0065033  77.0876785  87.9210068
  36.2904549  75.8211351  87.9058672  35.8306618  75.2033487  87.1344856
  36.4491748  75.2228676  88.8030759  35.3566222  76.9734956  88.2385405
  35.7288539  78.0366828  88.8331097  34.1280741  76.7595290  87.8598785
  34.0372261  75.8008743  87.5552028  32.9704808  77.6586779  87.6941743
  32.9101575  78.5191428  88.3605529  32.7803190  78.1319842  86.2114590
  31.7632232  78.5042273  86.0887746  33.7796975  79.2472453  85.8614684
  34.7970876  78.8755845  85.9834775  33.6290470  79.5596881  84.8281317
  33.6222975  80.0980521  86.5243804  32.6934543  77.0324406  85.2118554
  33.7082236  76.8443292  84.8612014  32.3236933  76.1540451  85.7408143
  31.7627498  77.3334934  83.9831580  32.1321717  78.2115477  83.4533958
  31.7615733  76.4769080  83.3090963  30.7476412  77.5212660  84.3330093
  31.7328027  77.0070481  88.2735779  31.7098352  75.7188416  88.3249426
  30.8263353  77.7837253  88.8551330  30.9592019  78.7830366  88.9169609
  29.6080064  77.1886011  89.4916831  29.3607348  76.1809500  89.1576246
  29.7816462  77.1946517  91.0610761  29.8475244  78.2062931  91.4615037
  28.4947992  76.5132823  91.5896076  28.4284592  75.5013665  91.1899502
  28.5258238  76.4720467  92.6783857  27.6233321  77.0863023  91.2729180
  31.1237262  76.5619098  91.4833285  31.1881497  75.6297373  90.9220755
  31.8884522  77.2527515  91.1283195  31.3422688  76.2804390  92.9562631
  30.5781441  75.5892567  93.3119038  32.3276298  75.8370496  93.0996808
  31.2784443  77.2122713  93.5181483  28.3414665  77.9515795  89.0771874
  28.1677709  79.1854405  89.3911489  27.3831766  77.2128434  88.5067924
  27.6306915  76.2415112  88.3828994  26.1227580  77.6603579  88.0034030
  26.2104297  78.2485720  87.0899387  25.3679848  76.3279785  87.6705255
  25.7762080  75.8657893  86.7717295  25.4944504  75.6515241  88.5158160
  23.8454161  76.6207068  87.4605172  23.4472880  77.5846061  86.7619923
  23.0596810  75.8664664  87.9674460  25.4310217  78.5839843  89.0559173
  25.3434127  78.1488413  90.1973205  24.7727975  79.7171091  88.7202225
  24.8294992  80.4619112  87.4215140  24.1116276  80.0048643  86.7404348
  25.8350873  80.3531542  87.0152339  24.4881788  81.9085007  87.7454508
  24.0899681  82.4637333  86.8961899  25.3171105  82.4632004  88.1850891
  23.4159951  81.6322037  88.7766651  22.4356195  81.3269570  88.4108957
  23.3134774  82.5343266  89.3797937  24.0381426  80.4960421  89.6265935
  24.7957361  80.8933086  90.3021153  22.9004059  79.8685332  90.4464360
  22.6772623  80.3121380  91.5152942  22.2056059  78.8265025  89.9453983
  22.3198858  78.6967312  88.9503109  21.2549849  78.0127422  90.6283243
  20.7830545  78.6106423  91.4080014  20.1693208  77.4674808  89.7086023
  20.6564655  76.7513198  89.0468601  19.4573327  76.9450182  90.3475122
  19.4346994  78.5083502  88.8763097  20.2631999  78.9589081  88.3297886
  18.7626145  78.0148816  88.1742486  18.6817967  79.5821569  89.6227070
  18.6137699  79.6467362  90.8567665  18.0221344  80.3601639  88.9461336
  21.8777366  76.8556508  91.4707975  21.1723115  76.0694869  92.0949150
  23.1637166  76.6693849  91.5143230  23.7377301  77.2889299  90.9604532
  23.8147440  75.5269463  92.1886481  24.8451311  75.4478544  91.8420272
  23.8217784  75.6891947  93.6869718  22.8268925  75.6315715  94.1285382
  24.4836902  74.9848256  94.1907941  24.4456946  77.3251641  94.0781808
  24.3470330  77.1995107  95.3985502  23.2642322  74.1699948  91.7846404
  23.2443096  73.1604668  92.5019983  22.9097100  73.9391568  90.5036935
  22.6911119  74.7523901  89.9460505  22.6874167  72.5979544  89.9090407
  22.1492808  71.9868563  90.6336564  21.8849929  72.6347451  88.6099832
  22.5687708  73.0923610  87.8950464  21.7482945  71.5828555  88.3591007
  20.5289132  73.3546235  88.5540207  19.7786247  72.7072061  89.0079136
  20.6072546  74.2775346  89.1286508  20.1247651  73.6763959  87.1427007
  20.5693528  72.9681990  86.4434884  19.0399420  73.6567307  87.0384338
  20.6133325  75.0498421  86.8091572  21.6008325  75.1691556  86.9843922
  19.9125561  76.0996126  86.2886101  18.6427804  76.1828832  86.0168515
  18.0387456  75.3929886  86.1937932  18.2671703  77.0370207  85.6302434
  20.5888698  77.2024893  86.0488773  21.5777410  77.2388820  86.2511380
  20.1160101  78.0075653  85.6637082  23.9878373  71.8748752  89.7426593
  23.9457918  70.6596109  89.6433673  25.1181590  72.6087013  89.5978180
  25.0803416  73.6178610  89.5815098  26.4312204  71.9347352  89.2657438
  26.6772850  71.2311622  90.0610654  26.3750457  71.1618666  87.9189132
  27.3947570  70.8535835  87.6881545  25.7581429  70.2789417  88.0861691
  25.8123237  71.9590227  86.7559450  24.7801525  72.2193047  86.9904159
  26.4015844  72.8700978  86.6519437  25.8564741  71.0098720  85.1424790
  24.8889783  69.5723374  85.7479071  23.9046319  69.9077777  86.0744667
  24.7761660  68.8450637  84.9438879  25.4107831  69.1092897  86.5854080
  27.6741810  72.9345259  89.3448363  27.6211463  74.0635320  88.9643228
  28.8060383  72.4175441  89.8563076  28.6711210  71.6612020  90.5119319
  30.1876979  72.8452154  89.5550135  30.3244645  73.9265692  89.5467698
  31.1464067  72.2136533  90.5863194  31.1246391  71.1251000  90.5345679
  32.5863100  72.7294136  90.1999195  32.6089890  73.8179377  90.2518956
  33.3187457  72.3176910  90.8942704  32.8275110  72.4094850  89.1862297
  30.7974280  72.4766079  92.0497874  31.0155811  73.5250244  92.2530920
  29.7282897  72.2992613  92.1663683  31.5638872  71.6027069  93.0246138
  32.6331572  71.7798522  92.9089378  31.2641211  71.8453887  94.0440965
  31.3458674  70.5540883  92.8222124  30.5117188  72.3503656  88.1184290
  30.2559541  71.1415489  87.8722510  30.9355273  73.1843432  87.2060756
  30.7778279  74.1551718  87.4356887  31.5855315  72.8712925  85.9433215
  31.5027071  71.7959608  85.7855213  31.0471455  73.3963122  85.1542751
  33.0360430  73.2632708  85.8902600  33.4868291  74.2205117  86.5683793
  33.9210240  72.5133929  85.2580183  33.4569230  71.9196646  84.5855629
  35.4134683  72.4660481  85.3344285  35.8289155  73.3782034  85.7627689
  35.7598016  71.2692572  86.2768157  35.4859370  70.3313633  85.7936464
  36.8376802  71.4138876  86.2036051  35.3552436  71.2223474  87.7346228
  34.2686205  71.2194360  87.8203109  35.9240139  69.9285708  88.3580796
  37.0106991  69.9309730  88.2731773  35.6423754  69.8771598  89.4098103
  35.5208884  69.0633332  87.8318152  36.0692302  72.2342263  88.6001886
  35.8538454  73.2394289  88.2378676  35.7259840  72.1385548  89.6303004
  37.1436742  72.0557182  88.5577174  36.1192119  72.1571936  83.9624704
  35.7002644  71.2451468  83.2865425  37.0556209  72.9757367  83.6192106
  37.1094797  73.8816139  84.0625899  38.0781306  72.6291363  82.5988695
  37.7555175  71.7274832  82.0782530  38.2936287  73.7264496  81.5779478
  37.3089704  73.9861684  81.1892405  38.7058581  74.5776432  82.1198300
  39.2373638  73.3579482  80.3955453  40.1611195  72.9895114  80.8416735
  38.7491534  72.5490681  79.8519777  39.5639875  74.5211603  79.4118988
  39.7782735  74.1385721  78.4139976  38.7375728  75.2299200  79.3590030
  40.7209685  75.2027356  79.8989183  41.3202251  74.6495056  80.4946763
  41.0418575  76.4895989  79.6843300  40.5095418  77.2242119  78.7607064
  39.8075475  76.8318711  78.1496639  40.7987700  78.1861835  78.6555531
  41.9543254  77.0648097  80.3625482  42.4495240  76.5495754  81.0762792
  42.1780521  78.0332481  80.1831818  39.4501367  72.3710994  83.2053679
  40.1072042  73.3068831  83.7151139  39.8113652  71.1456418  83.3954012
  39.1205653  70.5011597  83.0382772  41.0413892  70.5811298  84.0513481
  41.4549214  71.2594551  84.7976490  40.5764806  69.2589894  84.7746120
  40.1696884  68.5690329  84.0353019  41.4814353  68.8336784  85.2085101
  39.5504564  69.4893760  85.8698263  38.5737673  69.7454204  85.4591919
  39.4536095  68.1045758  86.6406856  40.4298809  67.8480743  87.0520250
  38.7293499  68.1890269  87.4508811  39.1350221  67.3246606  85.9490681
  39.9481195  70.5816041  86.9229354  40.0903437  71.5378139  86.4194134
  39.1557190  70.6768096  87.6653226  40.8750409  70.2903008  87.4169578
  42.1547212  70.2786082  83.0452678  43.3845072  70.3601200  83.3407661
  41.8700495  69.8315661  81.8036618  40.8990426  69.5852757  81.6748749
  42.7863345  69.7233669  80.6357938  43.8072708  70.0246551  80.8703436
  42.7833588  68.2436361  80.2943675  41.7851078  68.0282410  79.9133175
  43.5167531  68.0761366  79.5055857  43.0864435  67.3244471  81.4735979
  44.3974657  67.1692008  81.9103876  45.1744881  67.7828105  81.4545160
  44.7162363  66.2866253  82.8723453  45.7668689  66.1212934  83.1109627
  43.7440106  65.5814830  83.5333541  44.0092690  64.6982302  84.5041432
  44.9478060  64.6120952  84.6867050  42.3493991  65.7978505  83.2056471
  41.5530255  65.3464522  83.7973642  42.0236794  66.6283223  82.0725786
  40.9936565  66.6920296  81.7217309  42.3154404  70.4904831  79.3778875
  41.0994859  70.7964201  79.2883045  43.1803009  70.8306665  78.4769981
  44.1573123  70.6201736  78.6227404  42.7954280  71.5313824  77.2456122
  42.4385208  72.5350948  77.4764320  44.0209465  71.6456528  76.3173877
  44.7453799  72.2157889  76.8989720  44.4337673  70.6638198  76.0856921
  43.7061610  72.4072044  74.9847409  44.2872973  72.0084419  73.9402635
  42.9756827  73.4204843  74.9729327  41.6451202  70.8433337  76.4150137
  41.5797747  69.6323160  76.1696563  40.6178466  71.6463731  76.0678660
  40.7609646  72.5579828  76.4784564  39.4491380  71.4369739  75.2754790
  39.1427210  72.4362510  74.9662007  39.8007454  70.8802018  74.4068730
  38.2552631  70.7174460  75.8726626  37.3724504  70.3848224  75.0567746
  38.3502834  70.3953701  77.1794362  39.0351786  70.8325023  77.7793806
  37.5007403  69.3906371  77.7399094  36.7882858  69.0103224  77.0078790
  38.4048613  68.2529488  78.1724595  39.2172143  68.7824451  78.6702702
  37.8849261  67.6242052  78.8952658  38.9845792  67.3656730  77.0376561
  39.4377913  68.0325982  76.3042323  40.0403192  66.3385076  77.5239125
  39.5876882  65.6708958  78.2570690  40.3988943  65.7558827  76.6753414
  40.8772985  66.8659295  77.9815064  38.0655707  66.5593042  76.1409518
  37.3850675  67.2316756  75.6185232  38.6600106  66.0071632  75.4130213
  37.4900195  65.8585519  76.7457543  36.6525195  69.9026904  78.9420574
  37.2165463  70.6279268  79.7629227  35.3802570  69.6741051  79.0628464
  34.9340699  69.0794879  78.3791457  34.5546354  70.2921425  80.0772668
  35.2072926  70.8105378  80.7796941  33.5009228  71.3394770  79.4914962
  33.9779046  72.1516584  78.9429080  32.8677661  70.7667103  78.8138895
  32.5985855  71.9703707  80.4833245  33.1140968  72.8120164  81.5326545
  34.1885864  72.9860862  81.5898546  32.2603359  73.4013591  82.4680130
  32.6798282  73.9432916  83.3156190  30.8152202  73.2943160  82.3147303
  30.1172687  73.7921639  82.9878655  30.3139200  72.4876179  81.2152535
  29.2383262  72.3954450  81.0645809  31.2089531  71.8251133  80.3444392
  30.8236142  71.1882375  79.5481961  33.8217205  69.1623093  80.8990019
  32.9457886  68.4749236  80.3815909  34.0422551  69.1260424  82.1957063
  34.8530842  69.6036301  82.5625379  33.2507950  68.3059954  83.1075631
  32.4936745  67.7300163  82.5754767  34.2583326  67.2962132  83.8069635
  33.6246899  66.4261304  83.9788711  34.9596512  67.0807228  83.0008518
  35.0274200  67.6186453  85.0725444  35.7776113  68.3723484  84.8332838
  34.3273062  68.0228888  85.8036599  35.7154714  66.3811938  85.6552519
  36.2340256  66.6827064  86.5653567  34.9432031  65.6526565  85.9021010
  36.7285961  65.7456806  84.6704823  36.2705425  65.7338877  83.6814684
  37.6168514  66.3771381  84.6514262  37.1219569  64.3291646  85.0638901
  36.2990813  63.7437790  85.0811882  37.7810265  63.9637448  84.3914352
  37.5468077  64.3399282  85.9801243  32.4080466  69.0822298  84.0725732
  32.6944333  70.2591603  84.2978091  31.3723725  68.3792994  84.6223012
  31.0508798  67.5723060  84.1070309  30.5779471  68.8266966  85.8049647
  31.0325959  69.6202069  86.3980373  29.2012229  69.3371575  85.2569463
  28.5917699  69.5134796  86.1432740  29.1957094  70.6016227  84.3685504
  29.8046226  70.4258920  83.4817334  28.1734100  70.8301677  84.0672668
  29.6052033  71.4419518  84.9291423  28.4485648  68.2673083  84.4781558
  28.2543345  67.4135836  85.1274098  27.5024843  68.6746601  84.1216509
  29.0492135  67.9465838  83.6270049  30.4529199  67.8805529  86.9530075
  30.1854561  66.7092725  86.7693768  30.5373651  68.3697589  88.1724203
  30.8172166  69.3386229  88.2279623  30.1740009  67.6841982  89.4051093
  30.1594115  66.5994974  89.2987586  31.2518245  68.0989499  90.5292224
  31.3158199  69.1774809  90.6733607  30.6809419  67.4375806  91.8152021
  30.6170812  66.3589189  91.6719839  31.3379179  67.6534467  92.6577490
  29.6870084  67.8360255  92.0187626  32.6869166  67.6468795  90.1817920
  32.7355008  66.5585110  90.2163511  32.9346456  67.9893939  89.1770962
  33.7138006  68.2499817  91.2089400  33.4669759  67.9075138  92.2138744
  34.7210442  67.9226371  90.9512485  33.6661189  69.3383974  91.1746209
  28.8091687  68.2954925  89.7886133  28.7339101  69.4313147  90.2913539
  27.7261781  67.5799169  89.5123600  27.6797328  66.3868926  88.5902782
  28.5621085  65.7756907  88.7798710  27.7036339  66.7496791  87.5627016
  26.3714186  65.6531832  88.9221026  26.5355462  64.8427804  89.6323198
  25.8956014  65.2581812  88.0245098  25.5175547  66.7918357  89.5474840
  24.9505382  66.3118784  90.3451258  24.8284771  67.2228695  88.8212048
  26.4215725  67.8980836  90.1377689  26.0664270  68.8641373  89.7790070
  26.6000488  67.9530148  91.6665014  27.3233289  67.1699971  92.2686726
  25.8927025  68.9641716  92.2244110  25.3120509  69.5558049  91.6474247
  26.0635690  69.3245624  93.6524383  27.0388973  69.0317639  94.0411579
  25.9562584  70.8886694  93.6945327  25.1591210  71.1468404  92.9973821
  25.6561788  71.1620044  94.7061355  27.2255819  71.6470087  93.3185711
  27.6534612  71.2321458  92.4059327  26.8595365  73.1030798  93.0892920
  26.4319897  73.5187894  94.0016999  27.7536620  73.6648015  92.8189053
  26.1298793  73.1721279  92.2824878  28.2746710  71.4999764  94.4915927
  28.5062436  70.4456173  94.6425908  29.1866363  72.0384270  94.2337334
  27.8556417  71.9143427  95.4085518  25.0628105  68.5418637  94.6089414
  24.7630401  69.1539938  95.6670035  24.5310071  67.4013889  94.2683121
  24.6850800  67.0878574  93.3206524  23.6534240  66.5763711  95.1540132
  22.6858187  67.0580697  95.2947456  23.4266425  65.1930728  94.4801343
  24.3461756  64.6524734  94.7044341  22.5848517  64.6903315  94.9563060
  23.2173539  65.2242016  93.0119186  22.7041514  66.2107185  92.4793283
  23.5151151  64.1726917  92.3724701  24.1617518  66.3742054  96.5902298
  25.3087663  65.9635095  96.7735615  23.2881820  66.7139435  97.5348688
  22.3929500  67.1637747  97.4071544  23.7715596  66.5093293  98.8962622
  24.7200112  67.0291580  99.0316018  22.7986932  67.0354572  99.8813978
  21.9046175  66.4122420  99.8632090  23.2461686  66.9990729 100.8746460
  22.4204844  68.4789791  99.5455234  23.2917924  69.1324085  99.5897197
  21.9673011  68.5449560  98.5563955  21.4010611  68.9147997 100.6044293
  20.8800546  69.8346207 100.3387593  20.6716802  68.1386570 100.8361733
  22.2098139  69.1624383 101.7875688  23.0860827  68.6637082 101.8469037
  21.9074649  69.9608358 102.7164496  20.9900096  70.8445468 102.6812843
  20.4266455  70.9503911 101.8497088  20.8306221  71.4348734 103.4851561
  22.5368840  69.9077433 103.8370650  23.2709762  69.2266492 103.9686686
  22.2939898  70.5474021 104.5799901  24.1734376  65.1149065  99.3710540
  24.9008742  65.0451053 100.3586004  23.8998973  64.0252291  98.6131194
  23.1302307  64.2150481  97.9872749  24.4248521  62.6368016  98.6833508
  24.8886292  62.4399549  99.6499228  23.2436587  61.6829888  98.5050018
  23.5862409  60.6850075  98.7784429  22.4320968  61.9823799  99.1682004
  22.7342958  61.6713698  97.0353636  23.1801016  62.4158484  96.1026864
  21.8266084  60.9013743  96.7860593  25.6352482  62.3926153  97.7193485
  25.9642335  61.2374019  97.5807999  26.2042148  63.4265946  97.0376669
  25.6716137  64.2723638  96.8923748  27.4492814  63.2459255  96.2733281
  27.6328566  62.1905803  96.0717202  27.3088103  63.9434590  95.0056290
  26.3777696  63.5221432  94.6264782  27.2182780  65.0280253  95.0657949
  28.4024430  63.6101067  94.0559350  29.3225982  62.8129227  94.3181394
  28.5355601  64.2787099  92.9611074  29.2805485  64.0478401  92.3193978
  27.8941852  65.0300018  92.7506326  28.6185265  63.5290820  97.1951004
  29.2624615  64.5686772  97.1396530  28.9332137  62.5676946  98.0328566
  28.2605104  61.8144574  98.0186017  29.9869031  62.5319229  99.0339366
  29.9769254  63.4589616  99.6071721  29.7886398  61.3569154  99.9989962
  30.0498340  60.4397706  99.4710547  30.4655418  61.4956185 100.8420058
  28.3161212  61.2558130 100.5233674  28.0436029  62.2598574 100.8485279
  27.7092828  60.9761228  99.6621923  28.0661227  60.2536414 101.6782696
  28.5404243  59.3268319 101.3555298  28.6103785  60.6624029 102.5296209
  26.5908740  59.9647315 102.0948128  26.1424095  60.8866514 102.4650073
  26.0394124  59.6185238 101.2206678  26.5380328  58.9433079 103.1401370
  27.0486086  59.2640961 103.9503882  25.5758441  58.7716324 103.3947356
  26.9531555  58.0888248 102.7971635  31.3300417  62.5756274  98.3951700
  32.2683695  63.1022939  99.0074814  31.5149360  61.9866839  97.1867853
  30.6742843  61.6977916  96.7072593  32.8486328  61.6420567  96.5653185
  33.6751299  61.8751648  97.2366324  32.8419239  60.1220361  96.3008843
  32.0828733  59.9070468  95.5487401  33.8219088  59.8348213  95.9197840
  32.5438862  59.3456561  97.5466237  33.3293355  59.5151566  98.2831288
  31.5967935  59.7222136  97.9330421  32.4205800  57.8429215  97.2680735
  31.5104422  57.1672852  97.7404862  33.2875668  57.3602499  96.4988245
  33.1815388  62.4494588  95.3131115  33.9868079  62.0117720  94.5283287
  32.4229781  63.5301415  95.0183240  31.6110314  63.6527259  95.6063844
  32.5894359  64.4356189  93.8450868  31.7716329  65.1560595  93.8288742
  33.9186327  65.2031657  93.9056563  34.7427690  64.4937596  93.9807663
  34.0027481  65.7595065  92.9721096  33.9752540  66.1925557  95.1056832
  34.0330311  65.6280932  96.0363522  35.2484584  67.1231715  94.9736617
  35.1911627  67.6883350  94.0433895  35.2832740  67.8138182  95.8162149
  36.1491106  66.5092376  94.9703201  32.8052265  67.2216724  95.3064702
  31.8669957  66.6838560  95.4427635  33.0047340  67.8321398  96.1871674
  32.7310524  67.8640177  94.4289797  32.3913765  63.6924111  92.4968451
  33.2070832  63.8576345  91.5298503  31.4003870  62.7593214  92.4209998
  30.7519664  62.6717432  93.1904022  31.2200927  61.8482066  91.2209729
  32.1837590  61.4727434  90.8767724  30.3310086  60.6338390  91.6364087
  29.3823275  61.0232458  92.0058215  30.1532600  60.0283874  90.7476265
  30.9908884  59.7620844  92.7300341  31.9941664  59.4929408  92.3997375
  31.0557067  60.3475108  93.6471909  30.1981097  58.5143267  92.9884051
  30.6281615  58.0461901  93.8738443  29.1772035  58.8294135  93.2042061
  30.1885320  57.5371632  91.8662461  29.5992147  56.6675062  92.1569391
  29.7375589  58.0049766  90.9911043  31.5359241  57.1215650  91.5493520
  31.9538360  56.6876651  92.3600185  31.5134759  56.4593971  90.7870334
  32.0820512  57.9272026  91.2795516  30.5118016  62.7740246  90.1729817
  29.6151642  63.5261437  90.5085281  31.0773104  62.6596861  88.9807755
  31.6917588  61.8728302  88.8277717  30.9891278  63.6951905  87.9288903
  30.2490287  64.4587243  88.1684078  32.3686808  64.3511270  87.8780489
  33.1194382  63.6007520  87.6302569  32.3722124  65.1326104  87.1181993
  32.5996403  64.7884737  88.8493804  30.4538002  63.0606511  86.6531905
  30.1365339  61.8891121  86.6435731  30.4913187  63.9235694  85.6125896
  30.6721684  64.9051438  85.7672004  30.3006116  63.4611188  84.2362164
  30.6673157  62.4410938  84.1214280  28.8103125  63.4838746  83.9056157
  28.3133069  64.4511852  83.9790642  28.8113594  63.1544750  82.8665802
  27.9739544  62.5204783  84.6541167  27.9294780  61.1807726  84.2209752
  28.5419070  60.8937826  83.3661844  27.1159865  60.2153448  84.8662386
  26.9321452  59.2412234  84.4130382  26.5429738  60.5310881  86.1098337
  26.0339129  59.7886242  86.7244102  26.6454296  61.8749519  86.5585348
  26.1210124  62.1493344  87.4738495  27.3899439  62.8343035  85.8647819
  27.5110579  63.8349134  86.2797653  31.0626386  64.4608387  83.3366609
  31.0831200  65.7025114  83.6130421  31.6465158  63.9783585  82.2297909
  31.4588720  62.9983651  82.0732592  32.5097492  64.6938309  81.2567805
  32.8241456  65.6314757  81.7151214  33.7474685  63.9219818  80.8323080
  33.5395243  62.9438378  80.3986112  34.1803308  64.5715756  80.0715465
  34.7596742  63.7499674  81.9594001  34.3958214  63.7903284  83.1260098
  36.0131134  63.4044499  81.6347884  36.7045268  63.2835878  82.3610388
  36.2606704  63.2664782  80.6653658  31.6016896  64.9457693  80.0388989
  31.0510528  64.0009483  79.4519530  31.4096529  66.2222963  79.6490555
  31.9894731  66.8788172  80.1519354  30.4565979  66.7438007  78.6825213
  29.7178336  66.0913956  78.2170172  29.7445168  67.9362597  79.3398950
  30.4803992  68.7086486  79.5634861  28.6780486  68.5047120  78.4067425
  27.9415046  67.7329822  78.1830537  28.1845231  69.3483025  78.8893275
  29.1456939  68.8392393  77.4807303  29.2871470  67.6692619  80.8488701
  30.1621769  67.4738689  81.4687451  28.7584700  68.5419615  81.2322702
  28.3601101  66.4583343  80.8823049  28.8882734  65.5850808  80.4994581
  28.0441197  66.2702326  81.9083980  27.4845671  66.6531728  80.2629809
  31.1304591  67.1231476  77.3723808  32.0096914  67.9760924  77.3620975
  30.8253881  66.3750284  76.2669382  29.9726169  65.8354677  76.3088284
  31.6445943  66.2557780  75.1055948  32.6857260  66.1024077  75.3895339
  31.1782888  65.0474311  74.2757985  30.0888988  65.0379075  74.2406140
  31.5732198  65.1359517  73.2637245  31.6873372  63.7254976  74.9165897
  32.7751316  63.7799587  74.9594627  31.2863349  63.6766100  75.9289677
  31.2695445  62.4729314  74.1414940  31.7666046  62.4915681  73.1716059
  31.6014137  61.5993197  74.7025331  29.8503160  62.3730365  73.9301359
  29.5115676  62.8459119  73.1044617  28.9607854  61.7772159  74.7359939
  29.3469839  61.2545764  75.8814959  30.3184879  61.3034143  76.1533319
  28.6698631  60.8073515  76.4828253  27.7536047  61.6632755  74.3687851
  27.4664934  62.0222864  73.4694641  27.0841705  61.2139826  74.9771374
  31.6343646  67.5813960  74.2228647  30.6144347  67.9553616  73.6981031
  32.8122523  68.1116531  73.8775461  33.5533582  67.9198095  74.5363765
  33.0850382  69.0584965  72.7678162  32.2046563  69.6897103  72.6470026
  34.3148234  69.9638327  72.9821077  35.0821090  69.2665969  73.3186107
  34.6166272  70.4045973  72.0319808  34.1404101  71.0621621  74.0166589
  33.1463830  71.4573212  73.8072306  34.2642565  70.7474962  75.5394306
  35.2582453  70.3527021  75.7497226  34.1076261  71.6606852  76.1135853
  33.5135623  70.0089058  75.8205760  35.0968556  72.2017650  73.7542025
  34.9051115  72.6171964  72.7648844  34.9544663  72.9770098  74.5070783
  36.1220420  71.8344769  73.8010137  33.1266611  68.3402421  71.4095883
  33.6435854  67.2519593  71.3259961  32.6571107  68.8787949  70.2785161
  32.0768567  69.7054635  70.2736567  33.0017456  68.2895908  69.0308265
  33.1126270  67.2086048  69.1161138  31.8465780  68.5906690  68.0569611
  30.9175097  68.2903547  68.5414636  31.8328428  69.6663026  67.8811096
  31.9874467  67.8438873  66.6961892  31.0652994  67.9909588  66.1339480
  32.8192240  68.2918554  66.1525254  32.2391838  66.3656782  66.8715840
  31.3895510  65.7836203  67.5933483  33.1694365  65.6906502  66.3894055
  34.3327803  68.8727146  68.3969943  35.0269938  68.2088946  67.5993084
  34.6810577  70.0745855  68.7656719  34.0529408  70.5009587  69.4318359
  35.8128426  70.8215569  68.3312049  36.4773061  70.2061562  67.7246824
  35.3128866  71.9877509  67.4782262  34.8064288  71.5541415  66.6159138
  34.5919662  72.5362968  68.0844203  36.3907392  72.9285520  67.0064180
  35.9333750  73.8116084  66.5601780  36.9484065  73.2194113  67.8966468
  37.3365076  72.2863169  66.0035391  36.9222052  71.7843555  64.9267990
  38.5984073  72.3061692  66.2676398  36.4813694  71.2727959  69.6786537
  35.8606009  71.9097639  70.4818898  37.6254573  70.6333177  70.0188648
  38.1537346  70.1167914  69.3302264  38.0979938  70.6340084  71.3878333
  37.2500335  70.5842728  72.0709064  39.0072216  69.4218975  71.6446331
  39.8805750  69.6846437  71.0477098  39.2804023  69.4057444  72.6997214
  38.5048675  68.0464959  71.2299286  38.5729371  67.9612958  70.1453972
  39.3027422  66.9848880  71.8547532  39.2347858  67.0691599  72.9393633
  38.9229265  66.0122796  71.5419056  40.3439235  67.0836691  71.5476959
  37.0974318  67.8310784  71.4878992  36.5100411  68.5666679  70.9383724
  36.8175551  66.8284531  71.1646149  36.9029990  67.9356146  72.5553106
  38.8203492  71.9819710  71.5285332  40.0444202  72.1072798  71.4519318
  37.9788965  72.9964195  71.8130902  36.9940229  72.7802736  71.8714367
  38.3961808  74.4121809  71.9423438  39.3513595  74.4707246  72.4641729
  38.5541675  75.0478067  70.5621129  38.5956112  74.4626676  69.6434215
  37.6229861  75.6136821  70.5901532  39.7057387  76.0898534  70.4782840
  39.5981609  77.3398370  71.0949177  40.6288576  77.9881577  70.5093705
  40.7434924  79.0337364  70.7952428  41.3348790  77.2283344  69.6741890
  42.1869179  77.4711392  69.1892399  40.6896273  76.0164258  69.5778888
  41.0380621  75.2685598  68.8655751  37.4912800  75.2349871  72.7910218
  36.2740446  75.2785492  72.5118635  38.1055456  75.7868373  73.8238548
  39.0684295  75.5274823  73.9841327  37.4202964  76.6475865  74.8463129
  36.8972162  77.4883382  74.3906564  36.3951467  75.8126548  75.6755886
  35.5874244  75.5318765  74.9996837  36.9894986  74.5481436  76.3163407
  37.7970355  74.8281727  76.9927790  36.2137581  74.0241616  76.8747044
  37.3797641  73.8941441  75.5365464  35.7919383  76.6888779  76.7466972
  35.2841070  77.5340736  76.2820966  35.0748854  76.1102456  77.3290369
  36.5806612  77.0558902  77.4034460  38.4951554  77.3775644  75.6929866
  39.0007302  77.0720775  76.6756757  38.7345827  78.6179427  75.2426863
  38.1647167  78.9708875  74.4871852  39.7632551  79.4875942  75.7959796
  40.7378505  79.0379558  75.9859491  39.9364107  80.7295432  74.8861507
  38.9558831  81.1765976  74.7224178  40.8594101  81.7535621  75.5124505
  41.8403397  81.3073488  75.6760707  40.9572937  82.6107635  74.8463236
  40.4459682  82.0807655  76.4664436  40.3220756  80.2639967  73.4267553
  41.2254714  79.6579979  73.4956196  39.5045972  79.6542089  73.0420640
  40.5711303  81.4521823  72.4718728  41.3888395  82.0622120  72.8556894
  40.8325952  81.0756201  71.4829662  39.6679653  82.0584246  72.4021356
  39.3399930  79.9625723  77.2151195  40.1549700  79.9138170  78.1258623
  38.0399656  80.2031943  77.3745178  37.4212262  80.1371619  76.5789674
  37.4892174  80.6436709  78.6363303  38.0191641  80.1247563  79.4350689
  37.6040590  82.1702210  78.8761742  38.6651469  82.3642236  78.7194750
  37.0205609  82.7374020  78.1509599  37.2225227  82.5852740  80.2523149
  36.8212668  83.7010378  80.5637614  37.4193050  81.7624792  81.1819597
  36.0102596  80.1796385  78.7127157  35.3811096  79.8679441  77.6955240
  35.4338912  80.0774964  79.9005382  35.9690594  80.2851573  80.7315445
  34.0140205  79.5857602  80.0667301  33.3894044  80.0670284  79.3141779
  33.9476722  78.0497985  79.8576405  34.2787179  77.8600995  78.8366007
  34.8298091  77.1886245  80.8711670  34.4990218  77.3774556  81.8924522
  34.7157651  76.1289048  80.6429379  35.8779849  77.4705101  80.7713189
  32.5626774  77.4307831  80.0333547  31.8728798  77.8723211  79.3141013
  32.6210945  76.3551596  79.8668577  32.2041287  77.6224295  81.0446980
  33.3422311  79.9277442  81.4330712  33.9708963  79.9542143  82.4862609
  32.0460679  80.2059757  81.3694301  31.6266420  79.9810032  80.4786055
  31.2023648  80.7476006  82.4044222  31.5921746  80.4484421  83.3773825
  31.1457886  82.3154568  82.3471488  30.8232718  82.5679408  81.3370330
  30.3765599  82.6147271  83.0590650  32.4649755  83.0609411  82.6691051
  33.1935233  82.6043683  81.9991348  32.2709904  84.0851217  82.3504736
  33.0052612  83.0669558  84.0624192  32.2055805  83.2905943  84.7685322
  33.4346384  82.0929668  84.2971105  34.0871872  84.1370800  84.1645342
  33.6521018  85.1051440  83.9162331  34.4661334  84.1609440  85.1862629
  35.1885968  83.8455521  83.2418446  34.8377476  83.8238202  82.2949907
  35.8945912  84.5632568  83.3229113  35.5921723  82.9487558  83.4720238
  29.7399156  80.3086932  82.3269726  29.2375956  80.1295754  81.2304866
  29.0120856  80.2668420  83.4342634  29.4632798  80.4201879  84.3247734
  27.5595508  79.9168027  83.4271000  27.3478060  79.2602447  82.5831837
  27.1531900  79.1880671  84.7370043  27.6737098  79.6841718  85.5561736
  26.0785529  79.2228646  84.9160137  27.5588300  77.7115780  84.7902028
  26.9103092  76.7899877  83.9511734  26.1595678  77.1615227  83.2537145
  27.2047479  75.4397125  83.9954100  26.7125208  74.7674292  83.2926667
  28.1030280  74.9419682  84.9077025  28.3187746  73.8756288  84.9745881
  28.7594206  75.8577908  85.7800600  29.4644590  75.4815747  86.5213308
  28.5053054  77.2277010  85.6905412  29.0488773  77.9255890  86.3273943
  26.7121898  81.1477222  83.2078203  27.1458127  82.2440414  83.5829006
  25.5295053  81.0487868  82.6169784  25.3278279  80.1393930  82.2265574
  24.5140039  82.1429908  82.4369763  24.9887812  83.1042127  82.6337964
  23.9161337  82.1644606  80.9689452  23.6626461  81.1053762  80.9222170
  23.0057253  82.7590911  80.8936388  24.8709844  82.5233389  79.7869255
  25.8113710  81.9944023  79.9418445  24.2871927  82.1378098  78.4241733
  23.3469584  82.6667433  78.2683283  24.9907876  82.4089327  77.6370599
  24.1078363  81.0630345  78.3960701  25.4167233  84.0021390  79.8510212
  25.9739190  84.1445346  80.7769563  26.0735852  84.1847479  79.0005580
  24.5802679  84.7003315  79.8198984  23.3194631  82.0934674  83.4014941
  22.7872217  81.0453318  83.7744657  22.9359402  83.2868051  83.8701596
  23.3961732  84.0986821  83.4839724  21.8838436  83.4959531  84.8982758
  21.9787655  82.7545578  85.6916371  22.0397973  84.9281369  85.5277629
  21.8899808  85.7633293  84.8435788  21.1725925  84.8345652  86.1814450
  23.2946830  85.1804461  86.3758120  24.5051335  85.7067062  85.8825890
  24.5290654  85.9776686  84.8270768  25.6548355  85.8896654  86.6859613
  26.6122887  86.1294934  86.2235029  25.5825232  85.6380522  88.0968397
  26.6618052  85.7351979  88.9336790  27.4680540  85.9883280  88.4781709
  24.2588997  85.3907258  88.6403104  24.0870631  85.3819372  89.7166447
  23.1944380  85.1612630  87.7592497  22.1994253  84.9487826  88.1502764
  20.4792897  83.3930797  84.2727429  20.2959483  83.5545433  83.0726327
  19.3670479  83.2756696  85.0377481  19.4368733  83.2604950  86.0452170
  18.0254138  83.1668105  84.4264729  17.3545859  82.9727080  85.2633799
  17.8237631  84.1588546  84.0223877  17.7751259  82.1267745  83.3377754
  16.9338188  82.3686522  82.4646021  18.4036302  80.9171303  83.4149387
  19.1222001  80.8294014  84.1192541  18.1236779  79.7352779  82.5328402
  17.4279833  80.0127847  81.7409449  19.4256127  79.2512564  81.8922320
  20.2073456  79.0266995  82.6178814  19.2898637  78.3968971  81.2291011
  20.0878517  80.6293461  80.8297758  21.1684241  79.9759733  80.4122050
  17.5051525  78.6358491  83.3727852  17.7060692  78.4876794  84.5882375
  16.6375659  77.8397325  82.7610453  16.5277033  78.0049978  81.7707337
  15.8326547  76.7766637  83.3846843  15.4331737  77.0615008  84.3580198
  14.6353688  76.5766131  82.3903024  14.0877529  77.5167803  82.3247153
  15.0449588  76.3262814  81.4116962  13.6735620  75.4491336  82.8520834
  12.9598522  75.5458349  82.0339343  14.1185316  74.4543455  82.8297040
  12.9541431  75.6141712  84.1259613  13.4018440  75.8529132  85.2111909
  11.7211779  75.2779399  84.1677121  11.2019361  75.3799599  85.0279919
  11.2724119  74.9119449  83.3402109  16.7565430  75.5592269  83.5081998
  16.5756488  74.7279314  84.3551815  17.9032521  75.5126980  82.6773385
  18.0156798  76.2433246  81.9891205  18.8530099  74.3702576  82.6534386
  18.7314033  73.8544917  83.6059597  18.5106654  73.3583032  81.4820670
  18.6366787  73.8576519  80.5214050  19.1803756  72.4999663  81.5354183
  17.4792314  73.0205417  81.5828647  20.3334097  74.8849364  82.6341748
  20.5167621  76.0386337  82.2654712  21.3983007  74.1474894  83.1437434
  21.3467679  72.6771717  83.2981594  21.4130476  72.2111691  82.3150272
  20.4036346  72.3991717  83.7686001  22.5682524  72.3563759  84.1911094
  23.0348587  71.4305095  83.8547333  22.2459627  72.2449581  85.2263953
  23.5177837  73.5483826  84.0394503  24.2139652  73.0954191  83.3335789
  24.0691654  73.9292666  84.8991044  22.7775521  74.6580630  83.3786353
  22.8025818  75.6044374  83.9188642  23.2643568  74.8757129  81.9518330
  23.1708710  74.0211024  81.0495586  23.8437391  76.0478991  81.6184492
  24.1574550  76.5548662  82.4337198  24.1145048  76.6256996  80.2887073
  24.2328955  75.7844351  79.6058041  22.8846160  77.4640501  79.8362020
  22.7584716  78.3152499  80.5052659  23.1068441  77.9654815  78.4119038
  23.2326174  77.1147787  77.7421387  22.2453455  78.5529496  78.0944129
  24.0015056  78.5873310  78.3805246  21.7223033  76.6868074  79.7509203
  20.9885200  77.2382691  79.4697578  25.3277128  77.5853807  80.4398971
  25.4051261  78.4999243  81.3280751  26.3219454  77.3095165  79.6159835
  26.2279915  76.5022570  79.0163135  27.5331158  78.0328514  79.5793107
  27.6906546  78.7612926  80.3747063  28.7509739  77.0865882  79.4997530
  29.6460670  77.6530882  79.2428750  28.9363038  76.4432077  80.8237471
  28.0417345  75.8761041  81.0811182  29.7933819  75.7708973  80.7848020
  29.1101437  77.2092760  81.5794046  28.7238487  76.1114412  78.2738009
  27.9547867  75.3588741  78.4478328  28.4745397  76.6853054  77.3812627
  30.0935538  75.4133077  78.0730485  30.3433391  74.8388327  78.9650606
  30.0385552  74.7443148  77.2142570  30.8630930  76.1652648  77.8984927
  27.5916513  79.0426396  78.4219812  26.8923042  78.8470295  77.3991521
  28.2822246  80.1510422  78.6341368  28.3255731  80.4383290  79.6014457
  28.8270953  81.0407352  77.6280298  28.5338667  80.7192379  76.6286521
  28.2767602  82.4434476  77.8701520  28.5307634  83.1135343  77.0488326
  27.1949178  82.4249144  78.0019611  28.9463383  83.1994583  79.3547981
  28.2767207  84.3430996  79.2425706  30.3689462  80.8720397  77.6361246
  30.9441758  80.4979283  78.6497150  31.0632370  81.2362298  76.5653539
  30.6159679  81.7738830  75.8366710  32.4292785  80.8312026  76.3728039
  33.0380516  81.1640579  77.2134595  32.5220547  79.2612378  76.2743496
  33.5805860  79.1978172  76.0221818  32.3340475  78.7057257  77.1931312
  31.7872485  78.5596513  75.1972674  30.5080362  77.9964448  75.4824139
  29.9890316  78.2102135  76.4167784  29.9071928  77.1350192  74.5114751
  28.9038923  76.7498004  74.6933965  30.5915451  76.7842034  73.3368687
  30.1626317  76.1271208  72.5803135  31.9257773  77.3358544  73.1500546
  32.4778714  77.0088485  72.2689420  32.5139540  78.2605116  74.0541853
  33.4884592  78.6953082  73.8319434  33.0282029  81.4994326  75.1128931
  32.3786728  82.1196765  74.3137303  34.3696996  81.4092498  75.0309438
  34.8525136  81.2099884  75.8954002  35.1629210  81.7381036  73.8589502
  34.4883776  82.0603079  73.0656818  36.2303377  82.8084782  74.0553596
  37.0472174  82.3890596  74.6426371  36.7801350  83.3005385  72.6735892
  35.9638576  83.7205394  72.0858891  37.5408094  84.0642045  72.8357292
  37.2188597  82.4597580  72.1362713  35.6571919  83.9646236  74.8262071
  35.3122934  83.6173353  75.8001362  36.4245209  84.7264907  74.9635550
  34.8185452  84.3896246  74.2747121  35.7469144  80.5154819  73.2185988
  36.3792940  79.7250552  73.9083784  35.7536106  80.3841003  71.8913298
  35.1612448  81.0607821  71.4316520  36.4410863  79.3383159  71.0416462
  37.3668377  78.9967857  71.5047235  35.4610842  78.1168693  70.9184348
  36.2596071  77.3763999  70.8718999  34.7783040  77.8636651  71.7294828
  34.6896115  78.1263053  69.5805088  33.6019548  78.9768855  69.4633324
  33.3854787  79.6546753  70.2890675  32.7889263  78.9812456  68.3213920
  32.0795301  79.7894733  68.1435527  32.8920250  77.9232139  67.4042729
  31.9926974  77.8024656  66.3995964  31.3265916  78.4937274  66.4073298
  33.9507132  76.9768227  67.5266532  34.1057550  76.1762806  66.8033310
  34.8053690  77.1024679  68.6216704  35.6132028  76.3853869  68.7676137
  36.8581260  79.9067411  69.6948160  36.6945842  81.0803113  69.4248974
  37.4268553  79.0623656  68.8169402  37.7144836  78.1523960  69.1475830
  37.8322108  79.4701774  67.4827905  37.1756604  80.2580600  67.1136269
  39.2707252  80.0083362  67.5225800  39.3143625  80.6989905  68.3647152
  39.9116114  79.1499168  67.7237791  39.7530188  80.7190181  66.2543563
  39.9084955  79.9163803  65.5334538  39.0094734  81.4155900  65.8670196
  41.0488475  81.4547190  66.4402550  41.4984051  81.8838617  67.4907556
  41.7904268  81.7824647  65.3989055  42.6599223  82.2772565  65.5376861
  41.4850233  81.5369749  64.4680108  37.5529719  78.3604453  66.4263155
  37.6506759  77.1405723  66.7472482  37.1927380  78.7391068  65.1869350
  36.8352394  79.6651116  65.0003628  37.1411562  77.7368936  64.1028571
  37.8141203  76.9070850  64.3188110  35.6805370  77.1799196  63.9860002
  35.8830180  76.5590035  63.1133239  35.4411280  76.5424886  64.8371554
  34.4554301  78.1344423  63.6810995  33.3644882  77.8908009  64.2538733
  34.5199317  78.9834749  62.7274072  37.7556304  78.4312890  62.8924091
  38.0701227  79.6098024  62.9746395  37.8807291  77.7415840  61.6907018
  37.7088638  76.3065153  61.4956402  36.6676122  76.1415945  61.2186990
  37.9104894  75.8248059  62.4524067  38.6581706  75.8766159  60.4325366
  38.2984227  74.9815327  59.9250856  39.6483353  75.6858462  60.8463992
  38.6830114  77.0742911  59.4953482  37.8164641  77.1564022  58.8392593
  39.5949451  77.1433582  58.9023000  38.6525194  78.2125718  60.5573686
  39.7056504  78.2901734  60.8275379  38.1371432  79.5637028  60.1666123
  38.8589030  80.3527432  59.6081751  36.7941013  79.8455418  60.2364567
  36.1489807  79.0886306  60.4125369  36.2473731  81.1713339  59.9617779
  36.5812440  81.5351885  58.9900582  34.7048427  81.0680394  59.9472804
  34.4964456  80.1261674  59.4397895  34.4243465  80.9842496  60.9972334
  33.8812321  82.2113867  59.2792201  32.8032245  82.0820360  59.3754941
  34.1928890  83.0908081  59.8427714  34.2202145  82.4342664  57.7899422
  34.8584455  81.6236499  57.0970930  33.6575705  83.4899042  57.2716299
  33.8194466  83.7197641  56.3015463  33.0624336  84.0729289  57.8425900
  36.6630933  82.3583325  60.8688683  36.4996861  83.4643033  60.4656107
  36.9770132  82.1259272  62.1240651  36.9948475  81.1481304  62.3764434
  37.2880847  83.1009910  63.1416151  38.3477861  83.3332948  63.0359403
  36.6976006  83.9881800  62.9128718  37.0084392  82.6719454  64.6082041
  36.5123090  81.6089516  64.7570124  37.4620991  83.4964547  65.5770932
  38.0305957  84.2135457  65.1496690  37.3454609  83.4802304  67.0496180
  37.3186322  82.4343740  67.3555002  38.4995870  84.2088184  67.8438437
  39.4494368  83.9061423  67.4030812  38.3656928  85.2828605  67.7149795
  38.4993629  83.8673857  69.3501514  37.6158247  84.3801445  69.7303347
  38.3307153  82.7906966  69.3701637  39.7213373  84.2154950  70.2393851
  39.9492464  85.2791613  70.1703170  39.5203692  83.9542234  71.2783502
  40.8761736  83.4618971  69.7852593  40.7401946  82.7844402  69.0486039
  42.0748173  83.5958464  70.2982788  42.3013246  84.2449787  71.3576200
  41.5376091  84.6889053  71.8472808  43.2450940  84.3170592  71.7100450
  43.0597835  83.0749746  69.6951942  42.9103208  82.5677784  68.8346635
  43.9896963  83.1694494  70.0778631  35.9715176  84.0789051  67.4369607
  35.6860921  85.2168225  67.1067574  35.2185985  83.3691165  68.2205340
  35.6704790  82.6538108  68.7721145  33.8120039  83.5686208  68.3896157
  33.5076598  84.5568970  68.0449653  33.0937008  82.5111483  67.5418430
  33.0242751  81.4753283  67.8740419  32.1124145  82.9806981  67.6104011
  33.4645281  82.4700788  66.0247496  33.7660732  83.5481101  65.1287803
  33.8122481  83.0903341  63.8613617  34.0772838  83.7409649  63.0279742
  33.4747268  81.7385079  63.8945493  33.4101191  81.1092911  63.1071410
  33.2319829  81.3817043  65.2371046  32.9136968  80.3685673  65.4827642
  33.4049823  83.3562602  69.8290939  33.8028150  82.3467711  70.4239343
  32.5485779  84.2198672  70.4171987  32.7788210  85.1689539  70.1596682
  31.6091329  83.9992739  71.5941268  32.1159577  83.3979214  72.3488474
  31.0310938  85.2440021  72.2684024  31.8588669  85.8916842  72.5571909
  30.1071259  85.9912398  71.3616967  29.2787930  85.3443067  71.0728314
  29.7190019  86.8680623  71.8800041  30.6488371  86.3070353  70.4701117
  30.3494497  84.7243609  73.5544821  31.0899308  84.2330893  74.1857048
  29.9087321  85.5612144  74.0962790  29.5682668  84.0117718  73.2897729
  30.6155149  82.8114532  71.3024432  29.9191798  82.9871427  70.2999515
  30.4089661  81.8332810  72.1894756  30.9786251  81.7673705  73.0208863
  29.4553437  80.7339864  71.9013248  28.6172634  81.1316896  71.3290026
  30.1188650  79.5814055  71.0800437  30.6242292  80.0371470  70.2285709
  30.8554575  79.1033835  71.7258196  29.1038698  78.5134341  70.5707522
  28.8809459  77.8119890  71.3747301  28.1849470  79.0074127  70.2550496
  29.7154861  77.7468860  69.3721653  29.9121559  78.4715180  68.5820207
  30.6564340  77.3090007  69.7052914  28.8002199  76.6418502  68.8349747
  28.9772290  75.7314970  69.4077096  27.7634914  76.9539614  68.9609899
  29.0668589  76.3820996  67.3997004  30.0273463  76.0924615  67.2827675
  28.4523608  75.6515006  67.0699773  28.9024843  77.2254145  66.8687578
  28.7921094  80.2661982  73.2879847  29.3736474  80.4879366  74.3322694
  27.5877901  79.6148184  73.1525833  27.1652694  79.5309910  72.2390470
  26.8323327  79.1017474  74.3301346  27.5199601  79.0172762  75.1716406
  25.6682378  79.9952745  74.7403619  25.1822974  79.4834164  75.5710023
  25.9958666  81.3729400  75.1380379  26.4814522  81.8856124  74.3076927
  25.0810688  81.9016700  75.4057852  26.6682191  81.3539218  75.9957564
  24.8092387  80.0661010  73.6288832  24.0561191  80.6221856  73.8414421
  26.3229794  77.6924830  74.1058332  26.0698419  77.2392823  73.0003656
  26.1249480  76.9481449  75.1680513  26.4190704  77.3753475  76.0347054
  25.5036042  75.6461407  75.2230693  24.7434567  75.5428325  74.4487293
  26.5450500  74.6353174  74.9963190  27.2858592  75.0092986  75.7030290
  26.1186019  73.7065285  75.3752560  27.2213677  74.3723244  73.6331267
  26.4743599  74.5065979  72.4330850  25.4130084  74.7486889  72.4880786
  27.0831023  74.3326724  71.1986622  26.5579410  74.6111889  70.2850233
  28.4270477  73.9986551  71.1508995  29.0091585  73.7103559  69.9584224
  28.3991947  73.7687173  69.2194111  29.1772025  73.7478975  72.3172577
  30.2215529  73.4367059  72.2929183  28.5105265  73.9180566  73.5716432
  29.0299730  73.6844772  74.5010065  24.8900837  75.3160753  76.5617816
  25.4119384  75.6359138  77.6045547  23.8356482  74.4625697  76.4792287
  23.4665520  74.3384799  75.5473119  23.1493703  73.7886638  77.5993750
  23.2811345  74.3317769  78.5351984  21.6131978  73.7614253  77.2445834
  21.2811784  74.7995219  77.2593447  21.5445620  73.3729673  76.2284685
  20.7343370  72.9386558  78.1586097  21.2188166  71.9653820  78.0803892
  20.7654125  73.2772207  79.1942289  19.2527372  72.8189890  77.6964411
  18.5463163  73.8601991  77.5060967  18.7842739  71.6116917  77.6881727
  23.7854303  72.3944325  77.8069052  23.9904158  71.6543137  76.8794215
  24.0264804  71.9938507  79.0336468  23.9489700  72.6950930  79.7563852
  24.5374215  70.6954888  79.3935363  25.2445647  70.4505367  78.6010427
  25.2880673  70.6563915  80.7614031  24.5950017  70.9063081  81.5647094
  25.8572021  69.2373781  80.9948540  26.5507552  68.9869179  80.1921369
  26.3818230  69.2083361  81.9498566  25.0407043  68.5153827  81.0073294
  26.4609569  71.6062443  80.6149977  26.0924902  72.6080982  80.3944912
  27.0314952  71.6257132  81.5435485  27.1031933  71.2686776  79.8015594
  23.4383378  69.5803955  79.3209068  22.5422117  69.5340258  80.1550877
  23.5228465  68.6766648  78.3154327  24.2236779  68.9567049  77.6442305
  22.7426356  67.5330945  78.0317695  21.7210011  67.7182332  78.3635613
  22.7169839  67.1796426  76.5215868  22.4673741  68.0899184  75.9764335
  23.7196323  66.8541267  76.2443941  21.8071746  66.1889201  76.2043410
  21.8384972  66.0160146  75.2605600  23.2011557  66.3540801  78.8896160
  23.8330307  65.4355996  78.3501779  23.0226722  66.3338240  80.2057442
  22.2735112  66.9571156  80.4710076  23.7600947  65.7241444  81.2130807
  24.8192755  65.9074061  81.0323863  23.4156034  66.2336650  82.5537031
  23.5744602  67.3057688  82.4376975  22.3568227  66.0403256  82.7260499
  24.2425316  65.7147863  83.7684955  24.2678807  64.6269194  83.7052202
  25.6893957  66.2625731  83.8110396  25.6648563  67.3504300  83.8747891
  26.2055342  65.8596196  84.6824352  26.2182474  65.9640155  82.9058989
  23.6439874  65.9691492  85.1261370  22.6704952  65.4831987  85.1914414
  24.3028329  65.5664973  85.8954843  23.5246269  67.0421909  85.2759154
  23.7558128  64.1896896  81.2338899  24.8292336  63.5706699  81.4368982
  22.5980719  63.6308231  81.0122229  21.7919596  64.2392328  81.0231678
  22.3851008  62.2079589  80.8003578  22.7231301  61.6415928  81.6681509
  20.9033164  61.9425263  80.5944807  20.3517064  62.5485813  81.3131761
  20.6448024  62.2546312  79.5826205  20.5300883  60.4424671  80.7860665
  21.0670395  59.8285882  80.0629227  20.7847745  60.1201242  81.7956863
  19.0159034  60.2875542  80.5654718  18.7052521  59.3055775  80.9222862
  18.4953194  61.0604361  81.1309320  18.6448412  60.4126972  79.1395836
  19.4581046  60.5226516  78.5508460  17.4859357  60.4109042  78.5887407
  16.4202014  60.2848927  79.3368621  16.5177921  60.1904393  80.3376890
  15.5047786  60.2826444  78.9101352  17.4130023  60.5218855  77.2961179
  18.2590668  60.6068430  76.7510884  16.5105930  60.5226699  76.8425150
  23.1456655  61.6103905  79.6276983  23.7735089  60.5465687  79.6814656
  23.0246388  62.2228745  78.4857908  22.4053229  63.0153028  78.3930297
  23.7780256  61.7902794  77.3093509  23.8082499  60.7022657  77.2509404
  23.0835979  62.3293527  76.0528955  22.7166323  63.3296100  76.2829408
  23.8324785  62.3903396  75.2632383  21.8979821  61.4386259  75.5759605
  21.3958298  62.1253192  74.8944942  22.2206363  60.5539313  75.0270445
  20.9150282  61.0178938  76.7046763  21.0140265  59.8662426  77.1495368
  19.9941450  61.8504655  76.9512254  25.2298687  62.2993407  77.3015307
  26.0269815  61.9248322  76.3914365  25.6524571  63.1311613  78.2530099
  24.9239137  63.5543886  78.8099682  27.0114587  63.6909415  78.3395352
  27.0346773  64.5507668  79.0090579  27.9679738  62.5840260  78.9108582
  28.0677751  61.8571120  78.1047968  28.9214558  63.0896509  79.0635519
  27.5555591  61.8557285  80.2143469  28.4542769  61.8190125  80.8300247
  26.8152538  62.4982810  80.6909772  26.9758228  60.4254040  80.0606337
  26.0975658  60.3056322  80.6949983  26.7011520  60.2407701  79.0220936
  28.0696287  59.4116620  80.4945852  28.5148114  59.7048954  81.4453360
  27.6547240  58.4075665  80.5825938  29.0496614  59.4248408  79.4977511
  29.4345528  60.3550719  79.4163361  29.7849993  58.7762329  79.7400029
  28.6374429  59.1527394  78.6167655  27.5921250  64.5053863  77.1691894
  28.7330342  64.3853182  76.8093561  26.7184027  65.3570127  76.5269310
  25.7527458  65.3069805  76.8186548  27.0508548  66.1716950  75.3337900
  28.1064658  66.4405336  75.3726527  26.7885891  65.4316098  74.0440103
  27.2864444  66.0303852  73.2813129  27.3149402  64.4845079  74.1625539
  25.3433060  65.1618874  73.6175969  24.9808899  64.7008764  74.5364137
  24.7521837  66.0515524  73.4004106  25.2157809  64.2011032  72.5009268
  24.5189051  64.5466315  71.5602694  25.6559973  63.0236260  72.6675551
  26.3779760  67.5502318  75.4582704  25.7848911  67.8678863  76.5109768
  26.5538914  68.4943506  74.4545720  27.0925819  68.2782108  73.6280156
  25.9679526  69.8294269  74.5708898  25.7166214  70.0673689  75.6044832
  27.0016962  70.8033409  74.0930867  27.4477035  70.3309984  73.2178329
  26.6115215  71.7830592  73.8173773  28.1558453  71.0524001  75.0995674
  27.8229423  71.6887574  76.3323930  26.8038581  71.9101612  76.6494855
  28.8528515  72.0170612  77.1172010  28.6406329  72.6072111  78.0087093
  30.1822405  71.6266754  76.8266550  30.9784414  71.7036528  77.5670863
  30.4670818  71.1206158  75.5215136  31.5056761  71.0246202  75.2049589
  29.4528787  70.7570571  74.6692860  29.6850573  70.2692390  73.7225936
  24.7004730  69.9247185  73.7157588  24.3493799  69.1925088  72.8071178
  23.9213156  70.9479085  74.0503047  24.1803527  71.4500347  74.8874836
  22.6871610  71.3756866  73.3195528  22.6425328  70.8726664  72.3535931
  21.4391868  71.0241225  74.1073301  21.7886318  70.9077535  75.1332179
  20.6811256  71.8064001  74.0687936  20.8127734  69.7209814  73.6589109
  20.5855028  69.4890652  72.4821123  20.4060947  68.8518139  74.5087405
  19.9913384  67.9895188  74.1854385  20.5023508  69.0333962  75.4976102
  22.7287121  72.9014310  73.0441358  23.5837794  73.6042573  73.6078529
  21.8057086  73.5165102  72.3012904  21.2160712  72.9105098  71.7488498
  21.6586440  74.9884741  72.1339373  22.5468593  75.4119117  71.6650306
  20.4210632  75.2730810  71.2122423  20.5121182  74.6199415  70.3443616
  19.5309505  75.0008326  71.7794109  20.3071407  76.6895201  70.7584008
  20.4662552  77.3482093  71.6121642  21.0706465  76.8817411  70.0046023
  18.9526288  76.9486116  70.1739669  19.0071715  77.8415633  69.5512621
  18.6695573  76.0942544  69.5591144  17.8827939  77.1603690  71.2964682
  16.9323139  76.8822947  70.8410970  18.1375714  76.4394943  72.0733384
  17.7700778  78.4741600  71.8788206  17.5335764  79.1422206  71.1591944
  17.0471028  78.4688907  72.5840719  18.6505825  78.7318445  72.3012058
  21.5866912  75.6823658  73.4870116  20.8330094  75.1244477  74.2626617
  22.1935215  76.8530393  73.7288228  22.9077107  77.1270204  73.0693022
  21.9092461  77.7386065  74.8420668  21.5457950  77.1600051  75.6913152
  22.8141513  78.2744042  75.1287143  20.8229037  78.7668235  74.4296507
  19.8608273  78.4560361  73.7519309  20.9282686  80.0109720  74.8851622
  21.8675036  80.5581840  75.8331462  22.8020202  80.7076573  75.2923719
  22.0105647  79.7986315  76.6017244  21.3136350  81.8338318  76.3874352
  21.8761216  82.6810400  75.9950755  21.3839011  81.8241200  77.4751252
  19.8853107  81.8745066  75.9450220  19.4339943  82.8416123  75.7233942
  19.2939702  81.3637900  76.7050119  19.9452178  81.0445852  74.7020423
  18.9957009  80.5148314  74.6253810  20.0957735  81.9985754  73.5090916
  19.0765230  82.4936655  72.9894683  21.3875928  82.3462491  73.1483827
  22.1859346  82.1453960  73.7335389  21.5959955  83.1648336  71.9357089
  20.7285706  83.1153445  71.2775113  21.7973845  84.6241795  72.3739165
  22.2951779  85.2086104  71.6001326  20.7811593  84.9939450  72.5105178
  22.5401164  84.9007163  73.6743256  21.9657545  85.3220632  74.8135556
  20.9012203  85.5508686  74.7634067  22.8644082  85.3712006  75.8044684
  22.6024647  85.5194106  76.7685840  24.1298542  85.1333920  75.3552387
  25.4420710  85.1628754  75.8811435  25.4940767  85.5907644  76.8822954
  26.5541217  84.6860140  75.1739262  27.5660294  84.6489106  75.5773688
  26.3264315  84.2330451  73.8659879  27.1484744  83.8925685  73.2363685
  25.0312258  84.2052073  73.3295989  24.9808891  83.7882853  72.3237445
  23.8869960  84.7046981  74.0225889  22.6998752  82.7256401  70.9723893
  23.6682207  82.0145608  71.4163399  22.5707988  83.1020268  69.7307656
  21.7651587  83.6717699  69.5152749  23.4798603  82.6892689  68.5972313
  23.4955614  81.6055923  68.4810517  22.9154807  83.3329788  67.2647977
  21.8279351  83.3053939  67.3324956  23.2515040  84.3696766  67.2436770
  23.3574392  82.6366819  66.0049326  24.4402718  82.5237741  66.0580949
  22.8899914  81.6520420  65.9960436  22.9766741  83.4071007  64.6946251
  23.5022818  84.3597833  64.7596746  23.3976852  82.8152064  63.8819074
  21.4526083  83.6681696  64.4168419  20.9466028  82.7168081  64.2526155
  21.0092206  84.1713577  65.2760906  21.3041523  84.5147223  63.2228146
  21.7145598  84.0484487  62.4264137  20.3233909  84.6803691  63.0474059
  21.7725946  85.3964915  63.3749460  24.9471091  83.0951081  68.8675655
  25.2414998  84.1848446  69.3961810  25.9017708  82.3197510  68.3357051
  25.6069457  81.3800532  68.1117735  27.3214473  82.6367954  68.2517550
  27.6890774  82.9125613  69.2401378  28.1890217  81.3560494  67.7086321
  29.2414492  81.6364633  67.7518032  28.0059130  80.5276255  68.3929457
  27.8251859  80.9175481  66.2491154  26.8195973  80.4995023  66.2952701
  27.8374005  81.7574660  65.5544999  28.7506888  79.8722692  65.7456611
  28.6156455  78.7036440  65.9293447  29.8417253  80.2357279  65.1030461
  30.4780370  79.5321132  64.7564409  30.0368389  81.2163164  64.9599438
  27.6350127  83.9248372  67.5255712  27.1195055  84.2986426  66.4852199
  28.6382549  84.6867017  68.0364231  29.0248033  84.3658701  68.9126347
  29.0756349  86.0160023  67.5138902  28.7491621  86.0952024  66.4769514
  28.5147513  87.2071589  68.2958215  27.4339951  87.0747667  68.3461960
  28.9339494  87.1545319  69.3006117  28.8311632  88.5641759  67.6851380
  28.6690596  89.4078220  68.3560214  29.8998468  88.4396647  67.5104628
  28.1297048  88.8265135  66.3637296  28.8402511  88.5943753  65.3723403
  26.9101244  89.0621800  66.3408844  30.6498485  86.1087615  67.3428340
  31.3747107  85.7361515  68.2642733  31.1433906  86.5687779  66.2468581
  30.4752674  86.7791294  65.5192161  32.5444810  86.7310271  65.9550811
  33.0905260  85.8212844  66.2046854  32.7267563  87.0179957  64.4525177
  32.2361787  86.2626802  63.8385704  32.2423080  87.9820702  64.2976943
  34.1427929  87.1260825  64.0288390  34.6977374  88.2079553  63.8071167
  34.8654214  86.0148940  63.9702891  35.8331396  86.0599382  63.6846455
  34.4444673  85.1290885  64.2116334  33.1587914  87.8139600  66.8043679
  32.5936367  88.9254840  66.9478406  34.2702548  87.5225013  67.4276446
  34.5754235  86.5605973  67.3862642  35.0312838  88.4652379  68.2822858
  34.6341169  89.4793844  68.2391063  34.9681950  87.9599385  69.7837249
  35.5679804  88.6577063  70.3680850  33.5797551  87.8625061  70.3834771
  32.9794801  87.1645149  69.7998856  33.6515973  87.5076878  71.4116032
  33.1081988  88.8451444  70.3708971  35.5932134  86.5918133  70.0216945
  36.6466395  86.6196054  69.7430853  35.5035094  86.3291797  71.0757706
  35.0774970  85.8460003  69.4167973  36.4558248  88.6843403  67.7878668
  36.9514984  87.9303380  66.8979689  37.1682384  89.7269757  68.3709923
  36.7248917  90.2893446  69.0832312  38.5324755  90.0508886  67.9870867
  38.5614697  90.5520525  67.0195675  39.1036100  91.0069652  69.0548737
  38.4092985  91.8447416  69.1193837  39.0959516  90.4561497  69.9954287
  40.5612446  91.5513666  68.7752787  41.2880615  90.7413197  68.8357941
  40.5775978  91.9793634  67.7729561  40.9176661  92.6340838  69.7982270
  42.0616943  92.5304802  70.2673740  40.1032147  93.5429600  70.0853208
  39.3484655  88.7288321  67.9164408  39.1708586  87.7543691  68.7231078
  40.2929551  88.6228577  66.9450074  40.4761265  89.4077720  66.3363555
  41.0345850  87.3913110  66.7242297  40.3831065  86.5497390  66.4887906
  41.9086511  87.7262881  65.4487777  42.5727867  88.5613004  65.6718885
  42.5020106  86.8539049  65.1749671  41.2542152  87.9947761  64.6194846
  41.9172005  86.9484976  67.9432634  42.4019739  85.8690400  67.9408034
  42.1202082  87.8262945  68.9222473  41.6314798  88.7067234  68.8442172
  42.9510764  87.6048574  70.0827170  43.4701406  86.6498064  70.0017894
  43.9599643  88.6855875  70.1752941  43.3883316  89.5977935  70.3462193
  44.5477764  88.4539794  71.0635140  44.9017500  88.8881991  68.9760684
  44.1107448  89.1182154  68.2622728  45.5837728  89.7354684  69.0473350
  45.6862305  87.6286926  68.4944132  45.9959562  86.8016188  69.3667565
  46.1527947  87.7034849  67.3280625  42.2915097  87.6028444  71.4374083
  42.9902978  87.3837231  72.4219930  40.9878681  87.8444120  71.4436302
  40.5871806  88.1280329  70.5609592  40.0961628  87.8282913  72.6625805
  40.3650209  88.6549973  73.3201302  38.6523771  88.0269326  72.1919271
  38.3655372  87.2020349  71.5397257  37.9884797  88.0540372  73.0559906
  38.5740802  88.9663032  71.6446139  40.2881456  86.5694244  73.4729772
  40.4564318  85.4214401  73.0262718  40.2841820  86.7383525  74.8030379
  40.0251549  87.6226714  75.2165404  40.7130422  85.6060054  75.7285340
  40.6522168  84.6661531  75.1798289  42.1503013  85.7760874  76.2556272
  42.1828550  86.6892993  76.8498356  42.3765926  84.9207399  76.8922377
  43.1149034  85.8566139  75.2070323  43.9908969  85.9616462  75.5854546
  39.8053022  85.4333335  76.9642356  40.0965562  84.5358225  77.7760942
  38.8285198  86.2378347  77.2296616  38.5925109  86.9717902  76.5771983
  38.0305504  86.1216515  78.4786465  37.9846406  85.0674191  78.7517499
  38.6032780  86.9109063  79.6640005  38.6484375  87.9495767  79.3365500
  37.8723674  86.8150698  80.4669233  39.9626796  86.4819103  80.1667485
  39.8303937  85.5053482  80.6325035  40.6033912  86.3822090  79.2905919
  40.7489950  87.6108142  81.3573724  41.3855016  88.7086179  80.0975750
  40.5573925  89.1152045  79.5170394  41.9332469  89.5246272  80.5689609
  42.0544181  88.1561669  79.4376888  36.5597751  86.6380456  78.3086137
  36.3771204  87.5438196  77.5318540  35.6123428  86.1152253  79.0794814
  36.0188024  85.4854276  79.7564192  34.1682475  86.1918318  78.9931149
  33.8820260  87.1990077  78.6901739  33.6127812  85.1801020  77.9460213
  34.0170737  85.4475514  76.9697439  33.9866685  83.7599024  78.2712000
  33.5823037  83.4915587  79.2472030  33.5766932  83.0929554  77.5127790
  35.0723366  83.6645710  78.2895982  32.0771467  85.3562942  78.0083265
  31.8182971  86.3843907  77.7551143  31.6039566  84.6776959  77.2986116
  31.7256290  85.1311213  79.0152194  33.5527237  86.0766656  80.3603984
  34.0302595  85.4426747  81.2591954  32.5478823  86.9090667  80.6652742
  32.2414217  87.4002224  79.8376588  31.9810316  87.2962768  81.9453456
  32.0108507  86.5063870  82.6958681  32.7177269  88.5601192  82.4908962
  32.7272988  89.3384844  81.7279045  31.9957879  89.0597760  83.7042788
  31.9862061  88.2820683  84.4679407  32.5037869  89.9427739  84.0920319
  30.9712134  89.3186399  83.4371915  34.2175011  88.3705135  82.7794929
  34.4503383  88.9213309  83.6908039  34.3898790  87.3069311  82.9443501
  35.1021265  88.8546556  81.6607613  34.9306351  89.9183373  81.4956194
  36.1466778  88.6925609  81.9267258  34.8701740  88.3039387  80.7491645
  30.4247121  87.3968871  81.7376961  30.0371080  88.1202567  80.8340255
  29.6354800  86.6173963  82.4680061  30.1108686  86.0697011  83.1709535
  28.1728207  86.4309067  82.3010679  27.8371328  86.6301244  81.2833621
  27.8496057  85.0326969  82.6385282  28.1715495  84.8207177  83.6580954
  26.7735552  84.8784613  82.5583602  28.3643969  84.3636442  81.9489937
  27.4675946  87.4497699  83.1748590  27.6379500  87.5109056  84.3855936
  26.7636293  88.3799827  82.5191572  26.7780513  88.3507001  81.5096851
  26.0631425  89.4834466  83.1696429  26.6438226  89.7909050  84.0393435
  25.9190208  90.6822703  82.2290842  25.2899412  90.3750877  81.3936221
  25.3199925  91.8649125  82.8888415  25.9487989  92.1729845  83.7241829
  25.2437011  92.6820361  82.1714929  24.3259094  91.6114869  83.2571836
  27.2451770  91.1386318  81.7194797  27.7238710  90.3264170  81.1724320
  27.1057673  91.9911184  81.0547007  27.8759866  91.4321888  82.5585295
  24.6609106  89.1486372  83.7630781  23.8057439  88.6158997  83.0059449
  24.3155521  89.5143924  85.0192567  25.1128844  90.1869248  86.0791532
  25.0064791  91.2633527  85.9446871  26.1568424  89.9054921  85.9411449
  24.5626660  89.7140395  87.3882797  24.7855637  90.4282436  88.1809512
  24.9758622  88.7401238  87.6506890  23.0772887  89.6185161  87.1338028
  22.4982778  90.5236424  87.3170835  22.6811014  88.8050730  87.7416231
  23.0011359  89.2280969  85.5809932  22.8892781  88.1438959  85.5712854
  21.8236135  89.8674989  84.8464838  21.9219278  90.9907788  84.3583010
  20.6361022  89.1928000  84.8574508  20.6653665  88.2775142  85.2834731
  19.2893971  89.7571293  84.4621676  19.2476466  90.0325994  83.4083781
  18.2410667  88.5646911  84.7238610  18.2562193  88.4070451  85.8022938
  17.2729563  88.9703259  84.4300536  18.4729330  87.2291647  84.0095093
  19.5286610  86.9897977  84.1369560  17.8658283  86.4360969  84.4460486
  18.1521920  87.3532522  82.5062929  18.8697134  86.9152839  81.5597287
  17.1198386  87.9853275  82.1469612  18.7947264  90.9048972  85.4662391
  19.1412135  90.7828806  86.6416631  17.9786265  91.8917052  84.9471822
  17.5487730  92.9140454  85.9201794  18.4005715  93.1980181  86.5381592
  16.7649381  92.4968510  86.5523587  17.0434549  94.0685480  85.0480811
  17.8536747  94.7621531  84.8232370  16.2370234  94.6031269  85.5500720
  16.5274913  93.3658107  83.7658171  16.6366523  94.0027792  82.8880620
  15.4779846  93.1005284  83.8933338  17.3549801  92.1208041  83.6001129
  16.6503807  91.3101623  83.4143773  18.3590104  92.1637990  82.5058256
  18.0305597  91.6968237  81.4146825  19.5522993  92.7080544  82.6090913
  19.8933192  93.0542974  83.4944842  20.4083199  92.8639867  81.4227647
  19.8471686  93.4443324  80.6903663  21.7706740  93.5677798  81.6757324
  21.9429990  92.9731706  82.5728629  22.5928222  93.4159455  80.9763621
  21.8270996  95.0375498  82.1063264  20.8350368  95.9182208  81.7434136
  19.9475052  95.5341580  81.2405384  20.9514827  97.2916112  82.0105618
  20.1545136  97.9903908  81.7563020  22.1740918  97.7776251  82.6434776
  22.2810720  98.8060205  82.9885255  23.2055201  96.8944429  82.7974573
  24.1427193  97.3045759  83.1736871  23.1073120  95.5234738  82.4992363
  23.9876223  94.8850573  82.5739229  20.8442478  91.5165652  80.6091892
  20.4349447  91.3612313  79.4714456  21.4651506  90.5414392  81.3280451
  21.7124434  90.6473569  82.3015579  21.7884424  89.2899609  80.6683040
  22.1377455  88.5785649  81.4166370  20.8885677  88.9019666  80.1910355
  22.8961372  89.4743226  79.5879485  23.5935585  90.4674765  79.4252376
  23.1361801  88.3101052  78.9870048  22.5481820  87.5023541  79.1349768
  24.2890716  88.1784609  78.0762238  24.1045685  87.2802297  77.4869543
  24.2581381  89.0521607  77.4252313  25.7057505  88.0782881  78.7252340
  25.7944175  87.6496043  79.8884096  26.7581641  88.4462999  78.0004452
  26.5848701  88.8121016  77.0751033  28.1226627  88.3817923  78.4662309
  28.1376669  88.4209572  79.5554234  28.8015344  87.0834490  78.0131504
  28.8023936  87.0341117  76.9242679  29.8284386  87.0632786  78.3780631
  28.2569714  86.2288354  78.4146300  28.9969243  89.5617664  77.8884795
  28.9441271  89.8772996  76.7114726  29.8056368  90.1040072  78.7731772
  29.6089569  89.8584614  79.7329290  30.9620823  90.9056558  78.5001420
  30.6988829  91.7062401  77.8088461  31.4534937  91.5230601  79.8486893
  31.6394754  90.7265791  80.5691955  32.7882901  92.3272151  79.5976926
  32.6029777  93.1242169  78.8775897  33.1345264  92.7596731  80.5364158
  33.5504520  91.6538745  79.2054928  30.3593771  92.4617923  80.3396851
  30.3573455  93.3354556  79.6879113  29.4084091  91.9373334  80.2463996
  30.5531788  92.9041180  81.7762946  31.5037922  93.4290959  81.8702742
  29.7404657  93.5708498  82.0645052  30.5548581  92.0309728  82.4287625
  32.0291260  89.9429418  78.0218320  32.1800961  88.8412619  78.4880889
  32.7502690  90.3739973  77.0058882  32.3443076  91.1597206  76.5181039
  33.9510288  89.7289204  76.4227846  34.5423038  89.0963943  77.0849053
  33.6711435  88.9711529  75.0979209  33.4928169  89.6927321  74.3006609
  34.8591277  88.1083314  74.7395729  35.0378001  87.3861450  75.5362057
  34.6566392  87.5788626  73.8085724  35.7409491  88.7368250  74.6151304
  32.2624833  88.2387708  74.9541889  32.4463828  87.1954356  74.6978038
  31.7522131  88.2915380  75.9159266  31.3922773  88.8776968  73.8833606
  31.9017200  88.8248894  72.9211863  30.4428820  88.3458648  73.8208904
  31.2075522  89.9209932  74.1393083  35.1449584  90.7418083  76.3121130
  34.9293993  91.9172932  76.2131462  36.3900844  90.3197645  76.3586004
  36.5277082  89.3210196  76.2980387  37.5999160  91.1974709  76.5811045
  37.3637902  92.2518320  76.4373466  38.2004856  90.9985095  77.9545024
  38.1234998  89.9351459  78.1812875  39.6814025  91.4503707  78.0878907
  39.7591187  92.5138060  77.8616913  40.0266277  91.2697962  79.1058854
  40.2986416  90.8848939  77.3897854  37.2695408  91.7611315  79.0442044
  37.3752943  92.8162777  78.7920470  36.2581445  91.4310396  78.8071045
  37.5362369  91.5625389  80.5610644  38.5473539  91.8928665  80.7990265
  36.8186188  92.1475258  81.1363155  37.4302063  90.5076272  80.8140835
  38.5559303  90.8371663  75.4021710  39.0190762  89.7093057  75.3153404
  38.9281357  91.8452491  74.6072974  38.4870967  92.7285362  74.8203414
  39.8819977  91.7948620  73.4941170  39.7895464  90.8290539  72.9973608
  39.6396224  92.5901095  72.7891808  41.2899054  91.9695818  73.9581945
  41.7945049  91.5212190  75.0057722  42.1046595  92.5406713  73.0297972
  41.8604638  92.6403642  72.0548464  43.4617961  93.0915388  73.5020103
  43.5015278  93.1966091  74.5862062  44.5096278  92.0734942  73.0731212
  44.3263803  91.1578224  73.6353175  44.3644290  91.8817110  72.0099953
  45.9750664  92.5506731  73.3199531  46.7470690  91.9324148  72.8618379
  45.9838097  93.5400750  72.8626680  46.2890091  92.6989488  74.8182609
  46.5885588  91.7691537  75.5744156  46.3977216  93.9197950  75.3374497
  46.6035943  94.0308979  76.3199842  46.2738395  94.7294276  74.7464761
  43.7197227  94.4428063  72.8109812  44.4516996  95.2047450  73.4086903
  42.9665017  94.7607600  71.7722837  42.4604582  94.0516278  71.2612547
  42.7609325  96.1724436  71.3986747  43.5093996  96.8317685  71.8382050
  42.9125689  96.2084358  69.8642357  42.1150003  95.5741980  69.4772910
  42.7251897  97.2430044  69.5767346  44.2029659  95.7699089  69.3054267
  44.9702652  96.4264733  69.7156412  44.4173702  94.7396133  69.5893649
  44.1944790  95.8860935  67.7905504  44.4970373  94.8796334  67.0763925
  43.9402243  96.9458503  67.2513296  41.3487124  96.6799424  71.6921461
  41.0273352  97.8089392  71.2842775  40.4578235  95.9728730  72.3442320
  40.7909195  95.0900414  72.7044469  38.9732825  96.2659209  72.4211728
  38.8229769  97.2917173  72.7576978  38.2750019  96.0888977  70.9972359
  37.3299404  96.6314693  70.9732770  38.9288562  96.4641536  70.2099891
  38.0307071  94.7009885  70.7897270  37.6099852  94.5742535  69.9361866
  38.2328694  95.5206761  73.5576021  38.7617189  94.6106216  74.2020748
  36.9812741  95.9860535  73.8294295  36.7593169  96.9062226  73.4771184
  36.0321796  95.3449636  74.7504388  36.1666329  94.2648534  74.8086080
  35.9823876  95.9652137  76.2498102  35.9072282  97.0475525  76.1449561
  34.7740906  95.4334133  77.1399672  34.8488351  94.3511275  77.2456620
  34.8159753  95.8979196  78.1251475  33.8291108  95.6866142  76.6593408
  37.3028748  95.8650113  77.0471044  37.5464596  94.8026264  77.0573779
  38.0374024  96.3998473  76.4450088  37.3248278  96.4064102  78.4768185
  36.5908312  95.8717018  79.0796747  38.3175508  96.2651249  78.9041811
  37.0817715  97.4689228  78.4673057  34.6359300  95.2268364  74.1116634
  34.1960387  96.1290050  73.3554310  33.9683361  94.1134635  74.4055792
  34.3329011  93.4367239  75.0607244  32.7141010  93.8035557  73.7115041
  32.4629675  94.7748103  73.2852464  32.9259826  92.8016402  72.5618291
  33.4035935  91.9319032  73.0129894  31.6466662  92.3457231  71.7734287
  31.1687402  93.2149235  71.3215690  31.9325340  91.6416734  70.9919604
  30.9494855  91.8636714  72.4587503  33.6059729  93.6150847  71.6017967
  33.7988819  93.0931764  70.8194936  31.6807005  93.2865107  74.6672315
  32.0466723  92.5710832  75.5644238  30.4320074  93.5431104  74.4307504
  30.2033699  94.2786913  73.7774931  29.3555911  92.8436459  75.0715338
  29.7394852  92.0328218  75.6906370  28.5832556  93.8355322  75.9776603
  29.2510530  93.8209751  76.8390162  28.5879560  94.8301175  75.5317028
  27.1932181  93.4927779  76.4181375  26.9724525  92.8126160  77.6037678
  27.8270419  92.4877955  78.1972896  25.6164704  92.5293792  78.0615335
  25.4488871  92.1920742  79.0843937  24.5201349  92.7689174  77.2104753
  23.2430983  92.4114477  77.5584362  23.1924277  91.9937490  78.4213150
  24.7912527  93.3494588  75.8660923  23.9818595  93.4862616  75.1489674
  26.1231818  93.7277488  75.5196610  26.3227423  94.2009282  74.5582158
  28.4013675  92.2330077  74.0047666  28.1008116  92.8994566  73.0499822
  27.7937030  91.0582058  74.3694916  28.0640990  90.6671539  75.2605942
  26.8107610  90.2864477  73.5158409  26.2480641  90.9526866  72.8619317
  27.6236376  89.3031444  72.6390699  28.2966495  89.8774770  72.0024411
  28.2036821  88.6091776  73.2473942  26.7742908  88.4657220  71.7225184
  25.8511625  89.0323891  70.7350380  25.2821304  87.9183061  70.2349425
  24.5230131  88.0760527  69.4688120  25.7570962  86.7994372  70.7757132
  25.4464233  85.8573578  70.5857960  26.7811979  87.1443333  71.6718808
  27.3739958  86.3637015  72.1486468  25.7380157  89.5306180  74.2978563
  25.9671318  89.0916341  75.3929512  24.5056534  89.4282101  73.7045548
  24.4662810  89.8134628  72.7717475  23.2566761  89.0051283  74.3322096
  23.3634581  88.0810765  74.9003866  22.9012665  90.1741142  75.3322646
  23.7825101  90.4175708  75.9257609  22.5847826  91.0553997  74.7743454
  21.7670617  89.7617287  76.2836459  21.4356227  88.6034281  76.4834584
  21.1689825  90.7503163  76.8644099  20.4106154  90.5707020  77.5068410
  21.4630618  91.6973718  76.6728267  22.2441290  88.6004938  73.2402466
  21.0443054  88.8393593  73.3964668  22.6844114  88.1680065  72.0715281
  23.6861746  88.1188449  71.9525617  21.8274974  87.7589085  70.9474341
  22.3415616  86.9180679  70.4817902  20.8998493  87.4105980  71.4015796
  21.5052542  88.7705612  69.9006174  22.4119514  89.2569991  69.1549483
  20.2591451  89.2854498  69.9181368  19.5463814  88.7716302  70.4161896
  19.8488226  90.4253550  69.1031678  20.5507484  90.5410466  68.2773259
  18.4282226  90.2462315  68.5223277  17.6307197  90.6334348  69.1564902
  18.5372345  90.8849502  67.6458262  18.0861638  88.8486669  68.0843801
  18.4448692  88.4918248  66.9391989  17.6423464  88.0225903  68.9168635
  20.0541458  91.7482023  69.8355635  19.3295496  92.6996930  69.6116622
  21.1989613  91.8409497  70.5620987  21.6297579  90.9437973  70.7342359
  21.7318590  92.9921985  71.2345950  21.8454729  93.7585671  70.4678680
  20.9518593  93.5694208  72.3768191  21.5839659  94.3062790  72.8723799
  20.0734207  94.0645949  71.9629973  20.5092483  92.5089810  73.3938544
  21.3438806  91.8087641  73.4282952  20.4524016  93.0523904  74.3370281
  19.1563834  91.7088552  73.1616706  18.4045349  92.4461086  72.8801030
  19.3348127  91.0345260  72.3240893  18.6388823  90.8761395  74.4098902
  17.8521334  90.1919102  74.0921530  19.4642868  90.3066598  74.8370898
  18.1109409  91.7902354  75.4116265  17.3458108  92.3177197  75.0161065
  17.7807045  91.2632979  76.2074787  18.8399173  92.4240689  75.7064954
  23.1871552  92.7697891  71.6307260  23.5637754  91.6802692  72.0965583
  24.0194879  93.7518142  71.4007391  23.5936274  94.6627384  71.3060854
  25.4363412  93.6593009  71.3279520  25.8329972  93.1903832  72.2284405
  25.8411128  92.7728409  70.0736659  25.6493321  91.7666722  70.4464177
  25.2099171  92.9647477  69.2059887  27.3142577  92.8955781  69.6703589
  27.8224277  94.0828003  69.1009375  27.1027416  94.8793985  68.9123037
  29.1854301  94.2704540  68.7770060  29.5536076  95.2682215  68.5382444
  30.1024363  93.1702687  68.8695098  31.3390167  93.3116370  68.4679629
  31.5254040  94.1905180  68.1296913  29.5994171  91.9414752  69.2923491
  30.2803081  91.0903779  69.3033592  28.2258360  91.7731342  69.7075447
  27.8752556  90.7993098  70.0493919  25.9142515  95.1052735  71.1101123
  25.3182977  95.9154623  70.4975119  26.9984355  95.4418472  71.7599431
  27.3565805  94.6574222  72.2857843  27.6875014  96.7662774  71.9008327
  27.5259772  97.3333854  70.9841007  27.1802538  97.6062279  73.0979128
  27.5096200  97.1145135  74.0132456  27.7427081  98.5295844  72.9595004
  25.6915704  97.9282085  73.2010021  25.3189551  98.0185558  72.1806610
  24.8472618  96.8769010  73.9683023  25.2190145  96.7863299  74.9889373
  23.8041842  97.1926079  73.9887704  24.9245415  95.9120758  73.4670633
  25.5265650  99.1634462  74.0087657  26.0507101  99.9874763  73.5246732
  24.4669977  99.4056953  74.0908244  25.9407087  99.0050685  75.0045069
  29.1805549  96.5516678  71.9831683  29.6024674  95.5921567  72.5764695
  29.9833025  97.4464765  71.4248964  29.6351808  98.1517728  70.7912816
  31.4119903  97.4142585  71.7045018  31.5102965  97.1449648  72.7561272
  32.0388732  96.2694170  70.8329044  31.9561697  96.5288507  69.7774640
  33.0897151  96.1464514  71.0950319  31.5067171  95.3367384  71.0200401
  32.2480988  98.7017060  71.4272829  31.7644480  99.6430969  70.7831384
  33.4451036  98.7605781  72.0704589  33.6987024  97.8867670  72.5089119
  34.3238486  99.9430753  72.2918586  34.3058802 100.6971174  71.5049680
  33.9849072 100.6338206  73.7032184  34.4248392 101.6310628  73.7114891
  32.4692024 100.7408691  73.9358995  32.0286041  99.7439163  73.9282239
  32.2815804 101.2130414  74.9002397  32.0211287 101.3416625  73.1444600
  34.7396484  99.9460684  74.8438168  34.5826985  98.8712398  74.7532016
  35.8005463 100.1687101  74.7296862  34.2875732 100.3941873  76.1562871
  33.2267952 100.1714486  76.2713413  34.8529885  99.8775281  76.9318308
  34.4446411 101.4689200  76.2478249  35.7967129  99.4945489  72.1384712
  36.2008157  98.4821910  72.6342992  36.5234296 100.4259595  71.5818079
  36.0440731 101.1205963  71.0270138  38.0182104 100.3931399  71.5401013
  38.3794277  99.8699944  72.4255053  38.3703866  99.5693483  70.3115134
  38.0231087 100.0847609  69.4160538  39.4512240  99.4385723  70.2587081
  37.8896411  98.5933430  70.3778197  38.6197207 101.7808691  71.6804902
  39.3735979 102.2851707  70.8509584  38.3152398 102.5731387  72.6927971
  37.6064551 102.1248542  73.9351663  38.0202067 101.1403119  74.1533092
  36.5621213 102.0223165  73.6402903  37.7876500 103.0857470  75.0633925
  38.6408612 102.8558531  75.7015762  36.8967211 103.2088597  75.6791768
  38.0460180 104.3472743  74.2083862  38.6283715 105.0317543  74.8251930
  37.1390787 104.8473546  73.8685623  38.9195470 103.8740319  72.9419871
  38.8232488 104.4659012  72.0317587  40.4039955 103.7780912  73.3359260
  40.6990241 102.9451708  74.1458289  41.3370511 104.5869668  72.8601849
  41.1314269 105.7297803  71.9805384  40.2350734 106.2476003  72.3218788
  40.9661385 105.3427459  70.9750619  42.3927772 106.6084638  72.0714148
  42.3451038 107.2713040  72.9353993  42.5206716 107.2014473  71.1658129
  43.5143393 105.5862221  72.2153260  44.4308765 105.9244436  72.6987148
  43.7515902 105.1783290  71.2327606  42.8218760 104.4926044  73.0942634
  43.1812909 103.5790512  72.6206183  43.1829583 104.4671962  74.6138499
  44.2420233 103.8717673  74.9710541  42.3130372 104.8793870  75.5239884
  41.4212189 105.2795957  75.2698377  42.6557376 104.8008924  76.9319731
  43.6160801 105.2857716  77.1072832  41.5756977 105.4332551  77.8655721
  41.3842271 106.4532879  77.5324468  40.2447917 104.6165436  77.8320935
  40.4353869 103.5964564  78.1655542  39.5144831 105.0837406  78.4927575
  39.8543712 104.5986545  76.8145715  42.0992756 105.5452513  79.3475134
  41.2830711 105.8946348  79.9798441  42.4183629 104.5573908  79.6798002
  43.2549060 106.5044878  79.4449852  42.9364368 107.4927434  79.1132805
  43.5946954 106.5609235  80.4791310  44.0717282 106.1555003  78.8132343
  42.8804927 103.3272961  77.3937622  43.6408444 103.1662488  78.3100362
  42.2967533 102.3657150  76.7257712  41.6523791 102.5512997  75.9704967
  42.6256602 100.9401641  77.0440853  43.1610885 100.7512984  77.9745398
  41.3938456 100.0550645  76.9808580  41.6913936  99.0068319  77.0086776
  40.4597247 100.3762970  78.2354423  40.1613724 101.4243125  78.2080559
  39.5717543  99.7452031  78.1989769  41.0074925 100.1789680  79.1569145
  40.6257202  99.9842959  75.6430238  40.0983664 100.9297999  75.5164497
  41.3616866  99.8699787  74.8471692  39.6664725  98.8786940  75.5831154
  38.9298647  98.9925841  76.3784380  39.1616260  98.8869419  74.6171127
  40.1931852  97.9327625  75.7091599  43.6208399 100.3604372  75.9982268
  44.1242639  99.2955000  76.1937954  43.9741153 101.0328174  74.8813976
  43.4297865 101.8365911  74.6025548  45.0601261 100.5750752  73.9847987
  45.0338051  99.4880994  73.9080529  44.9052289 101.1718983  72.5737284
  44.5969876 102.2141757  72.6558524  45.8610108 101.1161868  72.0526937
  43.8300558 100.3735607  71.7738079  44.2717680  99.4423524  71.4190655
  42.9919650 100.1493243  72.4336746  43.3458343 101.1697509  70.6082438
  43.0423434 102.1751207  70.9001748  44.0946330 101.2317297  69.8185866
  42.1292951 100.3991085  70.0968343  42.3352518  99.3290124  70.1208508
  41.2655875 100.6165404  70.7251906  41.8440346 100.8150128  68.7058591
  42.6440817 100.6132263  68.1233589  41.0405645 100.3092243  68.3613105
  41.6527434 101.8064786  68.6834467  46.4391402 100.8893496  74.5975895
  47.1025242 101.8821651  74.3344827  46.9954092  99.9479065  75.3586938
  46.5924994  99.0238367  75.2965812  48.1924065 100.1478845  76.2565463
  49.1036158 100.1096457  75.6596086  48.1305203 101.5190667  76.9794070
  49.0057577 101.4966429  77.6286804  48.2958563 102.2324964  76.1720767
  46.8656124 101.9563329  77.8167815  45.9015878 101.9716610  77.3083303
  46.8362277 101.2293038  78.6283646  47.1248588 103.3296925  78.4055708
  48.0023891 104.0254544  78.0128432  46.1664833 103.7315424  79.2580301
  46.2404316 104.6328829  79.7077171  45.3767460 103.1303355  79.4450236
  48.1852300  99.0371284  77.3700499  47.1475593  98.8308451  78.0297808
  49.3461924  98.4265602  77.6473685  50.1321501  98.8866438  77.2106845
  49.5966499  97.1279966  78.3967580  50.5006393  96.6169115  78.0655565
  49.7918981  97.5765427  79.8994524  50.6694374  98.2212023  79.9488290
  48.9096435  98.1409244  80.2014458  49.9651178  96.4867656  80.7598353
  50.0796861  96.8037914  81.6587060  48.4026075  96.1868689  78.0485620
  48.1351979  96.0069855  76.8678351  47.8158512  95.5654847  79.0526655
  48.2224906  95.7241063  79.9634799  46.7751844  94.5964864  78.9359823
  46.0527969  94.9965077  78.2244780  47.3482686  93.3152231  78.3739326
  47.9979925  93.5386770  77.5277486  48.1629637  92.6178085  79.4747545
  47.5137640  92.3936063  80.3211425  48.5833318  91.6909668  79.0844287
  48.9704316  93.2735158  79.8005520  46.2942881  92.4795553  78.0642838
  46.6333992  91.6566730  77.7044661  46.0376651  94.4466276  80.2581160
  46.5918169  94.5230717  81.3719387  44.7559131  94.1112318  80.1289862
  44.3953910  94.1819614  79.1881778  43.8224841  93.6461418  81.2197853
  43.9875068  94.2644232  82.1021655  42.3426018  93.6780356  80.8459991
  42.2216426  93.0671013  79.9514442  41.3949062  93.1480285  81.9706100
  41.5149716  93.7587958  82.8653995  40.3607626  93.2021821  81.6304408
  41.6472536  92.1130294  82.2012542  41.9774855  95.1502152  80.4955192
  41.7626692  95.7000993  81.4118064  42.8143159  95.6196656  79.9783822
  40.7155703  95.1677064  79.5687214  39.8781430  94.6988053  80.0853906
  40.4590653  96.1981352  79.3227114  40.9297893  94.6183692  78.6519669
  44.1914612  92.1779032  81.5611239  44.1028599  91.3116424  80.6506389
  44.5482790  91.8113722  82.8044007  44.5808256  92.5570261  83.4848713
  44.9311620  90.4571007  83.2345487  44.9182958  89.7122593  82.4388446
  46.3088300  90.4527745  83.8828058  46.3920790  89.5447769  84.4800572
  47.4539270  90.4980196  82.8569447  47.3716097  91.4060311  82.2595840
  48.4106809  90.4927659  83.3791466  47.3921478  89.6273705  82.2040626
  46.4548012  91.5837698  84.9338410  45.7082448  91.4513278  85.7169213
  47.4517526  91.5460136  85.3728879  46.3071434  92.5500107  84.4514756
  43.8765049  89.8304950  84.2542887  43.8829853  88.6203837  84.4694672
  42.9243886  90.5836969  84.8355421  42.9833292  91.5802634  84.6823088
  41.9127243  90.0731315  85.8232624  41.4334749  89.1696652  85.4462108
  42.6505695  89.7248159  87.1922185  42.0195074  89.2292705  87.9299817
  43.5781665  89.1648435  87.0734973  43.1110160  91.3041417  87.9113515
  43.6874614  90.7991606  88.9983672  40.6817452  91.0244064  85.9668258
  40.7266787  92.1238120  85.3899045  39.5533879  90.6409212  86.5954370
  39.6208954  89.7579968  87.0812215  38.2557266  91.3354887  86.5873665
  38.3954591  92.4137140  86.6648536  37.5393007  91.0264555  85.2605382
  36.5348261  91.4456062  85.2018627  38.1348831  91.3932162  84.4245549
  37.3998955  89.5643467  85.0721232  36.3832363  88.7665921  85.5456817
  36.6615444  87.5455671  85.0501784  35.9335691  86.7528623  85.2227185
  37.8528901  87.5345712  84.3990919  38.2844849  86.7190614  83.9882760
  38.3710819  88.7668069  84.3825579  39.3340358  88.9467185  83.9045905
  37.3968270  90.9233310  87.8081639  37.4028499  89.8496159  88.3844266
  36.5100209  91.8785015  88.1520437  36.4083421  92.6652227  87.5268793
  35.7133188  91.8568915  89.3679481  35.4090719  90.8431472  89.6284393
  36.5522918  92.3792591  90.4354992  37.3031235  91.6050543  90.5934802
  37.0411937  93.2982080  90.1120678  35.8550095  92.6398788  91.7314913
  35.8825086  93.6259005  92.3795476  35.2179945  91.6364488  92.1950052
  34.7160744  91.7199460  93.0674754  35.2186409  90.7633436  91.6872772
  34.4304292  92.6629743  89.3228488  34.5432765  93.8040548  88.9331492
  33.2590218  92.1017422  89.6460641  33.2856159  91.1199882  89.8817572
  31.9887697  92.7763771  89.6768578  31.8674868  93.4307522  88.8136181
  30.8876615  91.6946487  89.6346041  31.1577066  90.9505072  88.8853188
  30.8278273  91.2187939  90.6134208  29.5195065  92.3095206  89.2779776
  29.1282229  92.8493144  90.1403120  29.6380625  92.9986303  88.4418112
  28.5488097  91.2025907  88.8892925  27.6121215  91.6254897  88.5261526
  28.9830159  90.5667063  88.1177904  28.2625654  90.3695455  90.0882348
  28.6153811  90.7271109  90.9644582  27.4249784  89.3220101  90.1151361
  27.2072021  88.6065704  89.0625110  27.6735650  88.8337287  88.1959057
  26.5715255  87.8231875  89.1107408  27.0326581  88.9579170  91.3056099
  27.3626948  89.4591123  92.1180010  26.4008860  88.1766939  91.4088242
  31.8924022  93.6071012  90.9680142  32.2052499  93.1047553  92.0173349
  31.3358629  94.8088390  90.8361194  31.1507692  95.1456963  89.9021136
  31.0707365  95.7146325  91.9727346  31.4215632  95.4043861  92.9569942
  31.5761107  97.1342564  91.6980312  30.9809009  97.5366726  90.8783449
  31.4788643  98.0768717  92.9144240  32.0742355  97.6753259  93.7344210
  31.8552034  99.0628197  92.6417048  30.4383105  98.1597514  93.2282399
  32.8959695  97.3346509  91.0504728  32.8960747  96.8589114  90.0697721
  33.0868898  98.4016905  90.9361242  33.6759261  96.8907714  91.6691324
  29.6364078  95.7375678  92.3507666  29.4768032  95.8535467  93.5742147
  28.6772331  95.6289374  91.4139906  28.9964245  95.5041452  90.4639153
  27.2800652  95.8154342  91.6395342  27.1342245  95.8914804  92.7170530
  26.6434533  97.0865831  90.9533837  27.4013599  97.2632609  90.1901918
  25.6876244  96.8760714  90.4736170  26.5093401  98.3208183  91.8285689
  26.2993536  99.4044242  91.2308114  26.7399005  98.4095200  93.0545179
  26.5158611  94.5159982  91.2607570  26.5580530  94.1355190  90.0902885
  25.7728215  93.8587401  92.1763868  25.5173712  94.2660567  93.6119620
  24.6768514  94.9590155  93.6498408  26.4058230  94.7508892  94.0165482
  25.2229908  92.9776528  94.2808937  24.6228031  93.1222751  95.1792022
  26.1379410  92.4438766  94.5378967  24.4856420  92.2736844  93.2634090
  23.4211671  92.5062521  93.2934838  24.6318132  91.2147288  93.4763565
  25.0569799  92.6140998  91.8737114  25.8386192  91.9074859  91.5947222
  23.9710855  92.6293555  90.7889241  23.5583950  91.5651764  90.3672944
  23.5472375  93.7779004  90.2377948  23.6203625  94.6475225  90.7462330
  22.8710525  93.7899365  88.9170587  22.2845952  92.8912743  88.7258175
  21.8717624  95.0410729  89.0252065  21.1004399  95.1354533  88.2608420
  21.4137063  94.7414609  89.9678185  22.5272738  96.3804659  89.2140566
  23.5898393  96.6201037  88.7053513  21.8003600  97.3825781  89.7075123
  22.2225517  98.2902160  89.8418528  20.8306084  97.2297969  89.9448738
  23.7671799  93.8541298  87.6637067  23.2241440  93.6283118  86.5968401
  25.1150220  93.8859368  87.7660052  25.5932933  93.9092170  88.6552823
  25.9034281  93.8869017  86.5711709  26.8297000  93.3591998  86.7984380
  25.3444841  93.3310068  85.8184015  26.2461650  95.2864699  86.0115011
  26.8931027  95.3582387  84.9947441  25.8297569  96.3739245  86.6518884
  25.2647790  96.2641422  87.4818565  26.0896171  97.7267777  86.1647385
  25.9082949  97.7734924  85.0909419  25.1787651  98.7239306  86.8537143
  25.4542760  99.7311029  86.5409893  24.1478164  98.5228662  86.5624793
  25.3019853  98.6159147  88.2717941  24.7200001  99.2527009  88.6929787
  27.5147487  98.2640410  86.2805353  27.8919523  99.2224291  85.6329554
  28.2858895  97.6559078  87.2132951  27.8287248  96.9331996  87.7506894
  29.6922014  98.0094156  87.5571964  30.1239942  98.6076909  86.7548742
  29.7543875  98.8144712  88.8542589  29.2344857  98.2343092  89.6166324
  30.8065049  98.9072225  89.1236031  29.1171373 100.2316701  88.7566608
  29.4485206 100.6670210  87.8139225  28.0359753 100.0951627  88.7330691
  29.4991490 101.1972469  89.9444826  30.5730176 101.1194411  90.1143401
  29.2516922 102.2164144  89.6475618  28.7958159 100.8878597  91.2083410
  27.9165842 100.3987294  91.1200093  29.2555517 101.1384625  92.4134892
  30.3746542 101.7121291  92.6827590  30.9796878 102.0100293  91.9309015
  30.6431736 101.8620213  93.6448034  28.5350799 100.8644303  93.4267437
  27.6195692 100.4582262  93.2965961  28.8824822 101.0545557  94.3558631
  30.6705357  96.8291872  87.6811323  30.4423649  95.9255720  88.4613249
  31.8137012  96.8834153  87.0141871  31.9053013  97.6674614  86.3841232
  32.9503857  95.9059802  87.1044916  32.8619200  95.2895946  87.9991099
  32.8993358  94.9577532  85.8261092  32.9168732  95.5243543  84.8951125
  33.8255096  94.3913691  85.9236354  31.7151498  93.9968489  85.8137655
  30.4404655  94.3390642  85.2479057  30.2041723  95.3667465  84.9719816
  29.4567409  93.2868620  85.0446852  28.6023388  93.4623259  84.3909946
  29.6920382  92.0018160  85.5644283  28.6343947  91.1767135  85.6431826
  27.8218246  91.5770768  85.3253167  30.9408408  91.7185100  86.1023090
  31.1018681  90.6833151  86.4032115  31.9769375  92.6775280  86.2717227
  32.9192799  92.3856333  86.7352833  34.3388409  96.5940210  87.1529682
  34.6580156  97.3282429  86.1684029  35.1205752  96.4566012  88.2159035
  34.7186629  96.1426769  89.0876932  36.5171472  96.7805265  88.1888290
  36.6267456  97.8187798  87.8755919  37.1925339  96.6067821  89.5413584
  36.8324866  95.6078323  89.7874568  38.2816693  96.5995680  89.4985546
  36.7349302  97.5858781  90.6069507  35.7362812  97.9403479  90.3517014
  36.7024910  96.9131375  91.9977324  37.7009521  96.5587978  92.2538918
  36.3714093  97.6355983  92.7437458  36.0121974  96.0698080  91.9779726
  37.5903927  98.8648885  90.4443189  37.4373352  99.2808086  89.4484859
  37.2936450  99.5988119  91.1935843  38.6436888  98.6173301  90.5761564
  37.1130896  95.8646278  87.1411949  36.8730339  94.6648406  87.0870291
  38.1059184  96.3730670  86.4641427  38.1604372  97.3815937  86.4631871
  39.1410397  95.6063930  85.7045086  39.0332615  94.5307167  85.8438055
  38.9074213  95.9459861  84.1677813  39.2566922  96.9784499  84.1564874
  39.6003461  95.3223658  83.6029335  37.5478424  95.8723964  83.5438944
  36.8797394  96.5746808  84.0424280  37.6488611  96.2304574  82.0623845
  38.3164809  95.5282810  81.5630539  36.6599882  96.1773143  81.6069651
  38.0423030  97.2416460  81.9584548  36.9300582  94.5639436  83.7609610
  36.8292125  94.3821963  84.8309599  35.9447203  94.5450468  83.2952859
  37.5553598  93.7884492  83.3185750  40.5941596  95.9974464  86.1209036
  40.8379362  97.2027164  86.3853218  41.5128276  95.0486185  85.9084072
  41.2578728  94.3026505  85.2770363  42.8669201  95.0164463  86.5297794
  43.0750299  95.9853109  86.9837517  42.8894546  94.2434844  87.2979730
  43.9623882  94.7085041  85.4697316  43.8286210  93.8221501  84.6204454
  45.0986485  95.4052106  85.5313869  45.2292130  95.9564435  86.3675654
  46.0707547  95.5820903  84.4049797  45.8522410  94.8451807  83.6321180
  45.9901820  97.0777301  83.7402139  44.9906157  97.2469576  83.3398034
  46.1249092  97.6731818  84.6432011  47.0645627  97.5010944  82.6667812
  46.7415085  98.4955605  81.9496932  48.2196076  97.0363857  82.5564054
  47.5209107  95.1581900  84.7868987  47.9912896  95.5754263  85.8739877
  48.2566948  94.5209833  83.8950660  47.7752774  94.2147866  83.0616512
  49.6691376  94.0585891  84.1119852  49.7251097  93.3663284  84.9520693
  50.1459172  93.3274461  82.8371451  49.3877602  92.5780058  82.6099087
  50.1673122  94.0741614  82.0433828  51.5251666  92.6476630  82.9397608
  51.6831765  92.2386561  81.9418395  52.2089482  93.4806883  83.1028979
  51.8492842  91.3708149  84.1588849  53.6391715  91.2782919  84.0484862
  54.0697437  92.2479230  84.2985303  54.0083713  90.5265808  84.7461413
  53.9274327  91.0041284  83.0336754  50.6306629  95.1098019  84.6088622
  51.3893075  94.8591842  85.5006774  50.4927023  96.3417520  84.1724282
  49.8491446  96.4775179  83.4059424  51.2839752  97.5216695  84.6541988
  52.3506569  97.2977353  84.6422544  51.0185779  98.7293402  83.7083500
  51.2446839  98.3642958  82.7064927  49.9499099  98.9279855  83.7895203
  51.8503546 100.1065136  83.9859648  51.6266396 100.8899521  83.2618954
  51.4983188 100.4118850  84.9713166  53.3658656  99.8730779  84.0344442
  53.9532950  99.0607393  83.2536506  54.1684400 100.5220178  84.7481371
  51.0540359  97.9186639  86.0757512  51.8446608  98.6863411  86.7598865
  49.9470423  97.4758125  86.7156870  49.2852723  96.9212179  86.1916787
  49.6512282  97.7617506  88.1511324  49.1039605  96.9321909  88.5988241
  50.5759665  97.9268059  88.7040475  48.7588648  99.0737997  88.2326844
  49.1989577 100.0599583  88.7924043  47.5204610  98.9808437  87.7517225
  47.2787872  98.1059239  87.3087683  46.5438295 100.0542127  87.7332909
  46.5161899 100.4954678  88.7295987  46.8383768 101.1770803  86.7010912
  46.0704154 101.9347521  86.8568725  47.8115251 101.5854399  86.9737172
  46.8539093 100.7661564  85.2411760  47.1975147  99.7319316  85.2207990
  45.8189085 100.8113497  84.9023060  47.7444030 101.6261878  84.3014160
  47.3678378 102.6459894  84.2220290  48.7787098 101.6470469  84.6447435
  47.7022646 101.0010152  82.9646779  47.2238022 100.1140734  82.8975420
  48.2460791 101.4914160  81.8980018  48.7506345 102.6769773  81.9483524
  48.7149616 103.2014587  82.8107599  49.1791236 103.0755074  81.1251450
  48.2783290 100.8314027  80.7639593  47.8691268  99.9097195  80.7078012
  48.7121990 101.2482694  79.9527394  45.1217595  99.4207327  87.4947140
  44.9579301  98.2994397  86.9224187  44.1162279 100.0852597  88.0395727
  44.2504872 100.9662945  88.5148111  42.7079391  99.5696125  87.8730409
  42.7188698  98.5634220  87.4540416  41.9998940  99.5211292  89.2837086
  42.0764723 100.5253882  89.7004807  40.9491004  99.2541943  89.1711102
  42.6895471  98.5123852  90.2373182  43.7099004  98.8330361  90.4474680
  41.8853765  98.4631721  91.5523755  40.8649712  98.1421325  91.3430781
  42.3538529  97.7582385  92.2391791  41.8681353  99.4543146  92.0056298
  42.8700927  97.1056743  89.7676069  43.4796813  97.0991949  88.8640256
  43.3662893  96.5236182  90.5442027  41.8962177  96.6664407  89.5514121
  41.8939522 100.5655715  87.0149961  42.0869259 101.7737677  86.9824522
  40.9560868  99.9838069  86.2645906  41.0186720  98.9761919  86.2944950
  39.9177632 100.5689405  85.5025743  40.0028923 101.6552473  85.5306768
  40.0086748 100.1009661  84.0204731  40.2889596  99.0790874  84.2760187
  39.1444401 100.0848636  83.3564406  41.1288548 100.6638531  83.2419316
  40.8699309 101.4205061  82.0849023  39.8343250 101.7025203  81.8949329
  41.9095625 101.8243174  81.1648162  41.6528203 102.5197431  80.3657122
  43.1747717 101.3610950  81.2772960  43.9630134 101.5643549  80.5524096
  43.4458915 100.5799297  82.4035290  44.4790568 100.2596779  82.5380969
  42.4506374 100.1984027  83.3537156  42.7112377  99.5373132  84.1802433
  38.4896614 100.1108300  86.0445062  38.4098311  99.1603124  86.8428447
  37.4123785 100.8893686  85.7007897  37.6275084 101.7876939  85.2923413
  35.9633500 100.5273541  85.9092795  35.8753974  99.6075039  86.4874138
  35.2840487 101.6551562  86.6809421  35.9434854 101.9727828  87.4886276
  35.1139250 102.4904984  86.0017064  33.9783574 101.2040833  87.2523384
  33.5865785 102.1232467  87.6879400  33.4080242 100.9548002  86.3575312
  33.8201254  99.8839693  88.4329800  34.7406551 100.7069610  89.7450954
  34.2439175 101.6410887  90.0073092  34.7824596 100.0598913  90.6212540
  35.7532705 100.9184920  89.4016338  35.3542492 100.3233763  84.5245145
  35.3364491 101.2482888  83.7387735  34.8920779  99.0955507  84.2599787
  35.1621332  98.2998096  84.8203050  33.9979771  98.8674939  83.1011966
  34.2751400  99.5295320  82.2808396  34.1192314  97.3821533  82.6097388
  35.1762090  97.1624850  82.4592613  33.7051475  96.6886374  83.3416338
  33.3572007  97.2254154  81.2551376  32.3389089  97.5730981  81.4292046
  33.9586687  97.9853422  80.0823257  34.9768702  97.6378563  79.9073456
  33.3576619  97.8118606  79.1896916  33.9729990  99.0515214  80.3085046
  33.4512463  95.6930743  81.1494824  32.9616244  95.2382535  82.0105909
  32.9597835  95.3605576  80.2351530  34.4990401  95.3934822  81.1277599
  32.5970422  99.2175436  83.6134635  32.2265677  98.9245172  84.6595826
  31.6986620  99.7702687  82.7670582  31.9533926  99.7995416  81.7901473
  30.4037074 100.2905247  83.1549386  30.1302569  99.9414712  84.1506723
  30.4762793 101.7947865  83.1753344  30.5020379 102.0797042  82.1235466
  29.5361554 102.1244309  83.6176032  31.6568237 102.4614548  83.9185795
  32.4924439 101.7732501  83.7912454  32.0843131 103.8668306  83.4908502
  31.2492961 104.5557356  83.6183466  32.9225360 104.1950283  84.1054796
  32.3860988 103.8523934  82.4435597  31.2536062 102.5327664  85.3482814
  31.0692935 101.5266650  85.7249621  32.0510620 102.9969847  85.9285114
  30.3445128 103.1269896  85.4407304  29.3057611  99.9243883  82.2108772
  29.5030806  99.9739068  81.0247141  28.1318077  99.6414074  82.7037354
  28.0977472  99.4629065  83.6972527  26.8956786  99.3862325  81.8923467
  27.0487021  99.6887834  80.8564192  26.5770715  97.8721604  81.9234141
  26.6189120  97.5859862  82.9743436  25.5438482  97.8352052  81.5781838
  27.4254662  96.9033142  81.0971946  27.6337147  97.3466911  80.1234645
  28.7462780  96.6198114  81.8222748  28.5388412  96.1759657  82.7959635
  29.3460318  95.9294210  81.2291835  29.2943121  97.5522090  81.9578985
  26.6802354  95.5568964  80.9398417  25.7293929  95.7242746  80.4338945
  27.2888453  94.8708487  80.3507459  26.4966124  95.1254974  81.9238521
  25.7225749 100.3100484  82.2966215  25.3483815 100.3489804  83.4850493
  25.2186499 101.0946922  81.3912428  25.6152809 101.0834536  80.4624495
  24.1025922 102.0436890  81.6721737  24.0122624 102.1495628  82.7532521
  24.3014784 103.4349475  81.0584489  25.2874280 103.7447619  81.4048847
  24.3346872 103.2541907  79.9840541  23.2609497 104.5660189  81.3656515
  23.3217664 105.2758033  80.5406617  22.2521949 104.1564539  81.4182772
  23.5981093 105.2979963  82.7101501  23.2944109 106.4692978  82.8454204
  24.1964340 104.6392762  83.5249203  22.7233929 101.5432903  81.1746595
  22.4432210 101.5066665  79.9591792  21.7238890 101.3880859  82.0850840
  22.0009596 101.3591403  83.0559049  20.3561525 101.0581200  81.7525280
  20.3685032 100.3470332  80.9265122  19.5584293 100.4326998  82.9361019
  18.5717202 100.1989629  82.5362626  20.0773878  99.5071911  83.1855324
  19.4146253 101.2525953  84.1431541  20.3767032 101.3037297  84.6529505
  19.1033706 102.2564303  83.8541249  18.3304173 100.6227874  85.1202620
  17.4116991 100.4829236  84.5506183  18.7040589  99.6533449  85.4499174
  18.0342015 101.5336156  86.3861602  17.5113868 100.9220189  87.1214934
  18.9914843 101.8551714  86.7964171  17.1970149 102.7455290  86.0532616
  16.3097600 102.4477795  85.6734935  17.0399051 103.2867158  86.8914343
  17.6814795 103.3126030  85.3722182  19.6433253 102.2862569  81.0592927
  19.8526697 103.4549211  81.4467574  18.7237293 101.8776436  80.1605401
  18.9080630 100.9857271  79.7239563  17.6197226 102.7454953  79.5856526
  17.5566767 103.6352852  80.2120696  17.7893590 103.1672568  78.1846527
  18.7960986 103.5809248  78.2434176  17.8266850 102.1882976  77.7067973
  16.8841188 104.1206535  77.3457464  17.3894799 104.3705536  76.4128686
  16.0030507 103.5161225  77.1304316  16.4524746 105.4250060  78.0648935
  16.3169111 106.4618041  77.4091426  16.1714514 105.4376161  79.2858092
  16.2676876 102.0918998  79.9377070  16.1662279 100.8508042  79.8503183
  15.2741636 102.8191288  80.4259507  15.4527700 103.7849879  80.6611428
  13.9560041 102.2684203  80.7193986  14.0337583 101.1818057  80.7557606
  13.3876120 102.7618505  82.0485506  13.6165702 103.8229113  82.1476829
  12.3064923 102.6239215  82.0325574  13.9753128 102.0069198  83.2230980
  13.5831859 100.9903509  83.1926807  15.0445966 101.9897884  83.0122953
  13.7386299 102.6043610  84.6157617  12.8055079 103.4411410  84.8022900
  14.4864754 102.1717626  85.5341732  12.9633075 102.5949123  79.5326992
  12.5643955 103.7435585  79.3372836  12.6014971 101.5745081  78.7257788
  13.0812959 100.7126789  78.9429029  11.7799909 101.6300791  77.4937076
  12.2856834 102.3113001  76.8093742  11.5466533 100.3355470  76.7915517
  11.1625814  99.5817011  77.4787958  10.8492796 100.4602511  75.9631684
  12.9333796  99.8777078  76.2395034  13.3441713 100.6889592  75.6384857
  13.5249131  99.7636867  77.1479027  13.0202137  98.5745214  75.4302530
  12.1885184  97.7263808  75.4644352  14.0459189  98.4783611  74.6252339
  14.1661581  97.6484069  74.0623662  14.7132508  99.2344804  74.5699783
  10.4695563 102.4370489  77.8118128  10.0260350 102.5366134  78.9683290
   9.7363076 102.8007777  76.7787500  10.1789639 102.8931310  75.8756301
   8.3630343 103.2554199  76.9229052   8.3591336 104.2211408  77.4283428
   7.6642728 103.4091346  75.5678398   8.4712341 103.4885647  74.8394144
   7.1294100 102.4716047  75.4159863   6.6866529 104.5959595  75.3860076
   5.9450703 104.4959988  76.1785756   7.2767681 105.4970874  75.5528447
   5.8283268 104.7278045  73.7702300   4.7925439 106.1590728  74.2005437
   5.4297582 107.0035745  74.4629819   4.1688720 106.4264570  73.3475256
   4.1572363 105.9063530  75.0494360   7.4731264 102.4866622  77.8911042
   6.8645186 103.1441726  78.7693745   7.4123381 101.2058345  77.9035313
   7.9029163 100.7683058  77.1367191   6.6522031 100.3468360  78.8268126
   5.7563230 100.8552274  79.1832340   6.2332002  99.0951427  78.0741171
   5.5659620  98.5680770  78.7560953   5.6618709  99.4698248  77.2248256
   7.3027010  98.1464802  77.5824462   8.4644694  98.5556705  77.5185596
   7.0289707  96.9303449  77.2398696   7.3387211  99.9479706  80.1682690
   6.8626659  99.0127154  80.8404097   8.5261548 100.5362616  80.5053029
   8.9561562 101.2174900  79.8961019   9.2175130 100.1908308  81.7760112
   9.7166092 101.0837748  82.1523797   8.4704428  99.8611857  82.4980359
  10.2319541  99.1056703  81.5950727  10.8532177  98.6796799  82.5538869
  10.3760001  98.4853012  80.4112408   9.8376236  98.8600373  79.6432415
  11.2932499  97.3536641  80.1398989  11.1748044  96.6002029  80.9185940
  10.9752982  96.6969533  78.7565416  11.2597460  97.3493640  77.9309812
  11.8093204  95.4258467  78.7083665  11.5250942  94.7726872  79.5334106
  11.6356819  94.9123571  77.7627042  12.8657011  95.6803188  78.7944153
   9.6154166  96.3834095  78.6292139   9.4582591  95.9835091  77.7707376
  12.7265653  97.8642282  80.0508417  13.0773702  98.8543530  79.3139036
  13.6656630  97.1874489  80.7663362  13.3403596  96.3541348  81.2352334
  15.0887439  97.5759853  80.9286203  14.9953102  98.6432070  81.1296358
  15.7936749  96.8874643  82.1680738  15.7536014  95.8049872  82.0466790
  17.2475860  97.3344850  82.2597458  17.2884586  98.4168786  82.3816253
  17.7224532  96.8548139  83.1156180  17.7733075  97.0519718  81.3476576
  15.1967832  97.4627770  83.4400855  14.1255663  97.2625193  83.4622947
  15.6704149  97.0000640  84.3059199  15.3652464  98.5393559  83.4665191
  15.8250124  97.1803230  79.6375858  15.7650190  96.0500068  79.2039292
  16.5767346  98.0753300  79.0216393  16.5302272  99.0237053  79.3659076
  17.4631358  97.7914067  77.9642702  17.6139638  96.7236640  77.8052872
  16.8177578  98.4261697  76.6269160  15.7610201  98.1602569  76.6533009
  16.9568981  99.9241039  76.4476757  18.0134390 100.1907402  76.4207302
  16.4829984 100.2242970  75.5131157  16.4745065 100.4365133  77.2800431
  17.3903634  97.8163437  75.5201134  17.0127707  98.1873518  74.7192532
  18.8156934  98.4952436  78.2642062  18.9319575  99.3059585  79.1786181
  19.8659882  98.2229487  77.4470218  19.6924919  97.5281442  76.7348104
  21.2700586  98.7518735  77.6031657  21.3815645  99.2040958  78.5886405
  22.2885873  97.6402234  77.4628547  22.0813843  96.8718935  78.2077275
  22.0899649  97.2433374  76.4672992  23.7970457  98.0734212  77.5627446
  24.0211784  98.6490688  76.6646938  24.1389113  98.9025944  78.7961224
  23.9154657  98.3273941  79.6946297  25.1989493  99.1560026  78.7818219
  23.5470154  99.8178855  78.7947326  24.6830636  96.8663639  77.6997914
  24.5567858  96.2216804  76.8300003  25.7234021  97.1844721  77.7676464
  24.4122165  96.3166628  78.6012178  21.5986808  99.9113701  76.6990566
  21.6570633  99.7888063  75.4830745  21.7255699 101.1405199  77.2524750
  21.6631674 101.1424522  78.2605432  21.9559529 102.4165346  76.5678006
  21.2641063 102.5051903  75.7301923  21.7345877 103.6463404  77.5388893
  20.9294798 103.4251662  78.2395907  22.6510298 103.8514099  78.0922251
  21.3555753 104.8845683  76.6926740  22.2909466 105.2479899  76.2671084
  20.7147594 104.5106484  75.8941498  20.6517813 106.0230879  77.4161678
  20.4712371 106.7726492  76.6456739  19.7010328 105.6004516  77.7410605
  21.3227691 106.6484226  78.5571472  21.1882178 106.0057128  79.4271591
  22.3850474 106.7293983  78.3266977  20.7783845 107.9912682  78.8481730
  19.7941566 107.9164036  79.0621598  21.2656432 108.3879336  79.6389545
  20.9033487 108.5870984  78.0422763  23.3831645 102.4263148  76.0998962
  23.6661284 102.6692270  74.9616277  24.3777705 102.1131237  76.9206496
  24.1274881 101.6201849  77.7659125  25.7722087 102.4031569  76.6848725
  26.0613190 102.2157405  75.6507596  25.9459917 103.9486462  76.9869838
  24.9816247 104.3834732  76.7242654  26.0899601 104.0101969  78.0656796
  27.0602200 104.7176644  76.2803555  27.2976663 105.8747597  76.6902355
  27.6420022 104.1508904  75.3506724  26.7894706 101.6012652  77.6156232
  26.5119329 101.4865174  78.7890118  27.8953305 101.1759447  77.0232936
  28.0064258 101.4324871  76.0527561  28.9212712 100.4014349  77.6392541
  28.6091093 100.0896417  78.6359682  29.2066437  99.1275790  76.7849458
  28.2764531  98.5787792  76.9321309  29.2764011  99.4514458  75.7465122
  30.3584307  98.2449988  77.1067421  31.2656669  98.8337420  77.2424058
  30.0244097  97.5172530  78.4084630  29.1174829  96.9278895  78.2734318
  30.8490120  96.8575032  78.6783924  29.8681648  98.2465881  79.2032952
  30.6895923  97.2828881  75.9490146  30.9407263  97.8584847  75.0581051
  31.5373244  96.6568193  76.2273837  29.8252524  96.6520003  75.7416596
  30.1404551 101.3205800  77.6903832  30.4502539 101.8325275  76.5962953
  30.7866171 101.6458155  78.8286791  30.3978186 101.2114043  79.6534348
  31.9213026 102.6327196  79.0043866  32.3500382 102.8801742  78.0332784
  31.4114226 103.9240328  79.6588334  30.9796329 103.6833558  80.6302919
  32.2488833 104.6085799  79.7935730  30.3341035 104.5947659  78.7662872
  30.7814076 104.8498775  77.8055906  29.5171197 103.8902403  78.6104566
  29.7830593 105.8882267  79.4428902  30.5969281 106.4221313  79.9334639
  29.3285038 106.5321864  78.6900327  28.7530744 105.5463258  80.4633160
  28.3488138 104.6243527  80.3818399  28.3805164 106.3287162  81.5139362
  28.6884723 107.5532420  81.5339322  29.2124569 107.9516130  80.7678769
  28.4093026 108.1283207  82.3158838  27.6721823 105.9347493  82.4623422
  27.3400004 104.9810730  82.4783648  27.4343818 106.5714088  83.2094796
  33.1011188 102.0437894  79.7867847  32.8499748 101.1318041  80.5841870
  34.3305295 102.4684191  79.6127385  34.5224351 103.0232522  78.7908919
  35.4777112 102.0722066  80.4833629  35.1416832 101.7037542  81.4526034
  36.3108493 100.9388787  79.7754945  35.6554919 100.0853077  79.6022247
  36.8986962 101.4261700  78.4170368  37.5545698 102.2794963  78.5895623
  37.4675730 100.6186610  77.9561585  36.0857062 101.7216820  77.7538464
  37.4586989 100.4383878  80.6477182  37.0593711 100.0342993  81.5779610
  38.0046845  99.6578185  80.1178965  38.1330742 101.2650569  80.8711840
  36.3405233 103.3157647  80.8866986  36.7588625 104.1594337  80.1008132
  36.7418251 103.3001944  82.1712029  36.4906521 102.5587876  82.8094249
  37.4404368 104.4715692  82.7074062  37.8253963 105.0475183  81.8658671
  36.5628747 105.3857207  83.5648948  36.3601157 104.8583986  84.4970533
  37.1413056 106.2852908  83.7753499  35.2893976 105.7595463  82.9255479
  34.7011283 104.8870812  82.6412159  34.7660310 106.3112055  83.7064825
  35.4847643 106.6694089  81.6972740  34.6319476 106.7927633  80.8067581
  36.5090279 107.4006989  81.6351929  38.7316860 104.1222459  83.4744354
  38.8531213 102.9700561  83.8941902  39.7835502 105.0235829  83.5885565
  39.7495421 105.8638243  83.0291486  41.0484908 104.7107763  84.3214918
  41.0800970 103.6435504  84.5408754  42.2889439 105.0788187  83.4989165
  42.2866757 104.3337409  82.7033329  42.1135384 106.0661924  83.0718027
  43.6617061 105.0634200  84.2163568  43.5879878 105.7044680  85.0948350
  44.0978931 103.6154821  84.6583917  44.1722803 102.9739312  83.7803382
  45.0665373 103.6632710  85.1559309  43.3570644 103.2060669  85.3451613
  44.7305068 105.6522509  83.3594758  44.4773354 106.6851127  83.1203100
  45.6805474 105.6258130  83.8931661  44.8160597 105.0768851  82.4376657
  40.9707159 105.3057599  85.7464081  40.7465842 106.4973521  85.8934009
  41.2274640 104.5147525  86.7934099  41.3934594 103.5301058  86.6417003
  41.2342054 105.0230851  88.1887695  40.6262800 105.9169436  88.3285651
  40.5793711 103.8379911  88.9938411  41.3668785 103.1304834  89.2533873
  40.2244246 104.3333909  89.8975513  39.4030756 103.0793455  88.3243193
  39.7651069 102.7534990  87.3491996  38.8644738 101.8731570  89.0972970
  38.5018099 102.1983104  90.0724118  38.0460026 101.4190134  88.5387638
  39.6614836 101.1419036  89.2319973  38.2470764 104.0564778  88.2598576
  38.5377147 104.9255194  87.6696072  37.3876499 103.5732144  87.7951600
  37.9829824 104.3747115  89.2683618  42.5301851 105.4500247  88.9128609
  42.5726580 106.4739622  89.5489098  43.6201637 104.7274055  88.6955384
  43.5514832 103.8816952  88.1476732  44.9252568 105.1066937  89.2194817
  45.3968036 105.7864929  88.5098227  44.7788258 105.6191197  90.1703113
  45.8340927 103.9125010  89.4373483  45.3588580 102.7401262  89.2941408
  47.0690145 104.0764933  89.8432123  47.3520092 105.0405102  89.9465795
  48.0865038 103.0019490  90.1118403  48.1184111 102.2995610  89.2789344
  49.4311366 103.6087424  90.2721849  50.0662048 102.7234195  90.2407046
  49.5270057 104.1575191  89.3353000  49.8615308 104.5009957  91.4291390
  49.2495207 105.3995037  91.3502234  49.6196347 103.9773218  92.3539910
  51.3684083 104.8982880  91.4364152  52.1971135 104.3807854  90.6511874
  51.7770450 105.7705883  92.2937788  47.8066510 102.1165814  91.3555769
  47.3670473 102.6338077  92.4173709  48.0527069 100.7913250  91.2317624
  48.2676614 100.4859281  90.2933453  48.0609232  99.7522861  92.3510709
  48.2927154 100.0745797  93.3662056  46.6506837  99.0322796  92.3583764
  46.7757765  98.2676033  93.1250069  45.3317869  99.7981692  92.6057511
  45.2057643 100.5627622  91.8391902  44.4938306  99.1022588  92.5652886
  45.3640070 100.2705659  93.5875371  46.5155702  98.2362415  91.1851455
  45.6602345  97.8003889  91.1909390  49.1635005  98.7031405  92.0780460
  49.9497852  98.9062086  91.1961108  49.2128147  97.6116799  92.8047480
  48.6396536  97.6525060  93.6353616  50.0302570  96.4194553  92.5844807
  51.0441581  96.7523123  92.3624222  50.0830130  95.4351256  93.7783487
  50.2518781  96.0453637  94.6655878  49.0956879  94.9768704  93.8357198
  51.0778473  94.4138572  93.7072527  51.0259560  93.8615092  94.4907186
  49.6092207  95.6055836  91.3539076  48.5124687  95.8066485  90.7387871
  50.5247016  94.7416210  90.8936497  51.4355903  94.7194201  91.3294112
  50.3014265  93.9074327  89.6908030  49.8391961  94.5200138  88.9167315
  51.6304112  93.3671397  89.1834007  52.1387339  92.7982470  89.9619053
  51.3125198  92.4385730  87.9927799  50.8045672  93.0069019  87.2136220
  52.2399090  92.0263860  87.5950967  50.6681998  91.6255466  88.3273527
  52.6358756  94.4693911  88.6829086  52.2142828  94.8713839  87.7616257
  52.6429714  95.2459515  89.4477635  54.0875228  93.9892327  88.4205016
  54.0812812  93.2129376  87.6553698  54.6927156  94.8294094  88.0799960
  54.5099691  93.5875028  89.3415077  49.2762521  92.8109483  89.9571515
  49.5524555  91.8274541  90.6613701  48.0252412  92.8686766  89.4302625
  47.8409678  93.4791547  88.6470261  46.9192323  92.1496553  90.0112812
  46.9931999  92.0685762  91.0957415  45.6352503  92.9899239  89.6557771
  45.5425313  93.0721315  88.5728435  44.7524819  92.4935968  90.0588648
  45.7209519  93.9863404  90.0892613  46.9001098  90.6903406  89.4902429
  46.5403942  90.3907799  88.3563341  47.3320326  89.7105550  90.3055862
  47.9019367  90.0319787  91.0749986  47.0546891  88.2617807  90.1957156
  47.4132158  87.9032853  89.2308120  47.7309111  87.4754567  91.2810024
  48.7158584  87.9143611  91.4401910  47.1343600  87.5846507  92.1867085
  47.8817123  86.0006835  90.9491200  48.2408719  85.4792528  91.8363715
  46.8678070  85.6721410  90.7207451  48.8076397  85.6811973  89.7542920
  48.5461717  84.6562151  89.0665414  49.7848287  86.4386020  89.4099929
  45.5489069  87.9698535  90.3094807  45.0214018  86.9838542  89.7647636
  44.9264573  88.8746984  91.0538852  45.5031338  89.5721695  91.5023019
  43.5373450  88.7757566  91.4485733  42.8826973  88.7993638  90.5773798
  43.3375884  87.4313758  92.1791729  42.3735664  87.4107279  92.6874390
  43.3948189  86.6005752  91.4758985  44.5709173  87.1025169  93.4386973
  44.0784646  85.9245647  93.8112793  43.0429686  90.0478603  92.1402309
  43.8182800  90.9612048  92.3717973  41.7097464  90.1604553  92.2425572
  41.1177244  89.3443738  92.1823876  41.0858249  91.4453442  92.4882409
  41.6188456  92.0381455  93.2315946  41.1626641  92.1670415  91.1402714
  42.2234239  92.3758105  91.0013346  40.8511683  91.3905274  90.4416326
  40.3806470  93.3987566  90.8893131  39.3239683  93.2155029  91.0841180
  40.8819149  94.4800503  91.8139836  41.9384857  94.6641983  91.6194418
  40.3164663  95.3960745  91.6429041  40.7535181  94.1623171  92.8487108
  40.4886111  93.9678037  89.5038846  40.1391128  93.2316996  88.7799363
  39.8768572  94.8670105  89.4311826  41.5283438  94.2183476  89.2934501
  39.6453061  91.1777073  92.8823499  39.0018489  90.2408279  92.4005244
  39.1922777  91.8450929  93.9268535  39.8703406  92.4600625  94.3536350
  37.7980407  91.7574216  94.5514475  36.9512078  91.6650561  93.8714167
  37.7535309  90.6176253  95.5321923  37.9304719  89.7426164  94.9067712
  38.7044358  90.5727489  96.7710168  38.5277394  91.4472651  97.3971953
  38.5088633  89.6684207  97.3472467  39.7410667  90.5712098  96.4341273
  36.4772296  90.4602057  95.9073082  36.4152826  89.7371830  96.5357992
  37.4254729  93.0700163  95.2631084  38.3083740  93.6813866  95.8446607
  36.1531658  93.4735924  95.2143541  35.5362783  92.8187875  94.7552466
  35.5752740  94.6517888  95.8161418  36.3366556  95.4211071  95.9447760
  34.4571906  95.2099772  94.8999752  34.9239379  95.5838742  93.9886864
  33.7343079  94.4348256  94.6456511  33.7355169  96.3698671  95.6218487
  32.3620721  96.3416711  96.0132875  31.7404806  95.5055380  95.6929675
  31.8197599  97.3484622  96.7828706  30.7778701  97.3012210  97.0996288
  32.6229319  98.4662473  97.1433317  32.1254557  99.4515629  97.9508164
  31.2182875  99.2923232  98.2215346  33.9111449  98.5626021  96.7077575
  34.5355277  99.4115079  96.9863354  34.4300949  97.5494197  95.8901082
  35.4137023  97.6664083  95.4352125  34.9037234  94.1617777  97.0878625
  34.1043667  93.1765872  97.1189536  35.1074714  94.8564071  98.2263430
  35.8694190  95.5187202  98.1967384  34.4678441  94.5871949  99.5226133
  33.9914321  93.6090274  99.4568937  35.4419885  94.5895891 100.7562980
  36.0751444  95.4513411 100.5451191  34.9703131  94.7160389 101.7307891
  36.3057565  93.3044773 100.7642037  35.6561290  92.4442475 100.6026813
  37.4049651  93.3556100  99.6274211  38.0553038  94.2153763  99.7885435
  37.9984790  92.4417472  99.6538171  36.9194813  93.4449852  98.6556094
  36.8348309  93.0707536 102.2162528  35.9911838  92.9555699 102.8967613
  37.4459433  92.1684907 102.2400098  37.4368522  93.9249761 102.5260483
  33.2515779  95.5135525  99.6473178  32.2844882  95.4016532  98.8664894
  33.3029356  96.4654085 100.5337949  34.1214314  96.5492589 101.1195706
  32.2284239  97.4712958 100.6819878  31.5852091  97.5697407  99.8075265
  31.4030067  96.8616918 101.8354138  31.1149426  95.8421235 101.5792913
  32.0183759  96.8497205 102.7350123  30.1426958  97.7007528 102.0890847
  29.7048107  98.4501538 101.0998093  29.5076878  97.7038659 103.1706212
  32.8604237  98.8291910 101.0959864  34.0199026  98.8318516 101.5124533
  32.1321758  99.9603991 101.0072046  31.2221971  99.8109530 100.5952534
  32.4997370 101.3345840 101.4176200  31.7467893 102.0380221 101.0621713
  32.5861766 101.4396914 102.9512102  33.4576918 100.8633019 103.2615899
  32.7427276 102.4914709 103.1906925  31.3687106 100.9387954 103.7255619
  30.2586806 101.4782807 103.6261734  31.4823810  99.9159280 104.5184246
  30.6767016  99.5854507 105.0300546  32.3758964  99.4560111 104.6194568
  33.9017477 101.5944990 100.7355745  34.8258846 102.0963934 101.3987087
  34.0868968 101.3616397  99.4482403  33.3107694 100.8426815  99.0630028
  35.2083323 101.7328215  98.5405418  34.8293282 101.7077197  97.5188643
  35.5131137 102.7492794  98.7895820  36.4496861 100.7895705  98.6457052
  37.3679958 100.8544712  97.8987853  36.3637247  99.8192349  99.5206443
  35.4974634  99.7263376 100.0315854  37.4975690  99.0003400  99.9287207
  38.4442875  99.5135477  99.7600755  37.4120211  98.6118264 101.3859141
  36.4395329  98.1543909 101.5679000  38.5285115  97.6143279 101.7640305
  39.5013698  98.0712540 101.5827401  38.4412155  97.3531282 102.8186653
  38.4321702  96.7134924 101.1579650  37.4723554  99.7868207 102.3452520
  36.6415431 100.4633089 102.1447108  37.4048061  99.4232259 103.3705985
  38.4140996 100.3187888 102.2102387  37.5560501  97.9044036  98.8941515
  36.5513124  97.2445262  98.6321879  38.7799550  97.7128227  98.3656985
  39.5096779  98.3101425  98.7273792  39.1361766  96.7191598  97.3330528
  38.4094681  95.9175576  97.2010383  39.3418173  97.4366061  95.9623870
  39.9889589  98.2965170  96.1351882  39.9898064  96.5009920  94.8549412
  39.3429606  95.6410368  94.6812508  40.1051878  97.0614552  93.9272189
  40.9666879  96.1573585  95.1951180  38.0320133  98.0321672  95.4952922
  37.6779724  98.7545587  96.2307565  38.1804030  98.5319841  94.5380758
  37.2925590  97.2396912  95.3800101  40.4388860  96.0969694  97.8432120
  41.4258694  96.7207470  98.3236558  40.5597537  94.8411936  97.5855530
  39.7204453  94.3531619  97.3071902  41.8321929  94.0551118  97.7085929
  42.5634555  94.6455705  98.2606009  41.6152281  92.7137693  98.4531442
  41.1539099  93.0236050  99.3908470  40.9437701  92.0370398  97.9246735
  42.8255372  91.9182360  98.8149780  43.7225298  92.4002645  99.7779515
  43.4549277  93.3232391 100.2923509  44.9142910  91.7508969 100.0880884
  45.6102164  92.1539686 100.8238341  45.2106168  90.5473653  99.4263613
  46.1181841  89.9931346  99.6656307  44.3457914  90.0700793  98.4709232
  44.6150950  89.1274927  97.9943664  43.1646529  90.7329855  98.0986906
  42.5488320  90.3371146  97.2911320  42.4659958  93.7444034  96.3814802
  41.8185254  93.2751525  95.4139908  43.7721099  93.9837268  96.2163881
  44.2988483  94.3307820  97.0051838  44.5022535  93.7322166  94.9272628
  43.8352825  93.2660202  94.2020664  45.1313073  94.9979832  94.2814027
  46.0090715  95.2599925  94.8721483  45.5516345  94.8038867  92.7733929
  44.6742503  94.5422938  92.1818972  45.9822119  95.7303952  92.3935435
  46.2892909  94.0046615  92.7012561  44.2386395  96.2633042  94.3326166
  44.0226488  96.5144221  95.3710722  44.7594521  97.0954329  93.8588913
  43.3049142  96.0714974  93.8039693  45.6798475  92.7796732  95.1209492
  46.8443025  93.0738496  95.4095419  45.3126174  91.5105788  95.1641293
  44.3194378  91.3448001  95.0853200  46.1989154  90.3560368  95.3124484
  46.6798921  90.4408296  96.2869076  45.5732995  89.4636646  95.2930595
  47.2657333  90.2329651  94.2456134  47.0557940  90.5566203  93.0841743
  48.4580331  89.8412607  94.6210065  48.5438479  89.5978670  95.5974770
  49.6972946  89.9226171  93.8031983  49.4365249  89.7647012  92.7566989
  50.3884504  91.2487397  93.9303851  49.6644794  92.0625654  93.9710404
  51.0160529  91.2766137  94.8211366  51.1946445  91.3943086  92.7831982
  51.6582917  92.2340082  92.8223855  50.6574725  88.7316900  93.9999620
  50.9134532  88.2997636  95.1181975  51.2358964  88.2976105  92.8954650
  50.8640037  88.6163422  92.0121727  52.3893310  87.3489779  92.8771608
  52.5918767  86.9383412  93.8663281  51.9897440  86.2020463  91.9433991
  51.0656953  85.7822412  92.3408874  51.7959224  86.6462933  90.9670908
  53.0444841  85.0807810  91.7988122  53.9689911  85.5737999  91.4982792
  53.1681175  84.6533756  92.7938707  52.7167163  83.9765589  90.8117317
  53.6695573  83.5615124  90.4832053  52.1630162  83.2191033  91.3665079
  51.9348460  84.3576087  89.6259047  51.4985567  85.2661579  89.6913990
  51.9431176  83.7395056  88.4445592  52.5954351  82.6395266  88.2815071
  53.1065359  82.2396114  89.0554216  52.5922865  82.1829049  87.3806262
  51.0996597  84.1205465  87.5358476  50.4547706  84.8723829  87.7332307
  51.0917350  83.6636243  86.6351490  53.6252012  88.0024272  92.4065158
  54.6568007  87.6001284  92.8929231  53.5720848  89.0106655  91.5480315
  52.6879553  89.2872783  91.1456638  54.8020593  89.7129407  91.0970401
  55.6621175  89.0489589  91.1838001  54.6583560  90.1482100  89.6115314
  53.7035337  90.6656838  89.5186093  55.4719291  90.8636637  89.4918449
  54.7617104  89.0796593  88.5361774  55.8257758  88.9238652  88.3584307
  54.0944561  87.7310773  88.8735618  53.0302129  87.8860048  89.0509957
  54.2266636  87.0411279  88.0401400  54.5541523  87.3114586  89.7683801
  54.0338191  89.5167009  87.2426045  54.4833245  90.4349751  86.8646934
  54.1247189  88.7323111  86.4912250  52.9799223  89.6911286  87.4593425
  55.1790818  90.9702061  91.9742128  56.2121266  91.6043769  91.6637152
  54.4037347  91.2599473  93.0412839  53.4989643  90.8152060  93.1020719
  54.7956482  92.1710568  94.1019433  55.8845870  92.1367630  94.1356375
  54.4736829  93.1605885  93.7774980  54.2560682  91.9085793  95.4772844
  53.5311113  90.9630855  95.7133458  54.3041429  92.8943283  96.2915501
  54.9768884  93.6255469  96.1103536  53.4524416  93.0042811  97.5080172
  53.5421747  92.1141622  98.1307013  53.9367368  94.2227570  98.3179447
  54.0345830  94.9936306  97.5535631  53.1872616  94.5286642  99.0478815
  55.2885869  94.0265821  99.0234422  55.6722332  94.9535019  99.8197388
  56.1057578  93.1006037  98.8368926  51.9492713  93.1513444  97.1025034
  51.6475502  94.0103054  96.3031884  50.9871416  92.4069635  97.6881769
  51.2487802  91.6314243  98.2799400  49.5406306  92.7267286  97.5422952
  49.3172124  92.8200186  96.4795250  48.6192698  91.6713163  98.1429158
  48.7438756  91.6346874  99.2251500  47.5802699  91.8991267  97.9048363
  48.9705376  90.4035606  97.5794263  48.4012811  89.7222766  97.9446644
  49.1317931  94.0388815  98.2971916  49.6812644  94.2577991  99.3316395
  48.1145912  94.8084696  97.8556428  47.6675257  94.6063217  96.9728246
  47.6423200  95.9200600  98.6136769  48.2703345  96.0611840  99.4933250
  47.6865379  97.2504268  97.7377214  46.9951159  97.0761330  96.9133086
  47.2908853  98.0343334  98.3835151  49.0646671  97.6918876  97.1727563
  49.7337277  98.0752728  97.9431293  49.5303412  96.8386216  96.6796166
  48.8363157  98.7822613  96.1423201  48.1876413  98.5552726  95.1376477
  49.2710657 100.0004888  96.2977140  49.0938072 100.6917043  95.5829400
  49.7833302 100.2480109  97.1322314  46.2255319  95.6632039  99.0430224
  45.5340660  94.8866387  98.4157511  45.8629622  96.3053360 100.1720572
  46.4787585  96.3672899 100.9702151  44.4687373  96.8076289 100.3155451
  43.7931989  96.2817748  99.6408418  44.0029972  96.5453176 101.8015642
  44.2299135  95.5119132 102.0636397  44.6473218  97.2141851 102.3721448
  42.5785395  96.8366623 102.1212788  42.2443358  97.7297715 101.5932970
  41.7437497  95.6268266 101.6621618  42.0770871  94.7333612 102.1900866
  40.6913299  95.8065510 101.8817349  41.8711055  95.4829938 100.5892251
  42.4133222  96.9434284 103.6048684  43.0429811  97.7482955 103.9841020
  41.3706820  97.1567570 103.8404391  42.7058002  96.0031046 104.0721443
  44.3513456  98.2961720  99.8474567  45.2360625  99.1232504 100.1316880
  43.2630881  98.5952187  99.1033540  42.5467332  97.9019614  98.9410909
  43.1292889  99.9599525  98.4047422  43.6075212 100.8241341  98.8658096
  43.5778761  99.8761211  96.9313730  43.5952841 100.8887664  96.5284515
  44.9487052  99.2457103  96.7733099  44.9319570  98.2328083  97.1756157
  45.2140675  99.2120662  95.7166399  45.6864063  99.8386751  97.3139498
  42.6502726  99.3013461  95.7914334  41.7398143  99.8972984  95.7281202
  43.1774795  99.3419223  94.8382775  42.3918936  98.2672422  96.0194036
  41.7104347 100.5081734  98.5055568  40.7680152  99.7784792  98.0885220
  41.5328410 101.6806344  99.0426792  42.3291914 102.2132078  99.3625086
  40.1761953 102.3353071  99.0747615  39.3967979 101.5849840  99.2076306
  40.1125405 103.3237400 100.2513631  40.6533727 102.9479437 101.1199119
  40.5056913 104.3019337  99.9744704  38.6085883 103.4510565 100.5957629
  38.1000177 103.7192005  99.6697199  38.2794112 102.4630116 100.9174955
  38.2740823 104.4694864 101.6691521  37.1893087 104.4773562 101.7754693
  38.7269356 104.1175267 102.5960543  38.7671137 105.8868429 101.3668169
  38.7469091 106.4823889 102.2795148  39.7867337 105.8443053 100.9838486
  37.9054537 106.4936759 100.3764499  36.9606813 106.5335796 100.7312914
  38.2295856 107.4290041 100.1759513  37.9243652 105.9422170  99.5304980
  39.9713622 103.2283839  97.8389115  40.7461553 104.2091942  97.7088080
  38.9628338 102.8833726  97.0150173  38.7019887 101.9093160  97.0722263
  38.3300738 103.7060310  96.0028049  39.0394211 103.9960689  95.2276897
  37.1792946 102.8396843  95.3383225  36.5683245 102.5971854  96.2078103
  36.6137351 103.4848696  94.6660291  37.5581332 101.5566331  94.6107602
  37.9227072 100.8054344  95.3113935  36.3298021 101.0636227  93.9561117
  35.9648653 101.8141426  93.2549414  36.5491654 100.1411302  93.4185356
  35.5673679 100.8711528  94.7109295  38.7083963 101.7690952  93.6534831
  39.5811814 102.1182859  94.2052181  38.9460311 100.8288876  93.1558481
  38.4286564 102.5135454  92.9080714  37.8472103 105.0529073  96.4827987
  37.6042663 105.2718840  97.6613026  37.7468802 105.9544569  95.5275290
  38.1580028 105.6534673  94.6554724  37.2807657 107.3268379  95.6319926
  36.4554070 107.4074190  96.3393744  38.4600483 108.1939270  96.1453988
  39.3411161 107.7382937  95.6934950  38.3492543 109.2135787  95.7764340
  38.6514449 108.2400033  97.6147287  37.7308742 108.2907126  98.4055032
  39.8590676 108.2959644  98.0943084  40.0012705 108.3277329  99.0937427
  40.6490098 108.3073901  97.4650535  36.6488943 107.6933088  94.3001973
  36.6804977 108.8377277  93.8419610  36.1065086 106.7283591  93.5603764
  36.0054857 105.8228714  93.9962500  35.7659978 106.8594476  92.0973364
  36.5532019 107.2924335  91.4801394  35.3160485 105.4967199  91.4547940
  34.4401386 105.1178358  91.9814133  34.9579199 105.7245589  89.9353364
  35.8335349 106.1030295  89.4079282  34.6459335 104.7801174  89.4894719
  34.1465040 106.4481729  89.8573066  36.3159309 104.3201954  91.6761771
  36.4383727 104.1429266  92.7446741  35.9283930 103.4190387  91.2009609
  37.2807485 104.5752900  91.2378226  34.7184397 107.9645163  91.7725023
  34.9352559 108.6842383  90.7844001  33.8103483 108.1450671  92.6735330
  33.7984080 107.4489849  93.4052614  32.7265330 109.0952713  92.6158064
  32.7416261 109.6170166  91.6589087  31.3715258 108.3726168  92.7619118
  31.5818032 107.7924008  93.6603727  30.5263067 109.0353672  92.9475639
  31.0304186 107.4194552  91.6049231  30.9733085 107.9301798  90.4898980
  30.6585386 106.2703855  91.8888861  32.9750248 110.2817890  93.5795043
  32.0695082 111.0734593  93.8051742  34.1928165 110.6483807  93.9717271
  34.7940879 109.8491556  94.1124798  34.7103738 111.9504797  94.2763608
  34.0402753 112.4436839  94.9805034  36.1058574 111.8817563  94.8963937
  36.1301139 111.1652733  95.7174680  36.8485138 111.6024115  94.1490463
  36.4010340 113.1890359  95.3959504  37.2738097 113.1892645  95.7957784
  34.7727110 112.9296854  93.1236426  35.3186912 112.6056867  92.0583706
  34.3521235 114.1454071  93.4547031  33.7886543 114.1253431  94.2926763
  34.4655476 115.3984430  92.7318373  34.7735609 115.1773707  91.7099009
  33.1480181 116.2045766  92.6870073  32.9727009 116.8462072  93.5505311
  33.3268884 116.8219012  91.8066575  31.9303100 115.3810368  92.4511636
  31.9655542 114.6169330  91.5288360  30.9191219 115.3021015  93.2553077
  30.1316782 114.7168026  93.0156051  30.9223048 115.8261788  94.1186927
  35.5754585 116.2893403  93.1552117  35.7302054 117.3192979  92.5168413
  36.4286728 115.8713605  94.0930322  36.4050043 114.9022494  94.3765155
  37.4456281 116.7888424  94.7491844  37.8088326 117.5614843  94.0715369
  36.6561579 117.4884888  95.9423758  37.3220658 118.2890375  96.2645365
  35.7783199 117.9186997  95.4602771  36.2130256 116.6563915  97.1761075
  35.3784907 115.9951862  96.9427413  37.0743442 116.0606970  97.4783948
  35.8247841 117.5741555  98.2930153  36.3285565 117.3279479  99.4337414
  35.0762690 118.5855359  98.0854877  38.6798060 116.1111236  95.3220894
  39.6766373 116.7893873  95.6181768  38.8117179 114.8159721  95.4230745
  37.9706211 114.2607693  95.3567018  40.0772193 114.1290916  95.5856236
  40.6502923 114.5689851  96.4018222  39.8096110 112.6888255  95.9095131
  39.0192814 112.3192615  95.2561365  40.7191608 112.1123707  95.7406373
  39.3648885 112.5363232  97.4047104  38.4971571 113.1946015  97.4472864
  39.0600726 111.5181229  97.6464904  40.3661331 112.9942208  98.4289882
  41.5001138 112.4716126  98.4570499  40.0237752 113.8128799  99.3469715
  40.7039842 114.1141625 100.0300864  39.0743772 114.1552959  99.3856497
  40.8480349 114.1971343  94.2691911  40.2267920 114.2137679  93.1971339
  42.1970867 114.1916830  94.2370264  42.6869066 114.1783043  95.1202007
  42.9601496 114.2035164  93.0479885  42.4937804 114.9352203  92.3882853
  43.9572206 114.5470237  93.3235815  43.0777538 112.8951999  92.3209567
  42.6406884 112.7405373  91.1916869  43.6433560 111.9115501  92.9685864
  44.3208818 112.1929302  93.6627646  43.4399746 110.4637481  92.7324079
  43.5055048 110.2110225  91.6741382  44.5884433 109.7362317  93.4894056
  44.5267287 108.6756819  93.2454285  45.5333526 110.1382340  93.1238367
  44.5187507 109.8983260  94.8621628  45.2476469 109.4311377  95.2769463
  42.1191909 109.8534350  93.1154460  41.4779097 110.2062020  94.1410556
  41.7909816 108.7608821  92.4704717  42.4107717 108.5559367  91.6997857
  40.5000754 107.9346899  92.6080929  39.7846862 108.4208997  93.2713556
  39.8802967 107.8301235  91.2124489  40.6863105 107.3371440  90.6689305
  38.9807035 107.2166673  91.1624127  39.5976832 109.2143743  90.5736067
  40.5274057 109.7921516  89.7274988  41.4364495 109.2752978  89.4199262
  40.2695939 111.0779970  89.2674001  41.0463834 111.5927694  88.7019718
  39.0528484 111.7679923  89.6127143  38.7268830 112.9879448  89.0133776
  39.3854143 113.2825102  88.3799998  38.1394794 111.1298443  90.4942898
  37.1857186 111.5982761  90.7372147  38.4689931 109.9030036  91.0463193
  37.8541086 109.4800112  91.8407339  40.5663485 106.6070668  93.3773235
  39.5619386 105.9504413  93.4391751  41.7698621 106.2181712  93.9024074
  42.5058089 106.9094872  93.8786614  42.0830722 104.8812913  94.4426654
  41.3792061 104.5431455  95.2031449  42.1487305 103.8122808  93.3161861
  41.1498200 103.7393611  92.8861166  43.1378710 104.1193640  92.2323217
  44.1371518 104.1919834  92.6615831  43.1199499 103.3238975  91.4873302
  42.8767170 105.0658049  91.7588771  42.4114452 102.3211895  93.6881198
  41.6206370 101.9662641  94.3489923  42.4247695 101.7168514  92.7810930
  43.3728637 102.2364974  94.1946795  43.3750509 104.9273332  95.1844180
  44.3864528 105.3043126  94.5743837  43.3740937 104.6518003  96.4502643
  42.4437706 104.5186741  96.8202314  44.4819532 104.8785437  97.4035070
  45.4087119 104.8474688  96.8305742  44.3617720 106.2751679  98.0794593
  44.1813832 107.0187959  97.3032014  43.2131980 106.3134357  99.1027713
  43.3931292 105.5703432  99.8796491  43.1605469 107.3043671  99.5537517
  42.2711634 106.0927406  98.6008092  45.6787703 106.5915542  98.8989929
  46.5355812 106.5908559  98.2252151  45.5880983 107.5705270  99.3696207
  45.8207044 105.8314251  99.6672112  44.8754842 103.6895083  98.2810002
  44.0451265 103.0390737  98.8213834  46.1731129 103.3502771  98.3515615
  46.8176602 103.7602150  97.6907975  46.6700974 102.2936775  99.2472515
  46.2663937 101.3231157  98.9589248  48.1479378 102.2915054  98.9962061
  48.5680902 103.2538268  99.2886262  48.6151326 101.4989497  99.5807443
  48.3367238 102.1201590  97.9364423  46.2006924 102.4833076 100.7559087
  45.9331984 103.5902276 101.2083180  45.9535396 101.3807073 101.4490804
  46.1654829 100.4682137 101.0715425  45.4561007 101.4667025 102.8469589
  45.2231360 102.5056892 103.0800540  44.1753093 100.6108191 103.0584254
  44.3098944  99.6728930 102.5196484  44.0846872 100.4066155 104.1252846
  42.9309598 101.2916046 102.5727966  42.8319149 102.1521945 103.2343675
  43.1961646 101.6320538 101.5718656  41.3529073 100.4109984 102.5025618
  40.9949476 100.3106356 104.2310372  40.9267791 101.3156504 104.6474472
  40.0471508  99.7924419 104.3768350  41.7899140  99.7618500 104.7359767
  46.4919711 100.8595006 103.6986299  46.6346113 101.3054507 104.8514448
  47.1117142  99.7882206 103.2613639  47.0290261  99.6701067 102.2617084
  47.8162711  98.8274126 103.9840925  48.5709640  99.2974276 104.6146666
  46.8280459  98.0622806 104.8858569  46.3018754  98.7815480 105.5134699
  46.1108514  97.5411653 104.2516873  47.5637642  97.0374142 105.7819593
  46.7143167  96.4706535 106.1631706  48.2887227  96.3526534 105.3419172
  48.2217609  97.8073716 106.9327621  47.7307833  97.8654151 108.0529755
  49.1747671  98.5857184 106.6822319  48.4832666  97.9261846 102.9235653
  47.6842893  97.3242821 102.1289493  49.8061531  97.7511908 102.9294497
  50.3914063  98.3029145 103.5403335  50.4613403  96.8070198 101.9920097
  49.7266118  96.4575473 101.2666531  51.5217278  97.5383932 101.2737609
  52.2288898  97.8787684 102.0301780  52.2683346  96.7313173 100.2019023
  51.5618495  96.3909734  99.4448393  53.0258186  97.3605134  99.7345379
  52.7480894  95.8687216 100.6643572  50.9559255  98.6326561 100.5646682
  51.6497451  99.1053151 100.0990417  50.9949875  95.5866795 102.7625804
  51.3119543  95.5336265 103.9599719  51.1667850  94.5311414 101.9330927
  51.1465376  94.6988615 100.9373219  51.2645499  93.0843958 102.4234916
  51.4699794  93.1005677 103.4938357  50.0072322  92.2762805 102.1844604
  49.7627818  92.2963099 101.1224142  50.0623532  91.2421901 102.5246349
  48.8483843  92.9039620 102.9038973  47.9558639  93.7381266 102.1788941
  48.0420082  93.8856875 101.1023697  46.9220616  94.3925313 102.9065459
  46.2560531  95.0444940 102.3413220  46.7309134  94.2230670 104.3447664
  45.9135725  94.7179057 104.8693506  47.6560310  93.3756082 105.0766024
  47.6117483  93.2147870 106.1537634  48.6706317  92.7324878 104.2980098
  49.3769474  92.0541831 104.7766756  52.5156978  92.4653509 101.7665615
  52.4503033  92.1823287 100.5376441  53.5991956  92.3209812 102.5079514
  53.4796531  92.6288333 103.4624334  54.9140862  91.9775956 102.0665784
  55.2312186  92.5909983 101.2232141  55.8682747  92.1727458 103.1774792
  55.7768331  93.2314022 103.4203480  55.7374762  91.3569278 104.4349519
  55.8292831  90.2981094 104.1929297  56.5241123  91.6386411 105.1349093
  54.7641419  91.5421865 104.8892648  57.1729334  91.9408464 102.7357628
  57.7850145  92.0699954 103.4639644  55.0338100  90.6452247 101.3790799
  54.3545246  89.7373077 101.7345361  55.7838213  90.5342715 100.3167983
  56.2446933  91.3751569  99.9996104  55.8884215  89.3126077  99.4751531
  55.6753549  88.4414420 100.0946465  54.9101947  89.3246897  98.2929152
  53.8912486  89.3385369  98.6797698  55.1397033  90.2895000  97.8406246
  55.0077698  88.2595789  97.2310433  55.2121942  87.1246808  97.5537168
  54.7617270  88.6038789  96.0114035  54.8178344  87.9155015  95.2744582
  54.5142893  89.5599925  95.7999274  57.3609448  89.0470364  99.0056940
  57.9081163  89.9381035  98.3101893  58.0033146  87.9263835  99.3345999
  57.5735258  87.3076398 100.0073086  59.3277795  87.5689586  98.8054531
  60.0206117  88.4089743  98.8550136  59.8523847  86.4649484  99.6684119
  59.0449871  85.7331562  99.6421716  60.7255315  86.0603566  99.1565329
  60.2176668  86.7793215 101.1442718  59.3308793  87.1119382 101.6837854
  60.7499987  85.5335368 101.7801397  61.6371271  85.2005491 101.2414178
  61.0114647  85.7380918 102.8183562  59.9896731  84.7533251 101.7444299
  61.2388025  87.9178571 101.3160607  60.8370067  88.8350275 100.8854124
  61.4372580  88.0716485 102.3767515  62.1663973  87.6544175 100.8078614
  59.2682427  87.1564884  97.3592205  60.1353467  87.5051607  96.5819592
  58.2907874  86.3833066  96.8700240  57.5445635  86.1810485  97.5199016
  58.2040937  85.7996889  95.4682781  59.1206885  85.2423856  95.2749747
  57.3524953  85.1201397  95.4352288  58.0294619  86.8831978  94.3679771
  57.5200953  87.9622019  94.6531400  58.3712038  86.5786591  93.1549315
  58.1152765  87.3952624  92.0007281  58.6647480  88.3280412  92.1276337
  57.0459201  87.6047724  91.9746235  58.5902750  86.5873098  90.7637843
  59.5058872  87.0221932  90.3629978  57.8181598  86.5945450  89.9944423
  58.8325988  85.1383929  91.2973457  59.6571658  84.5877954  90.8445426
  57.9143591  84.5586133  91.2035855  59.1304898  85.4017604  92.7589628
  58.7207704  84.5714180  93.3340801  60.6448337  85.4707158  92.9716657
  61.3143848  86.3853416  92.5362268  61.2212598  84.4025387  93.5570139
  60.6871708  83.6772213  94.0139197  62.6651756  84.4136332  93.7374522
  63.1785209  85.3696877  93.6348087  62.9765361  83.8099663  95.1196540
  62.4706375  82.8455409  95.1649384  64.4956441  83.6143186  95.4157806
  65.0021687  84.5784450  95.3711291  64.6202010  83.1847308  96.4097830
  64.9274896  82.9428860  94.6736304  62.2173956  84.6239653  96.2267259
  62.7408188  85.5706265  96.3607470  61.2075114  84.8159125  95.8642486
  62.1473236  83.8919062  97.5559114  63.1568996  83.7000062  97.9192716
  61.6111269  84.5043848  98.2807992  61.6235938  82.9452906  97.4227725
  63.3599980  83.8405995  92.5850164  63.5626287  82.6416983  92.3918795
  63.7950548  84.6773380  91.6485207  63.6601703  85.6700848  91.7764240
  64.4927056  84.2007690  90.3812305  63.9647002  83.3706531  89.9119575
  64.5232826  85.3826464  89.3976468  65.1458548  85.1353491  88.5377938
  63.1014685  85.6603843  88.9309913  62.4783603  85.9082263  89.7903000
  63.1047799  86.4967118  88.2319592  62.7015587  84.7754022  88.4360363
  65.1128445  86.6509036  90.0586456  66.1319225  86.4490358  90.3885420
  65.1202427  87.4675219  89.3367179  64.5023796  86.9310676  90.9170986
  65.9453973  83.7297605  90.6674447  66.4629747  82.9212569  89.9020131
  66.5742232  84.2657654  91.7046283  66.0760876  84.9702329  92.2296862
  67.9900632  84.0172725  92.0359839  68.1854037  82.9454552  92.0698796
  68.9031297  84.6543037  90.9522955  68.4286984  84.5186245  89.9803874
  69.0559673  85.7177635  91.1361270  70.2565626  83.9341654  90.9649114
  70.3922783  82.7705175  91.4413300  71.2612739  84.5244129  90.5235247
  68.3402226  84.4542483  93.4892855  67.8212536  85.4790517  93.9160397
  69.1901409  83.7839068  94.2140856  69.6276383  82.9993906  93.7523177
  69.4951172  84.0158630  95.6423992  69.4930754  85.0864643  95.8471130
  68.4314909  83.3300654  96.5593195  68.5413884  83.8504807  97.5107341
  67.4823975  83.6082405  96.1011269  68.4577047  81.8563004  96.7928909
  68.6474412  81.3602631  95.8410255  69.2679428  81.6321145  97.4866898
  66.9419438  81.2631141  97.4624017  67.5863039  79.5592632  97.7711043
  68.4329243  79.6089500  98.4558408  66.7992815  78.9467972  98.2110837
  67.9073916  79.1154140  96.8287658  70.8548088  83.5835946  96.0642201
  71.3479483  82.5332605  95.6024228  71.3708395  84.2287056  97.0837367
  70.8497390  84.9718920  97.5267126  72.7225074  83.9866088  97.5219102
  73.0286210  82.9985108  97.1783175  73.7333006  85.0403520  96.9733289
  74.7461125  84.7760065  97.2773565  73.6785754  85.0753056  95.8852648
  73.4712310  86.6949924  97.5300449  74.4905253  87.2291149  96.8632236
  72.7909528  83.8937553  99.0210814  71.9754279  84.5876621  99.7008634
  73.7028927  83.1034062  99.6066785  73.9759607  82.2352690  99.1686476
  74.1342776  83.3521406 100.9975973  73.5345108  84.0977992 101.5194903
  74.1359896  82.0368655 101.8373219  74.3631021  81.2504282 101.1175750
  75.0820087  81.9262436 103.0245163  74.8551892  82.7121270 103.7449615
  74.9584341  80.9526216 103.4987419  76.1108534  82.0346505 102.6812551
  72.6988484  81.6917165 102.3389179  72.0369170  81.5588774 101.4831711
  72.7281334  80.7708395 102.9213504  72.3264237  82.5040544 102.9630234
  75.3561511  84.1330379 101.1237220  76.2646642  83.8148591 100.3771819
  75.4016149  85.1012602 102.0362069  74.5234457  85.4072594 102.4302663
  76.5829290  85.8997609 102.2890953  77.4474861  85.2470771 102.1680823
  76.8092082  87.1847245 101.4461740  76.0598557  87.9358040 101.6960731
  78.1852504  87.7197518 101.7686885  78.9352238  86.9693516 101.5186074
  78.3692372  88.6239953 101.1885222  78.2452093  87.9523587 102.8318915
  76.6687439  86.9378682  99.9117954  75.6663339  86.5700721  99.6927012
  76.8376384  87.8719570  99.3760226  77.4040020  86.1988925  99.5933441
  76.6848147  86.0860852 103.8038377  75.8097670  86.7067457 104.4459368
  77.7526537  85.5869209 104.3951726  78.1931471  84.8163636 103.9131909
  78.2305355  85.9278484 105.7934041  77.4001060  85.9900470 106.4966945
  79.1690346  84.7842022 106.2376866  78.7071534  83.8291831 105.9872798
  80.1571999  84.8401110 105.7810649  79.3002334  84.9011589 107.7335910
  78.4939061  85.5999652 108.4369823  80.2667866  84.3278929 108.3220729
  78.8172536  87.3566713 106.0582659  80.0612127  87.5513204 106.1651240
  77.9114394  88.3231378 106.0492546  76.9332462  88.0760302 106.0958950
  78.2820223  89.7937990 106.0428653  78.8464338  90.0841595 105.1567335
  76.9135523  90.5309073 106.0237758  76.3538895  89.8211099 106.6329264
  76.8486251  91.5228996 106.4708057  76.3162514  90.5685560 104.5962159
  76.7569252  89.7364960 104.0470497  74.8001929  90.4657707 104.5407187
  74.3587727  91.2978088 105.0893167  74.4709243  90.5005061 103.5022216
  74.4825566  89.5252110 104.9907797  76.8501905  91.6746660 103.6582274
  77.9258008  91.5543087 103.5290916  76.3576400  91.5987406 102.6888304
  76.6442541  92.6521974 104.0942567  79.0340481  90.0970928 107.3751442
  78.6144329  89.7605227 108.4657508  80.2436767  90.7314506 107.2163211
  80.4926793  90.8499910 106.2447012  81.2817399  91.0489009 108.2648462
  82.0592771  91.6596124 107.8059708  80.6940502  91.8295158 109.5083736
  80.0635319  91.1457057 110.0766602  81.5254790  92.1590378 110.1314639
  79.8605794  93.0556040 109.0714641  80.4368775  93.7082595 108.4157034
  79.0358648  92.6150221 108.5112565  79.3079805  93.8653442 110.2335215
  78.6887061  93.2450507 111.1541301  79.5170813  95.0879319 110.3566432
  82.1370371  89.8426699 108.6536798  82.8416251  89.9194446 109.7343682
  82.1205600  88.7105112 107.9210216  81.7008538  88.7779332 107.0048336
  82.4821993  87.3906660 108.4193937  81.9542141  86.6211048 107.8562719
  84.0172207  87.1614707 108.2584971  84.5787601  87.8734239 108.8633899
  84.2878551  86.1461947 108.5484483  84.3649901  87.3850496 106.7110960
  83.5076020  87.1751003 106.0716372  84.7201436  88.3978491 106.5208193
  85.4580215  86.4102370 106.4141235  86.2997388  86.6839493 107.0502780
  85.0864331  85.4281795 106.7066720  85.9082954  86.3442733 105.0652368
  85.6736758  87.1313484 104.4773884  86.6471079  85.3693671 104.5524357
  86.9276226  84.2879897 105.3098077  86.5744945  84.2314494 106.2543731
  87.4893955  83.5402149 104.9285681  87.0191657  85.4752435 103.3145006
  86.7439040  86.2835082 102.7750202  87.5824090  84.7489300 102.8957830
  81.9726699  87.0510560 109.8276671  82.6901110  86.5664972 110.6622652
  80.6720691  87.2868373 110.0924895  80.1814781  87.7474812 109.3393448
  79.9963580  87.1583009 111.3847216  80.6431147  87.5220283 112.1831622
  78.6898424  87.9964641 111.3840595  78.9244398  88.9128051 110.8424116
  77.9636099  87.4150586 110.8160331  78.1199425  88.3386906 112.7111647
  77.0947980  88.7044120 112.6526206  78.1323607  87.3730911 113.2166994
  78.9612838  89.3480443 113.5458533  80.0559635  89.7212197 113.1769814
  78.3915678  89.8850166 114.5776161  78.9024488  90.5451404 115.1462447
  77.4390957  89.6411052 114.8087127  79.8370592  85.7130264 111.9020664
  79.6157212  85.5911038 113.1018957  80.0682388  84.7005158 111.0533073
  80.3737412  84.9114301 110.1140082  79.8948564  83.2785595 111.4330915
  80.6182096  82.6935742 110.8650672  80.1132077  83.1911257 112.4974116
  78.5151173  82.7395565 111.1705314  78.1314485  81.6027262 111.5102548
  77.7004532  83.4753976 110.4824048  78.1269726  84.2829857 110.0511484
  76.3093758  83.2994063 110.3416926  76.0531540  82.2435215 110.2547625
  75.6147960  83.8840402 111.6419911  75.9828233  83.2986732 112.4846064
  75.9527837  84.9155157 111.7416039  74.0792794  83.8480650 111.6257851
  73.6892656  84.8028470 111.2731078  73.8749070  83.0762776 110.8837082
  73.3635510  83.4779310 112.9257154  73.6801097  84.1266535 113.9382423
  72.3933257  82.5963006 112.9563069  71.9427060  82.3760423 113.8329651
  72.1011780  82.1416190 112.1030686  75.7681502  83.9325832 109.0931515
  75.5547850  85.1321284 109.0639006  75.7513313  83.1871979 108.0355869
  76.1704441  82.2766109 108.1591788  75.2075362  83.5220963 106.7355838
  75.9507440  84.1304960 106.2202285  75.0646131  82.5873876 106.1933735
  73.8885011  84.2788884 106.7737547  72.9942669  83.9087243 107.5410127
  73.7366089  85.2650391 105.8838302  74.4989845  85.6755939 105.3638999
  72.3218227  85.8308274 105.6727556  71.6648732  85.3371480 106.3888542
  72.1879875  87.3399186 105.8485053  72.6374682  87.8456756 104.9939432
  71.1327366  87.6051678 105.9132220  72.9147138  87.7808952 107.1534277
  72.6409430  87.2899872 108.0873225  73.9628862  87.5801782 106.9317310
  72.7350240  89.2581374 107.3188338  71.7279997  89.8167731 106.9488216
  73.6236329  89.9562008 108.0538322  73.5071612  90.9528723 108.1686439
  74.4018666  89.4793900 108.4863887  71.9857297  85.4099186 104.2582482
  72.8880249  85.4104876 103.3795787  70.6769257  85.2611899 103.9561890
  70.0354241  85.3475368 104.7315079  70.1331510  84.9743388 102.6423783
  70.8935713  84.5361618 101.9959565  68.9823255  83.9660476 102.8009134
  69.3528307  83.0702057 103.2992027  68.3008886  84.4958849 103.4665081
  68.2460218  83.5715934 101.5326781  67.8587322  84.4950035 101.1020721
  69.0870000  82.8301476 100.4819323  69.4742769  81.9063379 100.9116893
  68.4653906  82.5956523  99.6178059  69.9187482  83.4617441 100.1698728
  67.1293762  82.5494809 101.7680618  66.3938449  82.9661451 102.4561636
  66.6463153  82.3135006 100.8198705  67.5523567  81.6405405 102.1958631
  69.6411333  86.2631103 102.0150492  68.9269200  87.0094157 102.6456747
  70.0606486  86.4965011 100.7379245  70.7631569  85.8536804 100.4012303
  69.7319718  87.6328084  99.9243820  68.8561571  88.1451308 100.3225950
  70.8824738  88.6000647  99.8953731  71.7011085  88.1450708  99.3377737
  70.4900237  89.9212325  99.2360011  69.6716917  90.3770785  99.7933503
  71.3467600  90.5950987  99.2332108  70.1712334  89.7354209  98.2103557
  71.4632564  88.9814783 101.2580338  71.8298012  88.0864761 101.7607444
  72.2862818  89.6825628 101.1194363  70.6881456  89.4475807 101.8663532
  69.2058341  87.3209330  98.5222326  69.8741834  86.8076373  97.6518386
  67.9298011  87.5590056  98.4116018  67.4654510  88.0899084  99.1345267
  67.1149586  87.0961627  97.2283938  67.6615794  86.3258367  96.6844243
  65.7655232  86.5317973  97.6455038  65.3051970  86.1291767  96.7432307
  65.8174534  85.4405737  98.7235832  66.2772656  85.8426111  99.6263779
  64.8055858  85.1047756  98.9504371  66.4064432  84.5982737  98.3606474
  64.9926966  87.6388960  98.1398878  64.1277407  87.3272829  98.4162010
  66.8244515  88.2728858  96.2816799  66.2696174  89.2770755  96.6292648
  66.9748896  87.9594795  95.0155192  67.6562348  87.2780437  94.7130075
  66.1497309  88.6348173  93.9840092  66.2317605  89.7164441  94.0910314
  66.6422894  88.2348323  92.5522986  66.3898494  87.2022092  92.3113366
  66.2374356  88.8956414  91.7857969  68.4006899  88.3526309  92.4219143
  68.4721973  87.9648729  91.1517062  64.6975486  88.2584043  94.1460153
  64.3471689  87.1609986  94.6013568  63.7486253  89.2243413  93.9391623
  64.1737937  89.9761710  93.4156328  62.3693304  89.4002014  94.4159935
  61.8214070  88.4703720  94.2633617  62.3098020  89.7737812  95.9423072
  62.5790216  88.9252275  96.5712560  62.9613225  90.6168749  96.1721200
  60.9917700  90.1289776  96.1852850  60.8903673  90.3698480  97.1090267
  61.5588499  90.3848369  93.5803648  62.0016898  91.3446743  92.9385962
  60.2736878  90.0826222  93.4370794  59.9086487  89.2704891  93.9138243
  59.3410093  90.8897990  92.6017631  58.3463348  90.4503721  92.6767691
  59.3195682  91.9056452  92.9963465  59.7461622  90.9351576  91.1613698
  60.4295039  90.0200502  90.6465451  59.1467969  91.8685412  90.3986082
  58.3844956  92.3499902  90.8538037  59.3919449  92.1405583  88.9653807
  60.4762713  92.0950794  88.8640536  58.7696509  91.0603803  88.0689486
  57.6835706  91.0993965  88.1526583  59.0602255  91.2354328  87.0330803
  59.1227688  90.0784168  88.3838370  58.9590329  93.5825559  88.5298256
  58.0074767  94.1390574  89.1310950  59.5478628  94.1225916  87.4661477
  60.2484624  93.5589140  87.0062271  59.2475752  95.4710864  86.9074748
  59.9895291  95.7545477  86.1609809  57.8567795  95.4229879  86.2292124
  57.0983618  95.1962868  86.9785510  57.5749414  96.3272395  85.6897715
  57.8240875  94.2762352  85.2108041  58.4297223  94.2920977  84.0013179
  58.9980747  95.1821183  83.7312462  58.3475707  93.2366791  83.1243551
  58.8396224  93.2645453  82.1521363  57.6060356  92.1000736  83.5068763
  57.5420832  91.2453978  82.8334230  56.9324332  92.0648210  84.7854091
  56.3575076  91.2078703  85.1364023  57.0452367  93.1975799  85.5801227
  56.5095037  93.2540956  86.5276964  59.2341544  96.5065661  88.0755826
  60.1909444  96.5275323  88.8260945  58.2381569  97.3702638  88.1901657
  57.5401363  97.4029739  87.4609219  58.1773491  98.3998605  89.2796041
  59.0971732  98.9837669  89.3124074  56.9999039  99.3513487  88.9864146
  57.0773452 100.2105328  89.6526763  57.0771381  99.6862389  87.9520145
  55.6583933  98.6649914  89.1981732  55.5372603  97.8636007  88.4693381
  55.6137319  98.2496078  90.2049323  54.5225951  99.7030795  89.0173401
  54.8375145 100.6596878  89.4342638  54.3083184  99.8230603  87.9553658
  53.2521443  99.2178744  89.7464326  53.1442466  98.1465480  89.5769678
  53.3726893  99.4061190  90.8132653  52.0402210  99.9212757  89.2537282
  51.9280990  99.7466212  88.2652829  51.2287234  99.5815077  89.7498424
  52.1398154 100.9139635  89.4110531  58.1302429  97.7405097  90.6379113
  58.6006548  98.3205064  91.5945547  57.5703363  96.5203340  90.7078816
  56.9424911  96.2371362  89.9691606  57.6042531  95.6973851  91.9731032
  57.5731197  96.3394497  92.8533775  56.4248025  94.8198488  91.9897307
  56.6426503  94.0596761  91.2395448  56.4391356  94.3662010  92.9807394
  55.0371081  95.4198182  91.7219138  55.0205015  95.7987891  90.7000498
  54.3609896  94.5688341  91.8043096  54.6005388  96.4905064  92.6537361
  54.3506778  97.6154613  92.2069432  54.4563672  96.1685380  93.8654403
  58.9380281  95.0474844  92.3254870  59.1834971  94.6540121  93.4805842
  59.9861401  95.1598337  91.4817686  59.8030203  95.7065394  90.6525043
  61.3485168  94.5695466  91.6548952  61.2522895  93.4885764  91.7565947
  61.9452624  94.7992188  90.7721468  62.0378989  95.1107405  92.8606819
  62.2652419  96.2992698  93.0195981  62.4998639  94.1022920  93.5947486
  62.2445716  93.1757721  93.2841265  63.2266410  94.2385135  94.8894060
  63.7834446  95.1754978  94.9007827  62.2196224  94.2379643  96.0963406
  62.7859583  94.1774004  97.0256925  61.6500974  95.1671685  96.0784260
  61.3169775  93.1209314  96.0115434  60.7124772  93.1407071  96.7570555
  64.3752209  93.2585890  95.2032151  64.5031958  92.2806151  94.5447635
  65.1260980  93.5330350  96.3188803  64.9860974  94.4468263  96.7256781
  66.0822643  92.6846803  96.9005558  66.0028001  91.6815042  96.4817212
  67.4912126  93.2272142  96.6120638  67.3979973  94.2109912  97.0720561
  68.1753407  92.6152042  97.1998671  68.0535987  93.3836872  95.1453010
  67.4105939  94.0704887  94.5948926  69.4316359  93.9077751  95.1620144
  70.0753692  93.2212311  95.7118904  69.7958730  94.0062894  94.1394064
  69.4438569  94.8837991  95.6471208  67.9629453  92.0583942  94.3693755
  66.9215399  91.7421158  94.3098600  68.3577403  92.1982094  93.3630505
  68.5452335  91.2945150  94.8846696  65.7632549  92.6299781  98.3873061
  65.4061831  93.6171491  99.0295391  65.9004831  91.4056986  98.9509000
  66.2368393  90.5854163  98.4670602  65.3420980  91.2390538 100.2955091
  65.4269348  92.1928353 100.8162804  63.9426430  90.8217585 100.3109769
  63.9510754  89.7596659 100.0660533  63.6089907  90.9541183 101.3401790
  62.9502252  91.5832612  99.3306430  62.8703917  92.6290500  99.6273806
  63.3247746  91.5236587  98.3087514  61.6012463  90.9394255  99.4055216
  61.6785624  89.9233947  99.0184783  61.2883884  90.9072851 100.4491625
  60.5868321  91.6594034  98.6337395  60.8026252  91.6684964  97.6471038
  59.4984720  92.2868092  99.0475355  58.9890290  92.2663517 100.2730228
  59.4450871  91.7301433 100.9973098  58.1476636  92.7870854 100.4756072
  58.8221002  92.9716511  98.2146736  59.1212888  93.0289566  97.2517083
  57.9894628  93.4544776  98.5207655  66.2773053  90.3432248 101.0569174
  67.0462869  89.5071253 100.5218558  66.4008821  90.5852450 102.3805749
  65.6836189  91.1429701 102.8216821  67.5948144  90.1681930 103.2084664
  68.2479396  89.4480747 102.7155605  68.3875910  91.4464555 103.5234526
  67.6880440  92.1167233 104.0229279  69.6309962  91.2772534 104.3853412
  70.3312617  90.6074332 103.8862723  70.1030920  92.2478611 104.5374829
  69.3501814  90.8551436 105.3502586  68.8028890  92.1701869 102.2649398
  69.7290097  91.6918791 101.9461564  68.0182551  91.9626752 101.5373491
  69.0134400  93.6483777 102.3630020  69.7983103  93.8566606 103.0901172
  69.3080467  94.0393362 101.3891141  68.0875557  94.1274566 102.6813123
  67.1316359  89.3725547 104.4561228  66.5114129  89.9295798 105.2851816
  67.3761657  88.0771197 104.5165971  68.0896061  87.7696077 103.8711991
  66.7077347  87.0655478 105.3521187  66.0711776  87.5875583 106.0665410
  65.9182970  86.0010305 104.6687212  66.5615471  85.3895017 104.0359794
  65.2859010  85.1038830 105.7955667  64.6421096  85.7146641 106.4284803
  64.6968845  84.3081964 105.3394492  66.0798921  84.6662635 106.4006837
  64.8367534  86.6031152 103.6913014  63.9907398  85.9166925 103.7257349
  64.5454002  87.5600556 104.1242886  65.2696482  86.8129823 102.2234973
  65.5607238  85.8563393 101.7896667  64.4387526  87.2312136 101.6553474
  66.1153862  87.4997010 102.1882207  67.7784879  86.3765838 106.2204672
  68.6067990  85.5369514 105.8166936  67.6955014  86.7754956 107.5318507
  66.8568488  87.2855460 107.7697787  68.6419755  86.4458291 108.6109099
  69.4898650  85.8968526 108.2012669  69.1534440  87.6988062 109.2705168
  69.6260043  88.2894249 108.4856884  68.2781262  88.2287281 109.6461517
  70.1436204  87.4826216 110.4093003  69.6045084  87.1104485 111.2804756
  70.8840373  86.7454831 110.0986370  70.8704148  88.8346469 110.7786501
  71.3997008  89.2234134 109.9086984  70.1407042  89.5698837 111.1178383
  71.8658356  88.5981440 111.8828842  72.7677185  88.3278761 111.5172861
  71.6813835  88.5746025 113.2042642  70.5839785  89.0285737 113.7053105
  69.8695001  89.3996818 113.0954748  70.4437636  89.0110348 114.7053764
  72.6381236  88.2313380 114.0764643  73.5547763  87.9730504 113.7401084
  72.4385692  88.2323392 115.0665531  67.8389518  85.6969529 109.6855273
  66.6758211  86.0229204 109.9851556  68.3659596  84.6107406 110.2154268
  69.1480959  84.1879027 109.7362919  67.8092552  83.9075756 111.4614802
  66.8517868  83.4242845 111.2671011  68.8096452  82.8589947 111.8131716
  68.8859906  82.1496619 110.9890856  69.7461544  83.4088433 111.9065359
  68.5723606  82.0917176 113.0887134  68.7133857  82.6533272 114.1307751
  68.1635575  80.8781010 112.9873982  67.9942413  80.3341972 113.8214248
  68.0134062  80.4736037 112.0741965  67.4857410  84.8208559 112.7060761
  68.1886046  85.8081979 112.8880776  66.4361397  84.4411264 113.4829014
  65.9694738  83.6005922 113.1733461  65.9467235  85.0959259 114.6617311
  66.7335487  85.6285122 115.1959194  64.9112998  86.1300868 114.1435324
  64.1122697  85.6110287 113.6141652  64.4913688  86.6783951 114.9868095
  65.4022415  86.8279666 113.4652705  65.2899603  84.1612749 115.6319377
  65.1329199  83.0146305 115.2990295  64.9148098  84.6504990 116.8499996
  65.0182878  85.6382467 117.0337010  64.3157573  83.8234207 117.8708285
  64.9643514  83.0495226 118.2813240  63.9254033  84.7902393 119.0038354
  63.2684499  85.5658181 118.6101481  63.4071926  84.2400627 119.7892421
  64.8238388  85.2502305 119.4153218  62.9915252  83.1272630 117.3213234
  61.9041168  83.7167091 117.3893331  63.1346931  81.8413106 116.9225649
  64.1156527  81.6036100 116.8862884  62.1757291  80.8880443 116.3950457
  62.6829267  80.0031985 116.0104711  61.3253914  80.4825028 117.5722092
  60.8039941  81.3564471 117.9626783  60.5964071  79.7369023 117.2547787
  61.9601544  80.0605603 118.3514010  61.5145853  81.4745826 115.1331821
  60.2746907  81.4266171 115.0164531  62.2406953  82.2033100 114.3138515
  63.2379660  82.0438672 114.3025165  61.6848210  83.2703589 113.4312687
  60.8057536  82.9697598 112.8611985  61.3192271  84.4459686 114.2934635
  62.1918941  84.7642938 114.8637454  60.9782932  85.2673479 113.6632251
  60.5219883  84.1600318 114.9795755  62.7516861  83.5962788 112.4195296
  63.8823824  83.0381141 112.3734432  62.3674128  84.5474723 111.5745717
  61.4221757  84.9020049 111.6051154  63.3482131  85.1961016 110.6160537
  64.3575016  84.8965494 110.8983730  63.1068749  84.7939550 109.1322750
  62.0553717  85.0382280 108.9813746  63.7168131  85.3713733 108.4375351
  63.3244404  83.2989447 108.8811267  63.0037021  82.7835037 109.7864158
  62.5960748  82.7339346 107.7006793  62.9166493  83.2485981 106.7948910
  62.8175831  81.6704200 107.6113958  61.5231576  82.8710068 107.8354393
  64.8334684  82.9622095 108.7835508  65.3279176  83.2337832 109.7162175
  64.9571103  81.8940639 108.6050039  65.2786105  83.5215245 107.9606813
  63.2296485  86.7165317 110.5555826  62.1285526  87.2146743 110.3060575
  64.3053730  87.4824218 110.7640372  65.0462574  87.0963403 111.3316029
  64.3922766  88.8881392 110.3738741  63.4214382  89.3449231 110.5660210
  65.4874314  89.7089002 111.1256083  65.0491320  89.6339483 112.1207842
  66.5361567  89.4148222 111.1679589  65.4636930  91.1745034 110.7515084
  64.3301212  91.9673324 110.4576752  64.7384314  93.2419523 110.4543560
  64.0285706  93.9923678 110.1064002  65.9708533  93.3590183 110.8891452
  66.4542110  94.2078783 111.1458590  66.5140808  92.0947151 110.9395454
  67.5842984  91.9674694 111.1024688  64.5031205  89.0490507 108.9011127
  65.3583055  88.4386045 108.2123645  63.6508774  89.9216723 108.4333016
  62.9805810  90.3554763 109.0518614  63.6146230  90.2742017 107.0154823
  64.4850084  89.9782098 106.4298910  62.3278741  89.6146031 106.4086323
  61.4587855  90.0669942 106.8862596  62.2357075  89.8076459 104.8990970
  63.1042826  89.3550780 104.4207037  61.3279105  89.3332219 104.5263674
  62.2089440  90.8728464 104.6694656  62.2133590  88.1594984 106.7915495
  63.2466074  87.8133893 106.8181395  61.8133838  88.1859231 107.8051673
  61.3737663  87.1991672 105.9348669  61.7734491  87.1718576 104.9211571
  61.4111933  86.1990531 106.3666889  60.3402253  87.5443931 105.9081831
  63.5916518  91.7717934 106.6746413  62.7315907  92.4360619 107.2012988
  64.4858548  92.1882447 105.7609371  65.0785221  91.5008973 105.3177685
  64.6701504  93.6608257 105.3791449  63.9635164  94.2675595 105.9453973
  66.0965462  94.1570844 105.6801767  66.7804498  93.3861568 105.3251475
  66.2431254  95.0676366 105.0992213  66.3790681  94.4488296 107.1795893
  65.6515193  95.1979961 107.4918763  66.1947718  93.5182273 107.7163540
  67.8152094  94.9560146 107.4992931  67.8839212  95.1042877 108.5769724
  68.5179353  94.1806454 107.1942054  68.1791398  96.2143251 106.8256490
  67.4753513  96.9036976 107.0482402  69.2778314  96.6115076 106.1958834
  70.2483728  95.8258139 105.7925142  70.1900475  94.8310025 105.9569782
  71.0491815  96.2195544 105.3194671  69.2897259  97.8384375 105.7565811
  68.4862322  98.4322977 105.9043244  70.1023803  98.1896700 105.2704460
  64.3593063  93.7907640 103.8556106  64.7949618  92.9213533 103.1248218
  63.7367052  94.8964934 103.3838919  63.4659999  95.6662652 103.9790973
  63.4302540  94.9897442 101.9124702  63.8786051  94.1972819 101.3132340
  61.8870193  94.8895655 101.7919218  61.4970788  95.6503561 102.4681203
  61.2586889  95.0772556 100.3848744  61.6478269  94.3164829  99.7081942
  60.1751818  94.9809746 100.4544554  61.5112449  96.0662853 100.0025967
  61.4010581  93.6588126 102.2555800  60.4456733  93.6370543 102.1641101
  63.8710989  96.2840721 101.1440797  63.4388428  97.3977548 101.5084853
  64.7405642  96.1485036 100.1676924  65.1959903  95.2519270 100.0736878
  65.1105390  97.2146652  99.2382941  64.9190172  98.2030988  99.6559275
  66.6054177  97.1070466  98.8964757  66.7046127  96.2040544  98.2940933
  67.2463260  98.3102656  98.1385162  67.1479227  99.2135948  98.7405246
  68.3020947  98.1067985  97.9594792  66.7374654  98.4524158  97.1851245
  67.4106347  96.9060714 100.1550287  67.0898876  95.9892575 100.6496756
  68.4682529  96.8310214  99.9022223  67.2567818  97.7524184 100.8244515
  64.3424104  97.2577720  97.8934334  64.3773945  96.2263651  97.1663261
  63.6497825  98.3331924  97.5250036  63.2354257  99.3642523  98.5142124
  64.1087797  99.9037052  98.8807417  62.7215468  98.8936204  99.3523848
  62.3034528 100.2503337  97.6805024  62.8476844 101.0288561  97.1458868
  61.5210493 100.7060380  98.2873630  61.7085467  99.2055711  96.7057783
  61.2913989  99.7451756  95.8555350  60.9443044  98.5572578  97.1344078
  62.8932467  98.3806393  96.2594384  62.6519755  97.3580984  95.9690994
  63.7081807  99.0724473  95.1085821  64.2021067 100.1949799  95.1849211
  64.0155337  98.3439935  94.0823369  63.7048956  97.3829711  94.0760671
  64.7169538  98.8690867  92.8733621  65.5623438  99.4833067  93.1834407
  65.2300360  97.7446853  92.0051766  64.3214742  97.2354176  91.6838342
  65.7698078  98.1096186  91.1313516  66.1301944  96.7507202  92.7921756
  65.5493301  96.3148973  93.6050445  66.6248108  95.6583247  91.8895136
  67.2061943  96.0933673  91.0765990  67.2529433  94.9727747  92.4583469
  65.7750049  95.1143849  91.4771304  67.3187441  97.3394203  93.5549625
  66.9583304  98.0542967  94.2946605  67.8607420  96.5387479  94.0582150
  67.9850791  97.8451998  92.8561894  63.8181858  99.6606496  91.8874527
  64.3444547 100.5633028  91.2489378  62.5808409  99.2569428  91.7201702
  62.4038003  98.4458477  92.2953925  61.5299664  99.6647247  90.7139432
  60.6281526  99.0683174  90.8522521  61.1757067 101.1311385  90.8996246
  62.1117606 101.6299366  90.6484221  60.4227138 101.3737539  90.1497983
  60.7005344 101.6031924  92.2666993  59.3256724 101.5595729  92.5678602
  58.6965380 101.0217348  91.8586214  58.7560864 102.1541123  93.6946178
  57.6752323 102.2782933  93.7612170  59.6139200 102.7700798  94.6751669
  59.1111097 103.2640809  95.8547171  58.1612443 103.1501194  95.9345176
  61.0062084 102.6732099  94.4586350  61.6613906 103.0136117  95.2604849
  61.5753281 102.1464101  93.2293926  62.6532483 102.1777440  93.0706273
  61.8307099  99.2656424  89.2654945  61.2743537  99.8727160  88.3333988
  62.6472501  98.1950458  89.0250823  63.1095182  97.9316169  89.8835768
  62.9699139  97.4248359  87.7778122  62.1100615  97.4161995  87.1079775
  64.1731221  98.0981840  87.0382020  64.3629373  97.5220391  86.1325937
  63.8656446  99.1083471  86.7677799  65.4865229  98.1637382  87.9027609
  65.2519422  98.6983729  88.8232164  65.7563936  97.1345897  88.1396625
  66.6372348  98.8362000  87.2135625  67.7141378  98.3625094  87.4211853
  66.4484308  99.8224403  86.4624419  63.3111136  95.9476504  88.1126416
  63.6097923  95.5530870  89.2500315  63.2767044  95.0159166  87.1298689
  63.1634254  95.3675142  86.1898442  63.3353262  93.5181592  87.3330908
  62.6692433  93.2320730  88.1470856  62.9024670  92.7827265  86.0671265
  63.6012856  93.0493194  85.2742331  62.9703761  91.7132023  86.2661398
  61.5817675  93.1049760  85.6611634  61.3637609  92.6162388  84.8641634
  64.7576583  93.0478832  87.7541523  65.5941192  93.0272203  86.8479319
  64.9785796  92.6100175  89.0575081  64.1035830  92.6592741  90.1853506
  63.1494547  92.2104507  89.9091318  63.9473220  93.7016447  90.4631008
  64.8419367  91.8572366  91.2893387  64.5161413  90.8170697  91.2862782
  64.6505671  92.2944915  92.2692811  66.3096736  91.9798099  90.9182454
  66.8638273  91.1121592  91.2762887  66.8142391  92.8907494  91.2402741
  66.2193846  91.9452988  89.3960713  67.0685820  92.5128399  89.0154675
  66.2014741  90.5386687  88.7387617  65.2785512  89.7804496  88.9635262
  67.3088508  90.1882709  88.0600244  68.1027458  90.8121615  88.0357256
  67.3708188  88.9437845  87.2643752  66.3877483  88.4792779  87.1875290
  67.8707481  89.3197884  85.8026479  68.7425740  89.9663164  85.9027496
  68.1593034  88.3968936  85.2995564  66.7819446  90.0455159  84.9672483
  65.9341022  89.3904760  84.7667820  66.4326713  90.9475679  85.4696549
  67.4487833  90.4219053  83.6604150  66.7732232  91.0925728  83.1294510
  68.3695235  90.9522017  83.9035665  67.7883400  89.2448509  82.7467811
  68.7414078  89.1287004  82.4333000  66.8941027  88.4135000  82.3230073
  65.6281515  88.4505234  82.5520006  65.2422373  89.1912470  83.1198904
  65.0266179  87.7386777  82.1627287  67.2217432  87.4147307  81.6402616
  68.1940325  87.2558957  81.4177193  66.5118711  86.7736248  81.3159724
  68.2435201  87.8674982  87.8919397  67.7556798  86.7392503  87.9162402
  69.4726147  88.1642829  88.4292771  69.5353338  89.1131296  88.7696527
  70.5655158  87.2027428  88.7964143  70.1205389  86.2623739  89.1216851
  71.5111603  86.9157123  87.5917442  71.6384817  87.8249526  87.0042320
  72.4813264  86.5838725  87.9615552  70.8848560  85.7962630  86.6918936
  69.8488905  86.0933784  86.5288018  71.4273555  85.8383632  85.7474235
  70.9264584  84.3274826  87.2552943  71.9627239  84.0556563  87.4562005
  70.3548885  84.2887524  88.1826061  70.3151242  83.3234390  86.2243467
  69.3160288  83.6674782  85.9568657  70.9455882  83.3135712  85.3352365
  70.2319168  81.9534817  86.7861710  69.6474083  81.9623263  87.6098040
  69.8340306  81.3308395  86.0976194  71.1576467  81.6343340  87.0336945
  71.6179176  87.9270569  89.6964697  71.7831289  89.1445222  89.5370662
  72.2503435  87.2462020  90.7132278  72.1549139  86.2414959  90.7527008
  72.9796748  87.9165641  91.7900702  73.3549012  88.9182099  91.5802845
  71.9454116  87.9808959  92.9856834  71.0808291  88.5517858  92.6470357
  71.4805504  86.5664638  93.4650493  72.3445883  85.9951108  93.8043059
  70.7722859  86.6752462  94.2864070  71.0003683  86.0419513  92.6389676
  72.5727066  88.8359767  94.1371355  73.4169993  88.2784080  94.5425830
  72.9298314  89.7689456  93.7010960  71.5703078  89.1481113  95.2703511
  71.2130718  88.2155709  95.7072157  72.0636557  89.7432084  96.0388344
  70.7259023  89.7061068  94.8657278  74.3206081  87.1325247  92.0933361
  74.4284329  85.9264831  91.8418736  75.3343813  87.9111175  92.4999995
  75.1656154  88.9065319  92.4722933  76.6706578  87.4384683  92.9179323
  76.5587107  86.4769494  93.4189797  77.6405476  87.2668575  91.7355210
  78.6283637  86.9334116  92.0535342  77.2544990  86.5858410  90.9770468
  77.8972696  88.8974478  90.8814022  78.7371444  88.4396369  89.9573255
  77.2317370  88.4382424  93.9465988  76.9499278  89.5950323  94.0037968
  78.2996211  88.0532981  94.6558946  78.6095769  87.1029488  94.5114546
  78.9887371  88.8540011  95.6299510  78.7513574  89.9150631  95.5531557
  78.4732191  88.3381455  96.9546801  77.4284865  88.6422347  97.0192002
  78.5367935  87.2503360  96.9816744  79.2308469  88.9102582  98.1101822
  80.2821337  88.1823868  98.6801597  80.5626282  87.2132219  98.2676773
  80.9726222  88.7003401  99.7801275  81.8039419  88.1173328 100.1765011
  80.6836521  89.9814148 100.3187857  81.3742639  90.4220798 101.4046291
  82.0248792  89.7893040 101.7175096  79.6185710  90.6836972  99.7468279
  79.3702602  91.6630697 100.1558165  78.8846377  90.1674436  98.6876603
  78.0356783  90.7238484  98.2904427  80.4943930  88.7825864  95.5239082
  81.0462964  87.8024599  95.1958520  81.1727457  89.8802785  95.8000164
  80.6710887  90.6809655  96.1568637  82.5670936  90.0186393  95.5366627
  83.0670677  89.0505395  95.5065332  82.6993209  90.6928119  94.1331813
  82.0989467  90.1200021  93.4264006  82.3039850  91.7058698  94.2075007
  84.1715313  90.7466054  93.6375114  84.8214182  91.2306047  94.3665468
  84.4913887  89.7143508  93.4952309  84.3001430  91.5024880  92.2734180
  84.6034745  92.6956383  92.2392089  84.1483981  90.8856405  91.0956992
  84.2397344  91.4114610  90.2382193  83.9432206  89.8970437  91.0696214
  83.2871859  90.8020691  96.6514568  83.2534487  92.0257107  96.7896308
  83.8846347  89.9084552  97.5464027  83.7438017  88.9180364  97.4073490
  84.4899917  90.3409987  98.7629544  83.7362897  90.7813185  99.4157567
  85.1469775  89.1312574  99.5034373  84.3659366  88.4231258  99.7802476
  85.8524851  88.6475091  98.8279031  85.8965482  89.6044057 100.7849479
  86.8694565  89.9478795 100.4334140  85.3724615  90.4301146 101.2662347
  86.0929749  88.4520681 101.8052702  86.4354400  88.7747216 103.0033284
  85.9776306  87.2712453 101.3761266  85.3739898  91.5254844  98.6347436
  85.1940976  92.5364093  99.2780349  86.3412338  91.4343310  97.6910154
  86.2665898  90.7477856  96.9540058  87.4485208  92.4184441  97.6255330
  88.0614033  92.4996086  98.5232449  88.4064180  92.0514817  96.3781222
  89.0770652  92.8905452  96.1929089  89.2448516  90.7731003  96.6760001
  88.5748491  89.9334460  96.8608736  89.8813066  90.5478200  95.8202699
  89.8659847  90.9421280  97.5556164  87.7350409  91.9138100  95.0208012
  87.2520919  92.8546026  94.7566581  88.4835395  91.6663441  94.2680662
  86.9875233  91.1216530  95.0632946  86.8652486  93.8023198  97.2734925
  87.2121910  94.7713950  97.9600041  85.9218749  93.9165464  96.3071012
  85.7645047  93.0678917  95.7825831  85.1703493  95.0872712  95.9496326
  85.7964406  95.9777064  95.8927646  84.6025322  94.7993035  94.5586745
  83.9319433  93.9399965  94.5575755  84.0868995  95.6624501  94.1377222
  85.7791015  94.4975580  93.7549959  85.5099633  94.3022561  92.8544285
  84.0057754  95.4824120  96.9121930  83.4558666  96.5621060  96.7946974
  83.6876770  94.6276421  97.9391023  84.0066804  93.6850855  97.7661187
  82.8005099  94.8630095  99.0853744  82.6639017  93.9425020  99.6529158
  83.4249451  95.9213391 100.0088446  83.7613352  96.7519206  99.3883001
  82.6505003  96.2694912 100.6923102  84.6197199  95.3686526 100.8221561
  84.6396216  94.3595206 101.2336867  85.3450498  95.4444847 100.0120647
  85.0287456  96.3931610 101.9682489  84.3728572  96.4471033 103.0131057
  86.2371180  96.9499291 101.9744326  86.4868837  97.5991989 102.7066670
  86.8991051  96.7207559 101.2468653  81.3539929  95.0975271  98.6428180
  80.6318956  95.9709350  99.1711020  80.7770970  94.2848101  97.7427028
  81.2234524  93.3996203  97.5495573  79.5903714  94.6415142  96.9768371
  78.8475957  95.1352909  97.6033896  80.0275415  95.6091547  95.8864283
  79.1990059  95.9911741  95.2900315  80.6198147  96.4438545  96.2613797
  81.0991713  94.7090041  94.7384372  81.3271140  95.7370079  93.9259419
  78.9191556  93.3267368  96.4268091  79.4952698  92.2251955  96.4138057
  77.6685602  93.5440613  95.9975618  77.1755682  94.3542129  96.3449990
  76.9431170  92.6064603  95.1296434  77.4590447  91.6463682  95.1177700
  75.4851146  92.3832151  95.6430406  74.7963507  93.2211767  95.5356912
  75.1586108  91.5612843  95.0059182  75.3565037  91.8880298  97.1066173
  75.2094455  90.5576046  97.4983643  75.2755811  89.8432558  96.6777354
  74.9937841  90.1034950  98.8077820  74.7133349  89.0732775  99.0271011
  75.1523328  91.0361066  99.8653518  75.0922595  90.7209460 100.9070643
  75.3920569  92.3954972  99.5496249  75.4308873  93.1663983 100.3192377
  75.5793591  92.7334234  98.2236487  75.9300516  93.7311695  97.9597977
  76.9612170  93.0728341  93.6563078  76.7201083  94.2918475  93.4561408
  77.1651779  92.1729746  92.7014220  77.5937298  91.2948165  92.9569235
  76.8133476  92.3795160  91.3425968  76.7766000  93.4378284  91.0842875
  77.4885624  91.8628105  90.6605413  75.3810789  91.7708293  91.1985728
  75.1209661  90.6335460  91.5828463  74.4574862  92.4978487  90.5222258
  74.7959532  93.4001531  90.2199243  73.0385479  92.1419067  90.2330935
  72.9049159  91.0713805  90.3887058  72.1804816  92.9309241  91.3345439
  72.4848506  93.9763423  91.3851345  70.7368607  92.8482930  90.9084301
  70.4316125  91.8031198  90.8580570  70.1133561  93.3739119  91.6316640
  70.6202892  93.3080137  89.9270181  72.2776107  92.2329917  92.7012546
  73.3191149  92.2031906  93.0213843  71.6884353  92.7843418  93.4340472
  71.8942336  91.2159971  92.6185209  72.7863422  92.5497368  88.8177014
  72.7189838  93.7632085  88.4206230  72.4320403  91.5117867  87.9847278
  72.6908847  90.5558901  88.1831225  71.7199715  91.7861432  86.7667407
  72.2333088  92.5348651  86.1634169  71.6637202  90.4696220  85.9731360
  71.1987488  89.7485012  86.6453604  71.0368543  90.5999029  85.0909988
  73.0309446  89.9597246  85.5514357  73.5984468  89.6649352  86.4341255
  72.8584329  88.7436020  84.6228175  72.2913828  89.0377429  83.7396221
  73.8385156  88.3759511  84.3188908  72.3231086  87.9550245  85.1516594
  73.8963238  91.0648406  84.8404087  74.0474428  91.9025664  85.5212009
  74.8628776  90.6458992  84.5604746  73.3789935  91.4127132  83.9462873
  70.3460495  92.3301215  87.0780026  69.6145505  91.6848756  87.8716467
  69.9161620  93.3100695  86.2867804  70.6317215  93.8340397  85.8035317
  68.5126805  93.7656452  86.1692706  67.8233917  92.9657122  86.4396173
  68.3052857  94.9042950  87.0978809  67.2389894  95.0692721  87.2524577
  68.7826846  94.6956866  88.0553112  68.8996843  96.0949940  86.5090547
  68.7731701  96.8412473  87.0995630  68.0672996  94.0909641  84.7412991
  68.8549710  94.0010589  83.8107660  66.7830103  94.3658034  84.5271838
  66.1832565  94.1650077  85.3146327  66.1643715  94.9010063  83.2912239
  66.8952494  95.4258435  82.6760308  65.6449686  93.7496927  82.5275854
  66.4189654  92.9885918  82.4288256  64.7805886  93.3241227  83.0373280
  65.2628472  94.1964232  81.2524062  64.9223371  93.4572891  80.7431583
  65.0211840  95.8900385  83.4614519  64.1991985  95.6458050  84.3635084
  65.0638277  97.0090265  82.7348066  65.9033844  97.1852698  82.2017191
  64.0496858  98.0715361  82.8099488  63.1987374  97.7072201  83.3855007
  64.5879538  99.3454700  83.4817048  63.7221988  99.8478713  83.9131678
  65.2480062  99.0090867  84.2812529  65.3382448 100.3139996  82.5786235
  66.1281823  99.7413556  82.0926416  64.6262570 100.6588136  81.8287710
  65.9646922 101.5502893  83.3114313  65.1839662 102.1635713  83.7613770
  66.6603855 101.2239300  84.0844772  66.7228329 102.3930675  82.2980506
  66.2557677 103.2046574  81.9195386  67.9356793 102.1723632  81.9568288
  68.8280258 101.4026187  82.5878852  68.5641310 100.9189374  83.4343554
  69.7620430 101.3082492  82.2153185  68.3256195 102.7094186  80.8137719
  67.6749130 103.2564438  80.2683871  69.2724867 102.5702894  80.4909962
  63.3742070  98.3543525  81.4398611  64.0583801  98.4538443  80.4543924
  62.0089361  98.4419134  81.4051831  61.5058731  98.0194856  82.1723739
  61.2748319  98.8872798  80.2912156  61.6908186  98.4917841  79.3645887
  59.7686622  98.4259254  80.4316505  59.2926624  98.9479044  81.2617483
  59.0253644  98.7736618  79.1041182  59.5005408  98.2516481  78.2735704
  57.9830428  98.4636722  79.1787698  59.0726459  99.8488725  78.9315331
  59.5946835  96.9281246  80.7341802  60.3595461  96.4626481  80.1125553
  59.8849659  96.8550270  81.7822701  58.2622035  96.2110147  80.5239700
  57.9714769  96.2832906  79.4759461  58.3661858  95.1617131  80.8001097
  57.4968958  96.6756715  81.1456597  61.5013883 100.3816625  80.0089809
  61.6166561 101.1657251  80.9636627  61.6493044 100.7450120  78.7364033
  61.6148273 100.0030422  78.0520119  61.8528400 102.1168517  78.2639523
  61.6256175 102.8259043  79.0600136  63.2930564 102.3053011  77.8458593
  63.6012669 101.4284633  77.2764201  63.3518483 103.1893254  77.2109226
  64.2080045 102.4792316  79.0376979  63.6091365 102.8536334  79.8679276
  64.5007746 101.4484511  79.2373885  65.4957124 103.3680294  78.8779112
  66.0102359 103.9069201  79.8721106  66.0424676 103.4563314  77.7454557
  60.8946977 102.3206410  77.0445265  60.0685490 101.4876897  76.7049393
  60.9150652 103.5579814  76.4157253  61.4331287 104.2996719  76.8647294
  60.1876833 103.8708197  75.1071090  59.9345467 102.9516347  74.5787910
  58.8798738 104.6844411  75.3457229  58.5441061 105.1253170  74.4071135
  57.7883486 103.7340977  75.8876097  58.1232262 103.2931626  76.8265102
  56.8692927 104.2949393  76.0575908  57.6015516 102.9429335  75.1614777
  59.0416923 105.8474374  76.3051187  59.7845273 106.5420280  75.9128915
  58.0873877 106.3620342  76.4173348  59.3696549 105.4754619  77.2757760
  61.2162471 104.6566073  74.3103787  62.1884116 105.2538668  74.8206082
  61.0281999 104.6401345  72.9840922  60.4048840 103.9184129  72.6513840
  61.9013741 105.3168897  72.0048240  62.9413581 105.1702731  72.2964335
  61.7127455 104.7815941  70.6124732  61.6061635 103.7087166  70.7727027
  60.7518328 105.2011806  70.3146579  62.7403497 105.0317870  69.5110291
  63.6696300 105.1559052  70.0670270  62.8226078 104.1645498  68.8558686
  62.5122941 106.2980991  68.6340191  61.8147819 107.2687348  68.9643098
  63.0325897 106.2652085  67.4183396  62.9182809 107.0570193  66.8018410
  63.5417742 105.4484367  67.1122082  62.0336597 106.7991902  72.1202828
  60.9895507 107.4210089  72.2263344  63.2242453 107.3787401  72.0473867
  63.9753414 106.7501375  71.8007842  63.5760800 108.7945482  72.4471164
  62.7131168 109.3041287  72.8757437  64.6773590 108.7320701  73.4996648
  64.4649126 107.9115362  74.1850040  65.6463132 108.5690460  73.0278056
  64.7039892 110.0627040  74.2829050  65.6816762 110.2588012  75.0593288
  63.8000134 110.9446781  74.1995185  63.8751946 109.6462289  71.2217151
  64.7339596 110.5501830  71.3169976  63.2521071 109.3557515  70.0891150
  62.4249127 108.7776776  70.1300938  63.8159281 109.6801384  68.7604386
  63.5445766 108.9178212  68.0301373  63.3414153 111.0809110  68.2247793
  63.8306212 111.8051690  68.8761072  63.6181151 111.4469823  66.7476279
  63.1288056 110.7233846  66.0956446  63.2283307 112.4436305  66.5406025
  64.6924743 111.4322623  66.5642261  62.0256406 111.1611049  68.4237738
  61.7049785 112.0082658  68.1058203  65.3058003 109.4973470  68.7840419
  65.7662124 108.3915357  69.1286986  66.1038190 110.4515892  68.3638218
  65.6157911 111.2839163  68.0652259  67.5963597 110.4267536  68.2552554
  67.8605512 109.6595862  67.5274119  68.2396239 111.7632253  67.8198160
  69.2611109 111.6070421  67.4730157  67.6561543 112.2349107  67.0291352
  68.2519510 112.6042284  68.9648395  68.6457132 113.4495306  68.7367707
  68.2299134 110.0332378  69.6006060  69.3711602 109.6971977  69.5775055
  67.4606464 110.0354923  70.7316176  66.4600005 110.1339077  70.6361111
  68.0122387 109.9034594  72.0605654  68.8891109 110.5434015  72.1588935
  67.2651198 110.1958439  72.7984164  68.4246897 108.4488080  72.3173854
  69.1329359 108.2484629  73.3267491  68.0840516 107.5621814  71.4310401
  67.8451861 107.9414520  70.5259454  68.0156856 106.0998252  71.6170038
  68.1270052 105.5884426  70.6608684  68.7964350 105.7656227  72.3002596
  66.6741144 105.7568151  72.2018934  65.6381772 105.7083259  71.5544261
  66.7588583 105.6272025  73.5615938  67.6807253 105.6269978  73.9742202
  65.5578905 105.3084767  74.4631298  64.6378461 105.7448909  74.0743364
  65.3739446 103.7658891  74.5614224  64.5298709 103.5451669  75.2148148
  65.1066423 103.1775265  73.1595673  65.9505502 103.3974616  72.5056961
  64.9789890 102.0977605  73.2364386  64.2013706 103.6213115  72.7452744
  66.4801839 103.1138548  75.1154321  66.3104353 102.1696457  75.1508573
  65.6219394 106.0146551  75.8402161  66.6657985 106.5036513  76.2501464
  64.4075528 106.1126195  76.4521158  63.5907161 105.8176904  75.9364669
  64.2053992 106.7969637  77.7841526  65.1282723 106.8060345  78.3640854
  63.7856282 108.2474466  77.5074569  64.5817417 108.6672298  76.8925703
  62.4411155 108.4699319  76.8199019  61.6444093 108.0507954  77.4344615
  62.2728077 109.5386363  76.6870771  62.4446588 107.9794623  75.8464916
  63.6826840 109.0264126  78.7199187  63.4189021 109.9234861  78.5024821
  63.2787632 106.0675509  78.7588340  62.3790910 105.4006822  78.3179113
  63.4825820 106.3160838  80.0796983  64.2992373 106.8440128  80.3525801
  62.6696669 105.7782798  81.0898432  62.4876222 104.7272968  80.8653576
  63.4378988 105.8680477  82.3783720  63.6199747 106.9149275  82.6212528
  62.8610831 105.4048804  83.1789093  64.3906226 105.3495367  82.2708414
  61.2368517 106.4677513  81.1654713  61.0208319 107.6102757  80.7608930
  60.3528808 105.6314399  81.6326122  60.5920271 104.6502160  81.6430125
  58.9687591 106.0288526  82.0409077  58.6951919 106.8943310  81.4374118
  57.8978322 104.9692206  81.8811217  58.4623687 104.1665049  82.3555109
  56.9818351 105.1500705  82.4435653  57.5386703 104.5590943  80.4233411
  56.6898037 103.8799354  80.5025209  57.1825334 105.7269559  79.4433377
  58.0311457 106.4063282  79.3632802  56.9506416 105.3185899  78.4596893
  56.3175125 106.2701881  79.8237822  58.4617227 103.5704224  79.7276405
  58.4881393 102.6382389  80.2919415  58.0928189 103.3747192  78.7208081
  59.4666334 103.9887940  79.6709069  58.9559959 106.5665664  83.5212103
  58.0419287 107.3566847  83.8355846  59.9563043 106.1403409  84.3095339
  60.5701784 105.5463063  83.7706641  60.2377106 106.3205184  85.7161812
  60.1052754 107.3652219  85.9975258  59.2446616 105.4387518  86.5690160
  59.3910895 105.6646920  87.6252400  58.2216820 105.6843385  86.2838845
  59.5044584 103.9098977  86.3201289  59.4412896 103.6869252  85.2550496
  60.4907996 103.6314679  86.6912216  58.4302811 103.1124825  87.0743127
  57.4512984 103.3302047  86.6473597  58.6380955 102.0465956  86.9805167
  58.4102478 103.4716451  88.5294838  59.3468051 103.6730291  88.8494904
  57.4407238 103.4485223  89.4094175  56.2131683 103.3261271  88.9777775
  56.0346919 103.2523925  87.9864100  55.4487595 103.3058520  89.6376015
  57.6632499 103.6773245  90.6746514  58.6012454 103.8775835  90.9911334
  56.8964539 103.6530906  91.3315649  61.6665812 105.9927607  85.9710626
  62.1839640 105.0254575  85.4036805  62.2726459 106.6153201  86.9456981
  61.7429628 107.6119276  87.8563585  61.0253842 107.1073589  88.5033451
  61.2254331 108.3571789  87.2523200  62.8977930 108.1951319  88.6200376
  62.7633713 108.0171893  89.6869801  62.9589636 109.2677363  88.4359742
  64.1440736 107.4749058  88.0839284  64.7343559 107.1596754  88.9443326
  64.7571424 108.0966554  87.4314916  63.6526030 106.2665175  87.3294694
  64.2530425 106.1229108  86.4311667  63.6484528 104.9709294  88.1540924
  62.5755267 104.6991701  88.7324173  64.7619696 104.2186973  88.1776745
  65.5061532 104.4826355  87.5478914  64.8911034 102.9200383  88.9321195
  64.5269160 103.0484448  89.9514225  64.0569708 101.8013333  88.2432401
  64.2240170 100.8749712  88.7928292  63.0053415 102.0795598  88.3122763
  64.4098931 101.6114379  86.8722264  63.8684308 100.9136069  86.4961277
  66.3488312 102.6526428  89.1296018  67.1869510 103.3193914  88.4854322
  66.7087451 101.6479123  89.9705082  65.9533938 101.2436913  90.5054374
  68.0930498 101.3070138  90.3475993  68.3455746 101.9912299  91.1576479
  67.9684118  99.9003035  90.9195099  67.7247232  99.2022058  90.1186507
  68.9128840  99.6095070  91.3794121  67.1783356  99.8814100  91.6701909
  69.1733095 101.6104303  89.2954971  70.1383898 102.3336924  89.6282043
  69.1250442 101.0963694  88.0260618  68.3668061 100.4795114  87.7717775
  70.1215869 101.3543367  87.0718309  71.1130444 101.2612124  87.5150454
  69.9919082 100.3203703  85.9295928  70.7706640 100.5079271  85.1903628
  70.1160134  99.3187199  86.3411683  68.7368551 100.4215237  85.3201695
  68.6709374  99.7744915  84.6140505  70.0967851 102.7833956  86.4638328
  71.1998620 103.1387556  85.9753069  69.1500358 103.7294779  86.6741154
  68.2942046 103.3095915  87.0078036  69.1373350 105.1683941  86.3286157
  69.9951198 105.3339648  85.6767792  67.8159884 105.6593302  85.5698886
  68.0772541 106.4470514  84.8632517  67.1580803 104.4363035  84.7833470
  66.8961048 103.6483230  85.4894314  66.2592082 104.7759415  84.2687849
  67.8689733 104.0481925  84.0538941  66.7892380 106.1480262  86.4041092
  66.0411781 106.4178099  85.8663142  69.4683231 106.1017095  87.4651170
  70.1327158 107.1341640  87.3094473  69.1887447 105.6964300  88.7130186
  68.7184599 104.8085036  88.8155768  69.4846443 106.4622784  89.9128093
  69.5087239 107.5293019  89.6914948  68.3435225 106.1916822  90.9874868
  68.3354931 105.1337330  91.2497429  68.5380021 106.7854208  91.8806565
  67.0093579 106.5749182  90.4124399  67.0708060 107.6294079  90.1434110
  66.7791524 105.9866724  89.5241413  65.9089004 106.3990530  91.3972317
  65.4456900 105.3380303  91.7846136  65.3055860 107.4785704  91.8964028
  64.5570474 107.3707652  92.5658575  65.5999738 108.3989940  91.6027065
  70.9291982 106.0792363  90.5319375  71.3431424 106.7208423  91.5362536
  71.6708113 105.1080651  89.9776248  71.2111656 104.5511318  89.2714729
  73.1166611 104.7865784  90.3210353  73.2019195 104.2127100  91.2438057
  73.6653959 103.9359073  89.1598283  73.5951480 104.5006713  88.2302010
  74.7081718 103.6847778  89.3538715  73.0816834 103.0195158  89.0726184
  73.9864657 106.0879553  90.4840169  73.8821470 107.0212612  89.6632747
  74.9337650 106.0617067  91.4188891  74.8624324 105.3557873  92.1376998
  75.9544942 107.1106060  91.5701312  75.4956277 108.0980659  91.5204967
  76.6482685 106.9540963  92.9526249  77.1156773 105.9700487  92.9168686
  77.4206967 107.7205829  93.0154977  75.7518259 107.0419057  94.1664661
  75.0877876 106.1775250  94.1664733  76.5562600 107.0640177  95.4604799
  77.2202436 107.9284388  95.4614086  75.8766881 107.1276036  96.3103267
  77.1480800 106.1518495  95.5366292  74.8708753 108.3288695  94.0720253
  74.2587164 108.2854683  93.1712050  74.2243815 108.3923004  94.9473101
  75.5140855 109.2079281  94.0315826  76.9756115 107.2569184  90.3816712
  77.4655772 108.3259118  90.1220296  77.2409402 106.1743129  89.6609688
  76.9681177 105.2889516  90.0632159  77.9154357 106.1688431  88.3267503
  77.9012201 107.1590203  87.8712878  79.4288712 105.7388868  88.5612548
  79.4214363 104.7136618  88.9313328  79.9293035 105.7716540  87.5934770
  80.1084258 106.5513752  89.4617471  81.0110007 106.2384913  89.5569416
  77.2845952 105.2186942  87.3164878  76.5250754 104.3821941  87.7650033
  77.6794378 105.1998163  86.0770557  78.3946574 105.8789735  85.8595569
  77.0463084 104.4445816  84.9435404  76.7214441 103.4468336  85.2386018
  75.8336867 105.2528902  84.5640305  75.0733724 105.1418702  85.3371385
  76.1152632 106.3025467  84.4801508  75.3388638 104.8228776  83.3800485
  74.5669573 105.3441426  83.1475770  78.0304946 104.0673125  83.8416105
  79.1064825 104.7464262  83.7586431  77.7505494 103.0652989  83.0453609
  77.1971231 102.3231769  83.4491847  78.4577491 102.8001887  81.7782041
  78.6668134 103.7378958  81.2633288  79.7705425 102.0973099  82.0558946
  80.2137284 101.9328952  81.0737270  80.3672319 102.8249550  82.6059804
  79.7401724 100.8595858  82.7795262  80.6349224 100.5275159  82.8832178
  77.5143646 102.2615338  80.6364508  76.5789691 101.5771503  81.0105196
  77.7733536 102.5714272  79.3723145  78.6363861 103.0176371  79.0963234
  76.7368568 102.3173014  78.3202458  76.0070591 101.6014722  78.6985090
  76.0184174 103.6540033  78.0432750  76.7509881 104.3903655  77.7128052
  74.9385650 103.4679078  76.9418386  74.2053321 102.7319770  77.2718029
  74.4397967 104.4192805  76.7568502  75.4118996 103.1217193  76.0230299
  75.2797039 104.1511617  79.2977230  75.9952542 104.2995947  80.1064613
  74.7813713 105.0949763  79.0764127  74.5383238 103.4116762  79.6004068
  77.4594532 101.7327683  77.0885991  78.4756447 102.2105381  76.5855199
  77.0696159 100.4769359  76.7760278  76.4569797 100.0234434  77.4386897
  77.4154912  99.7552299  75.5346396  78.4589077  99.4400146  75.5391762
  76.4924388  98.4590357  75.4579529  75.4506201  98.7775913  75.4931010
  76.6862068  97.9558214  74.5106782  76.7527725  97.5545113  76.5419819
  76.1804139  96.7878045  76.4634566  77.1334689 100.5444392  74.2521491
  76.2233761 101.3957203  74.2640910  77.9900302 100.4359179  73.2595465
  78.7275520  99.7464163  73.2869046  77.9681324 101.3954547  72.1332217
  77.6949350 102.3825609  72.5061608  79.4001429 101.4958959  71.4188329
  79.2808997 102.1955189  70.5915434  80.0811936 101.9195200  72.1569471
  79.9172357 100.3075532  70.9449574  80.7709762 100.4701085  70.5371551
  76.8478696 101.0545249  71.1062591  76.7327356  99.8416229  70.7250726
  76.1933579 102.1688076  70.6872145  76.5639927 103.0615263  70.9801010
  74.8160388 102.1388847  70.0160254  74.2087007 101.3559827  70.4702326
  74.0799230 103.4954768  70.1798186  73.0451529 103.4745807  69.8378923
  74.1190175 103.8935765  71.1937655  74.8431618 104.3189449  69.3208565
  74.4847572 105.2094902  69.3295197  74.8006087 101.6033586  68.5775958
  73.8145968 101.1139299  68.0333989  75.9644265 101.6411847  67.8817809
  76.7393146 102.0856319  68.3530710  76.1311826 101.2601847  66.5290476
  75.1709315 101.2168806  66.0151003  77.0184425 102.3251609  65.8328203
  76.5712374 103.3111226  65.9592573  78.0132922 102.3181901  66.2781577
  77.1254309 102.0016293  64.3416738  77.6113843 101.0303026  64.2496158
  76.1121590 101.9394464  63.9447917  77.9030217 103.0245856  63.5682129
  78.7438995 103.3550665  64.1779719  78.2769368 102.5593688  62.6561492
  77.0295642 104.2321077  63.2048653  76.2755440 103.9367882  62.4752487
  76.5384522 104.6156140  64.0991981  77.8972489 105.2948236  62.6201669
  78.3520846 104.9397994  61.7912025  77.3315165 106.0954261  62.3770979
  78.5957437 105.5689181  63.2962410  76.6190663  99.8327319  66.3387109
  77.8208551  99.5259782  66.1658674  75.6514551  98.9315204  66.4864551
  74.7611325  99.2763698  66.8158542  75.8170793  97.4626776  66.3074619
  76.5778547  97.0607134  66.9765992  74.4056236  96.7866901  66.6699460
  74.2426987  96.9744945  67.7312114  73.6368472  97.2963026  66.0891035
  74.3324446  95.2590736  66.3975736  74.2688355  95.1243850  65.3177988
  75.5592497  94.4618045  66.9507210  75.6232462  94.5956423  68.0305778
  75.4376545  93.4028253  66.7229526  76.4729653  94.8305791  66.4846422
  73.0967678  94.6612351  67.0163281  72.2116406  95.1351644  66.5920167
  73.0686735  93.5910055  66.8115829  73.1141973  94.8241387  68.0939447
  76.3428458  97.2453682  64.8350709  75.5902145  97.1820631  63.8104575
  77.6807950  97.0402991  64.6600864  78.2719565  96.9895719  65.4774322
  78.2916504  96.8583291  63.3573421  78.0849361  97.7126611  62.7127606
  79.7977177  96.7375101  63.5363678  79.9406429  95.8873003  64.2033123
  80.3617305  96.5767374  62.6175960  80.4617549  98.0167874  64.2689066
  80.0944188  99.2748689  63.8069186  79.3861340  99.4156567  62.9904559
  80.6750842 100.3931261  64.4361390  80.3305812 101.3845589  64.1420649
  81.6532812 100.2605502  65.3995912  82.0744910 101.1783583  65.8098477
  82.1206232  98.9849026  65.8656135  82.8930960  98.8149903  66.6156240
  81.4895533  97.9084380  65.2656122  81.7652065  96.8910813  65.5432820
  77.8005343  95.5791884  62.6915509  77.8003971  95.5409130  61.4777832
  77.2030629  94.6305073  63.3593510  77.1747082  94.7052287  64.3661837
  76.6185229  93.4172750  62.7249613  77.2252912  93.1209686  61.8693130
  76.5745035  92.2204956  63.7498273  76.2089282  92.5416162  64.7251916
  75.9565948  91.4011125  63.3825398  77.9226026  91.7805659  63.8701637
  77.9655754  91.0456650  64.4863405  75.2297445  93.6118910  62.1564560
  74.4575507  92.6720061  62.1526962  74.7881696  94.8369311  61.8952237
  75.4581727  95.5855999  61.9986167  73.4430105  95.1692221  61.4157630
  73.1268183  94.4311424  60.6786334  72.4458481  95.1746894  62.5525502
  72.4509457  94.2005524  63.0415597  72.7243489  95.9437739  63.2729990
  71.1757963  95.4389351  62.0625670  70.5470347  95.4412381  62.7880003
  73.4467273  96.6040169  60.8359568  74.4279234  97.3458557  60.9506889
  72.3760069  96.9204492  60.1757839  71.8306128  96.0972800  59.9635643
  72.0286835  98.1678893  59.5124373  72.7042204  98.9485217  59.8622403
  72.1348507  98.0761612  57.9610542  71.4038899  97.3891523  57.5346574
  72.0413205  99.0498266  57.4800887  73.4419204  97.5674581  57.7480187
  73.5999508  97.4758332  56.8055586  70.7276362  98.8799497  60.0310845
  70.0549845  99.6192543  59.3694242  70.3086061  98.5201968  61.2161962
  70.6562607  97.6393364  61.5673664  69.2967242  99.2686412  62.0424382
  69.3972277 100.3262869  61.7987500  67.8128742  98.8329443  61.7812096
  67.5979275  98.9260832  60.7166800  67.5956838  97.3843657  62.2198420
  67.8100037  97.2905345  63.2844369  66.5608585  97.0984285  62.0314924
  68.2611432  96.7300200  61.6567291  66.8967892  99.6232219  62.5044811
  66.0026140  99.3271316  62.3190585  69.6832359  99.0903228  63.5049826
  70.6308412  98.3425138  63.8130849  69.1230740  99.9213551  64.3733949
  68.6061601 100.6390791  63.8857767  69.1974790  99.9901118  65.8065918
  70.1440387 100.4181246  66.1366358  68.0700111 100.9647983  66.1597436
  67.1146371 100.5459804  65.8435914  68.0553375 101.1292053  67.2371736
  68.2365465 101.9138374  65.6501458  69.0830441  98.5949230  66.5302099
  68.5118170  97.6890612  65.9609903  69.6541465  98.4830226  67.7655893
  70.2311944  99.4865129  68.6047085  69.4327803 100.0441199  69.0943101
  70.8249228 100.1651451  67.9923002  71.0926223  98.6892145  69.6011452
  71.0575527  99.1911211  70.5680780  72.1198765  98.6746881  69.2369487
  70.5393988  97.3115113  69.6841324  69.9448066  97.1174441  70.5768233
  71.3484447  96.5837356  69.6217870  69.6476313  97.2158281  68.4291589
  70.1601891  96.4974137  67.7894218  68.2384204  96.7203400  68.7195534
  67.9668691  95.5715761  68.4663433  67.2670409  97.5972424  69.1464659
  67.6693896  98.4642725  69.4727687  65.8593374  97.3508941  69.4055380
  65.7980712  96.3765387  69.8902825  65.1316451  98.3715528  70.2707240
  64.0641903  98.1544523  70.3095430  65.5490667  98.3205439  71.2763369
  65.2645421  99.8069493  69.8200152  66.4901244 100.4962806  69.5491992
  66.1396619 101.7541810  69.1633967  66.9093349 102.4884336  68.9255407
  64.7774674 101.8484550  69.1518374  64.2412317 102.6462043  68.8417610
  64.2368962 100.6658938  69.6372740  63.1616489 100.5827031  69.7954627
  65.2212637  97.0055411  68.1082866  64.2918171  96.1441881  68.1371663
  65.6243435  97.5676493  67.0019272  66.4170185  98.1926375  66.9679379
  64.9565279  97.2322577  65.7538407  63.8867049  97.0979497  65.9136506
  65.1693663  98.4175820  64.7306852  66.1393570  98.8900619  64.8855405
  65.1012054  98.0568905  63.7043540  64.0625637  99.4344882  64.9861669
  63.2631211  98.7180463  65.1751201  64.2295539 100.0358290  65.8798126
  63.6615063 100.3549089  63.8149877  64.2227722 100.1981082  62.6940273
  62.9510570 101.3618656  64.0190587  65.6059257  95.9714853  65.1266345
  64.9788941  95.3988775  64.2232046  66.8371961  95.5370294  65.4875850
  67.4169951  96.1160575  66.0780584  67.3993500  94.2399018  64.9930619
  67.0971592  94.0460195  63.9638926  68.9552152  94.3225787  65.0482792
  69.2510595  94.5283092  66.0769926  69.5935770  93.0553822  64.5920641
  69.2985490  92.8492178  63.5632034  70.6777538  93.1542717  64.6457351
  69.2719402  92.2346046  65.2331371  69.5505229  95.3564261  64.2494561
  70.5049788  95.3276377  64.3483769  66.9117005  93.0793399  65.7759432
  66.5811742  92.0314174  65.2107107  66.6914305  93.2598645  67.0858294
  67.0613112  94.1314562  67.4374193  66.0376260  92.3733633  68.0116417
  65.9440271  91.3560752  67.6315582  66.9886143  92.3572230  69.2557795
  68.0200022  92.3761209  68.9036700  66.7927680  93.2477383  69.8530456
  66.7825667  91.2053810  70.0469289  67.3779240  91.2236078  70.7998015
  64.6700085  92.8277561  68.3635201  64.3257580  93.1583279  69.4717565
  63.9099831  92.8630335  67.2901130  64.3077863  92.7405018  66.3698750
  62.5277418  93.1850141  67.3900249  62.3767446  94.0456125  68.0416915
  62.0117826  93.5309702  65.9996675  62.5242332  94.4079115  65.6041077
  62.1938322  92.6784633  65.3453053  60.5625567  93.8187868  65.9264901
  59.9839481  94.9904338  66.4967089  60.6595855  95.7356417  66.9165650
  58.5799022  95.2054246  66.5302375  58.1717642  96.0667569  67.0590387
  57.7082251  94.2968984  65.8739965  56.6341106  94.4716489  65.8120271
  58.2518574  93.1771628  65.3104008  57.5770329  92.4299156  64.8928679
  59.6480529  92.9741186  65.2600007  60.0572133  92.1395251  64.6906665
  61.8093972  92.0490480  68.0521633  61.9851541  90.9405388  67.6826260
  60.8954501  92.3967121  68.9408305  60.6296011  93.3658405  69.0418945
  60.2358353  91.3925287  69.8098437  60.0959654  90.4361691  69.3059470
  60.7746713  91.2349590  70.7441492  58.8936895  91.9836339  70.1149148
  58.3122192  92.5062498  69.2063599  58.4112559  91.8256783  71.3797186
  59.0090095  91.1818499  71.8779908  57.1262046  92.2577041  72.0332650
  56.5480285  92.8319795  71.3093732  56.2662844  91.0769334  72.5249485
  56.8448086  90.5124622  73.2562360  55.3722642  91.4788724  73.0016799
  55.8541275  90.1421181  71.3601919  56.7561296  89.9977961  70.7654952
  55.5286753  89.1834935  71.7641957  54.7549578  90.7213620  70.4815477
  53.8007255  91.3602529  71.0498197  54.7464195  90.5540802  69.2809242
  57.3659425  93.3488836  73.0920786  56.4669674  93.4612189  73.9309036
  58.5387838  93.9874115  73.1467275  59.2072092  93.7338704  72.4332684
  58.9296202  94.9946026  74.1398357  58.1491767  95.7399253  74.2931363
  59.1514319  94.2136790  75.4887493  59.2869050  94.9244234  76.3039724
  58.2838702  93.5866847  75.6944552  60.4319280  93.3108475  75.3630271
  61.0398991  93.8444457  74.6324486  61.0264462  93.1137099  76.2550944
  59.9617188  91.9915870  74.7650171  60.3634332  91.7034774  73.5839463
  59.0602288  91.2817827  75.3313700  60.1889502  95.7536965  73.7853580
  60.8598863  95.4185534  72.8278952  60.3842931  96.9731353  74.3823171
  59.5657713  97.4184244  74.7719824  61.6915056  97.7379372  74.3931457
  62.4228370  97.1128127  73.8808245  61.6458080  99.0818315  73.7126951
  60.9421966  99.6875903  74.2837350  62.9696940  99.8147977  73.6016489
  63.6737271  99.2098184  73.0303009  62.8165107 100.7680366  73.0957132
  63.3712454  99.9938306  74.5990481  61.1821332  99.0240724  72.2912513
  60.1751423  98.6085552  72.2536106  61.1759078 100.0291266  71.8694374
  61.8570919  98.3923955  71.7137429  62.2398195  97.8964509  75.8546111
  61.6028885  98.5025551  76.7087116  63.3409533  97.2592434  76.1500921
  63.7584549  96.6600895  75.4523770  63.8830435  97.2343947  77.4842606
  63.6169672  98.1371252  78.0341517  63.2916922  96.0430679  78.1978278
  63.8694867  95.8748320  79.1066454  62.2625579  96.2863617  78.4620075
  63.3114638  94.7953167  77.3519909  62.4133120  94.9674190  76.7588594
  64.1814359  94.7754003  76.6955984  63.1957624  93.4974306  78.0577314
  63.8149068  92.5005670  77.6482473  62.3701819  93.3166195  78.9904255
  65.4451303  97.3211526  77.5666189  66.0991019  96.6175010  76.7691144
  66.0126436  98.0857653  78.5017618  65.3645291  98.6805082  78.9980761
  67.4500314  98.2492412  78.7643908  67.9771419  97.8627491  77.8921078
  67.9132291  99.6738209  79.0198869  67.4059883 100.0636158  79.9024207
  69.4735345  99.6996615  79.2559492  69.9815146  99.3104150  78.3735976
  69.7970161 100.7244590  79.4382960  69.7211986  99.0819797  80.1192182
  67.5906278 100.5154412  77.8402138  66.5138442 100.5075732  77.6711657
  67.9220153 101.5379531  78.0211869  68.0988289 100.1195973  76.9609300
  67.8501197  97.2724954  79.9106591  67.4073228  97.4651367  81.0536772
  68.4922358  96.1364814  79.6601575  68.4769510  95.7798006  78.7153589
  69.1590847  95.3481747  80.6838553  68.5349561  95.1975762  81.5646973
  69.4305349  93.9415076  80.0095924  69.9216907  94.1908532  79.0690117
  70.0863406  93.3051617  80.6038002  68.2241593  93.1090826  79.6586373
  67.5612159  92.0570082  80.3758567  66.6218441  91.6217744  79.6417135
  66.1026377  90.7300287  79.9928733  66.4471786  92.3552719  78.5585309
  65.7310035  92.2550656  77.8534410  67.4636692  93.3384516  78.5482677
  67.5041607  94.0721175  77.7431614  70.4186567  96.0553868  81.1576512
  71.1060278  96.7235464  80.4020689  70.9045244  95.6484342  82.3576013
  70.5983569  94.7388649  82.6723149  71.8641014  96.3483480  83.1454685
  72.5735250  96.8619270  82.4965819  71.1944715  97.3489716  83.9968939
  70.6474218  96.7699144  84.7408890  71.9392832  97.9691198  84.4956641
  70.2381814  98.2342560  83.2883280  70.5334847  99.2113622  82.6780039
  69.0115816  97.8019053  83.4986300  68.2295414  98.2908210  83.0869575
  68.8589677  96.9835424  84.0705495  72.5679300  95.4440962  84.1352362
  72.0844265  94.3583951  84.4420379  73.7060859  95.8930538  84.6657485
  74.0909756  96.7173856  84.2270727  74.4842574  95.2473545  85.7673140
  73.8539942  94.4998839  86.2491388  75.7554735  94.5649420  85.2677745
  75.4794172  93.6422257  84.7573956  76.1840458  95.2630524  84.5487003
  76.8372006  94.2416651  86.4093381  77.1172964  95.2123469  86.8185130
  76.4213455  93.3115984  87.5459517  76.1415316  92.3405023  87.1375702
  77.2543000  93.1877900  88.2380203  75.5708165  93.7413921  88.0750814
  78.0322932  93.5097294  85.7226178  78.4643432  94.1561234  84.9586761
  78.7908227  93.2725514  86.4685943  77.6775973  92.5885758  85.2602697
  74.7798193  96.3019695  86.8097652  75.5488256  97.2003440  86.5449738
  74.0716392  96.1960133  87.9465080  73.3980086  95.4442493  87.9122749
  74.1671577  96.9721109  89.1548047  74.3001793  98.0338866  88.9473513
  72.8357529  96.7796637  89.8901784  72.9134223  95.7512092  90.2428086
  72.8675416  97.4587301  90.7422103  71.4972159  96.9655859  89.1315146
  71.4655476  96.2990519  88.2696386  70.3002810  96.6188405  90.1115021
  70.3310162  97.2853146  90.9734572  69.3527854  96.7462784  89.5879447
  70.3929124  95.5861821  90.4478598  71.2639157  98.3369299  88.5553032
  72.0554361  98.5721021  87.8437634  70.3002907  98.3586201  88.0463261
  71.2668873  99.0742392  89.3580892  75.3147987  96.4791856  90.0433292
  75.5207073  95.2286386  90.2073771  76.0202907  97.4063052  90.7382589
  75.7910118  98.3783923  90.5880018  77.1641150  97.0852096  91.6084535
  77.2277014  96.0681425  91.9952745  78.5440206  97.4970403  90.9953647
  78.4347368  98.5054339  90.5962410  79.7004512  97.4692827  92.0058798
  79.8106551  96.4610355  92.4051207  80.6244645  97.7660179  91.5096456
  79.4880553  98.1610673  92.8210002  78.9520192  96.8894825  89.7025287
  78.1926186  97.1595540  88.9687216  79.9036150  97.3416799  89.4230964
  79.1086940  95.3134179  89.7442806  78.1573119  94.8604603  90.0232096
  79.4084027  94.9513874  88.7608133  79.8683072  95.0425861  90.4775866
  76.7895219  97.7728229  92.8905108  76.7295457  98.9832539  92.8792125
  76.4404477  97.0491310  93.9038535  76.7201409  96.0800048  93.8522259
  75.6124542  97.4899301  95.0773712  75.4701474  98.5647529  94.9651035
  74.2429601  96.7988231  95.1661975  74.4553177  95.7331118  95.0809671
  73.3749724  97.0571094  96.4432360  73.1618025  98.1226243  96.5288945
  72.4384914  96.5049344  96.3644531  73.9194340  96.7238570  97.3267538
  73.4450855  97.3363430  93.9717125  73.1555924  98.3569517  94.2220171
  74.1262280  97.3507355  93.1208674  72.1740523  96.5109522  93.6055614
  71.4921811  96.4964982  94.4558218  71.6773019  96.9682146  92.7498457
  72.4628169  95.4902807  93.3546741  76.3896384  97.2706618  96.3428901
  76.8416277  96.2010476  96.6370212  76.4955095  98.3403947  97.0746858
  76.1850706  99.2159904  96.6783788  77.1045333  98.3573586  98.4253949
  78.1713179  98.1466925  98.3499653  76.9216020  99.7280550  99.0852173
  77.2785174 100.5759745  98.5006294  75.8416106  99.8035280  99.2117974
  77.5862650  99.7347227 100.4354053  78.6802067  99.2045420 100.5579368
  77.0696563 100.3871587 101.3251832  76.6077388  97.3106006  99.4067378
  75.4641354  97.3764598  99.8015731  77.4739344  96.4993850 100.0089797
  78.4210199  96.5144436  99.6584064  77.1389029  95.5407996 101.0162518
  76.3079588  94.9197518 100.6816914  78.3590397  94.6261406 101.2981702
  77.9624794  93.7476845 101.8072419  78.7464188  94.3355500 100.3216485
  79.5342872  95.2586207 102.1686203  79.8205083  96.1542515 101.6172368
  79.2798964  95.5292508 103.1933870  80.7477547  94.2834977 102.1981628
  80.6811070  93.1056572 101.7493022  81.8114566  94.7269625 102.8668287
  82.6392250  94.1518917 102.9315938  81.7851422  95.6361652 103.3058726
  76.5820841  96.0654313 102.3428491  75.9857000  95.3274874 103.0810670
  76.9221472  97.2999067 102.6736523  77.5393819  97.7909478 102.0427805
  76.6135310  97.9211458 103.9735569  76.3547821  97.1715748 104.7214148
  77.8294597  98.6307918 104.4179360  78.4082395  97.7724293 104.7590036
  78.4071255  99.1879693 103.6804026  77.6597887  99.5476777 105.6214185
  77.2976319  99.1134144 106.9323261  77.5882031 100.1494128 107.7522003
  77.4874668 100.0162515 108.8293351  77.9802227 101.2402484 107.0099042
  78.1775544 102.1689265 107.3544574  78.0628480 100.8500281 105.6801271
  78.4039525 101.5578230 104.9246303  75.3347990  98.7727627 104.0387815
  74.6964687  98.8099110 105.0430097  75.0189194  99.5784878 103.0175646
  75.7116115  99.6035726 102.2829573  73.8174389 100.3983694 102.8658812
  73.1549985 100.3663407 103.7308934  74.1974187 101.8255191 102.6058949
  73.2845323 102.3962786 102.4356826  74.9671181 102.4338875 103.7774220
  75.8804277 101.8639006 103.9479510  75.2226125 103.4681745 103.5470483
  74.3481323 102.4041603 104.6741234  74.9302256 101.8816214 101.3934084
  75.1811218 102.7905089 101.2129232  72.7880781 100.0529058 101.7091871
  71.8062635 100.7456682 101.5265582  73.0986985  99.0725212 100.8685575
  73.9053723  98.5445813 101.1696491  72.5230797  98.7683817  99.5762889
  73.1687848  98.1182527  98.9859531  71.1884070  98.0172870  99.8629028
  70.6552353  98.3188966 100.7644896  70.5722333  98.2289995  98.9890562
  71.3389389  96.5182494  99.9317674  70.8680894  95.7274943  98.8842961
  70.2068323  96.1718167  98.1403764  71.2309154  94.3900286  98.7810163
  70.9314429  93.8084040  97.9091621  72.0138794  93.7643318  99.8417047
  72.3609124  92.7337069  99.7676747  72.3187962  94.5294927 100.9835280
  72.7289399  94.0524508 101.8736479  72.0918596  95.9132929 100.9710962
  72.4959580  96.5390146 101.7668831  72.3228615  99.9563895  98.5516933
  71.4236897  99.8668807  97.7542873  73.1967575 100.9347514  98.5294491
  73.8659924 100.9822435  99.2844117  73.2737027 101.9229464  97.4865435
  72.2964811 102.3638419  97.2896981  74.2242738 103.0295823  97.9601337
  73.7788796 103.4289453  98.8713047  75.1606622 102.5276880  98.2038116
  74.4955654 104.1604331  96.9948476  75.3063119 104.8386299  97.2610055
  74.7479677 103.6376322  96.0723123  73.1898347 104.9719859  96.7882139
  72.2426919 104.5199514  96.0379665  73.0482029 105.9950190  97.5084567
  73.8400252 101.2666170  96.2189834  74.7959006 100.4235130  96.2571422
  73.3015822 101.7543598  95.1033114  72.5251904 102.3961889  95.1765950
  73.7656168 101.3600007  93.7445716  74.0886758 100.3195617  93.7794821
  72.6768778 101.4935086  92.7023436  72.3613241 102.5346320  92.6346144
  73.2265524 101.0272920  91.3221027  73.5418984  99.9860463  91.3889252
  72.4448965 101.1219967  90.5683484  74.0781953 101.6470084  91.0414648
  71.4133355 100.6178775  93.0271172  70.9953517 100.9238530  93.9861639
  70.6657920 100.7538246  92.2455823  71.7010635  99.5676403  93.0752333
  74.9747398 102.2825790  93.4366353  74.7619384 103.3812711  92.9195654
  76.1334624 101.7454951  93.5753464  76.1589944 100.8125233  93.9613661
  77.3846997 102.4103207  93.3116928  77.3212297 103.4461942  93.6449149
  78.5203910 101.7429995  94.0327979  78.6709732 100.7731475  93.5586551
  79.3654102 102.3929795  93.8057106  78.4110006 101.5564062  95.5636913
  77.4924769 101.0216406  95.8054369  79.6337457 100.7354371  96.0595078
  80.5526852 101.2698255  95.8185141  79.5663109 100.5980445  97.1387097
  79.6411115  99.7617826  95.5695659  78.4705804 102.9340408  96.2094716
  77.6437682 103.5431792  95.8441888  78.3953928 102.8319617  97.2920740
  79.4152913 103.4145752  95.9550959  77.8060340 102.5821078  91.8493906
  78.2506461 103.6857864  91.5867507  77.5770592 101.6114536  90.9937810
  77.3792006 100.6885398  91.3531993  77.6243970 101.7969324  89.5318094
  77.3666564 102.8247143  89.2762054  79.1013782 101.4893721  88.9901211
  79.7296477 102.1268437  89.6122198  79.3824396 100.4467957  89.1389124
  79.4282421 101.8218688  87.5701127  80.1582606 102.8883972  87.1007724
  80.2111345 102.7763186  85.8129243  80.7071944 103.5750028  85.2614470
  79.6109628 101.6338852  85.3825178  79.5148027 101.2716748  84.4446176
  79.1387183 101.0344621  86.4964155  78.6252517 100.0757504  86.4234417
  76.6335751 100.9034045  88.7421198  76.5598054  99.7101087  89.0586450
  76.0430446 101.4150015  87.6653820  76.0831917 102.4220518  87.5995240
  75.1243273 100.6827560  86.7475911  75.2157279  99.6765339  87.1565682
  73.6913719 101.1620285  86.9488112  73.5817987 102.1649122  86.5361150
  73.0060712 100.4836776  86.4405756  73.4601208 101.1806989  88.0138340
  75.5911963 100.5567779  85.2572094  75.3936956 101.5351798  84.5326204
  76.2044867  99.4702563  84.8542953  76.5886285  98.8435936  85.5469916
  76.4590920  99.1860505  83.4502161  76.8678472 100.0638678  82.9497611
  77.4484065  98.0802131  83.3534568  78.3686614  98.3773930  83.8563626
  77.0931334  97.1391429  83.7732995  77.8029549  97.8088371  81.9544562
  78.6160517  98.5804891  81.0869929  78.6754924  97.8911019  79.9209217
  79.2182564  98.2958210  79.0666918  77.9717000  96.7116442  80.0716193
  77.8832365  95.9781973  79.3829033  77.3963917  96.6911004  81.3358722
  76.7573921  95.8586154  81.6304046  75.1543471  98.9035370  82.7151129
  74.2926243  98.1777397  83.3050409  74.9806542  99.4047802  81.4888919
  75.7244778  99.9628659  81.0947267  73.7530622  99.1984180  80.6821338
  72.9976036  98.6918439  81.2827703  73.1853385 100.5436342  80.2133342
  73.9317793 101.0321248  79.5869937  72.2877981 100.3516938  79.6253886
  72.8339197 101.4598265  81.4030953  72.3688230 100.8158683  82.1494892
  73.6996323 101.9565057  81.8412204  71.8401761 102.5064652  80.9857682
  71.1239364 102.4556757  79.9610263  71.7992849 103.5856069  81.7164105
  71.1509120 104.3244935  81.4845472  72.4161725 103.6775895  82.5108224
  74.2211555  98.2891689  79.4524245  75.1227931  98.6922375  78.7103555
  73.7105096  97.0968464  79.2288857  73.3989066  96.4990997  79.9810173
  73.6688247  96.5702759  77.8576162  74.6388010  96.6288235  77.3638376
  73.2821904  95.1081726  77.9960173  72.3372496  94.9619759  78.5192884
  73.1990977  94.7186712  76.9813822  74.3121103  94.2471873  78.7094003
  75.4049628  93.7246371  78.0218542  75.4361668  93.6660977  76.9338747
  76.4861431  93.2662644  78.7768718  77.4162897  93.0674467  78.2445189
  76.4140208  93.0623866  80.1437581  77.2366072  92.6183197  80.7043436
  75.2395986  93.4453782  80.8072459  75.1442675  93.2570919  81.8766198
  74.1839925  94.0708007  80.1020110  73.2946019  94.4051690  80.6361290
  72.7387444  97.3244387  76.9060254  72.0213084  98.2337517  77.2398612
  72.8598983  96.9448214  75.6137199  73.6298233  96.3486317  75.3456292
  72.0162943  97.5564584  74.5238747  72.0627514  98.6411353  74.6209160
  72.4702525  97.1751280  73.1290833  72.4664127  96.0853341  73.1082572
  71.7251867  97.5540054  72.4294914  73.8791517  97.6968241  72.7193487
  74.6052038  97.2667751  73.4092814  74.2596053  97.3283390  71.2842823
  73.5342194  97.7584546  70.5936922  75.2515593  97.7199014  71.0588780
  74.2645197  96.2437174  71.1762447  73.9172799  99.2408080  72.8617805
  73.7140523  99.5158576  73.8967422  74.9026807  99.6083906  72.5754771
  73.1619399  99.6847826  72.2133617  70.4965646  97.3578696  74.7123554
  70.0247095  96.5824156  75.5233158  69.6253003  98.0931754  74.0517268
  69.9957575  98.8488226  73.4932843  68.1978728  97.8594960  74.0289755
  67.7929539  97.8323629  75.0406097  67.5316115  99.0116692  73.2647885
  67.9029748  98.9111388  72.2449443  66.4681617  98.7737627  73.2887708
  67.7461913 100.4685540  73.7514827  66.8839064 101.0156057  73.3703004
  67.7317297 100.4822326  74.8413018  69.0111657 101.1621105  73.2738831
  69.8168993 100.6117243  72.5701230  69.2118152 102.3678960  73.7093417
  70.0373877 102.8742127  73.4226801  68.5414732 102.7944277  74.3328910
  67.8573249  96.5859282  73.2866391  68.1420592  96.3255632  72.1145058
  67.2568060  95.7225887  74.0959474  67.2810415  95.9911072  75.0692971
  66.8340602  94.3917785  73.7680019  66.3605130  93.9595910  74.6495155
  65.8404255  94.3264980  72.5939280  66.4390569  94.6083185  71.7277196
  65.4761766  93.3070237  72.4670625  64.6314295  95.2725953  72.6845958
  64.3621775  95.8873737  73.7018828  63.8185420  95.3640767  71.6631953
  63.0208982  95.9818545  71.7102574  63.9925786  94.8164797  70.8325633
  67.9968293  93.4009157  73.6809556  67.8170658  92.3493048  73.1105306
  69.0771149  93.7786502  74.3562931  69.0846853  94.7345958  74.6821921
  70.2952873  92.9649434  74.5447086  70.2491660  92.1238824  73.8529078
  71.5910484  93.7238400  74.3015806  71.6237577  94.0156762  73.2518849
  71.5858271  94.6169249  74.9264583  72.8500424  92.8567515  74.6414227
  72.8658383  92.8068744  75.7301667  72.8574623  91.8466720  74.2318088
  74.1160731  93.6359501  74.1350078  74.8272132  93.0019655  73.3403775
  74.4660936  94.7473397  74.5815900  70.1033258  92.3918948  75.9544150
  70.3016217  93.0621068  76.9606077  69.7312747  91.1404404  76.1168242
  69.7263370  90.5201809  75.3197338  69.4008345  90.5924051  77.4145039
  68.9134667  91.3881710  77.9778231  68.4779198  89.3423692  77.4211142
  68.9822907  88.4863955  76.9727636  68.3778229  89.1830377  78.4947502
  67.1202860  89.4964198  76.8114086  66.8510166  90.0843287  75.5734324
  67.6514723  90.5514083  74.9996669  65.5202210  90.0712912  75.0608827
  65.2952496  90.6498969  74.1649445  64.4974377  89.4415035  75.7547946
  63.2423900  89.2944127  75.1631692  63.1991668  89.6641810  74.2782948
  64.7960917  88.8443079  77.0015059  63.9912459  88.3692900  77.5624709
  66.0858859  88.8555087  77.5133405  66.2994769  88.3657983  78.4634261
  70.6470194  90.0786459  78.1196136  71.3226230  89.1500349  77.5923077
  70.8920984  90.4408519  79.3642609  70.4008385  91.2540517  79.7069986
  71.8392623  89.7609628  80.2712920  72.8060274  89.4651571  79.8639060
  72.0614961  90.8459999  81.3077031  71.1031363  91.1462751  81.7313555
  72.7054044  90.4654281  82.1005760  72.5358692  91.7071060  80.8369956
  71.2180349  88.4771178  80.8281021  70.1389443  88.4475889  81.3698700
  71.8834684  87.2941505  80.6002432  72.7204901  87.3119427  80.0352852
  71.3704670  85.9897835  81.0455769  70.3289509  86.0914021  81.3505637
  71.4528742  84.9410014  79.9010896  72.3537147  84.9780193  79.2885413
  71.4778413  84.0508196  80.5296220  70.2117419  84.8898024  78.9869303
  69.3969545  84.5870934  79.6446458  69.8117327  86.1382286  78.2304320
  70.6258982  86.4413044  77.5721171  68.9213478  85.9337761  77.6358611
  69.5994740  86.9399473  78.9377465  70.6650694  84.0449273  77.8064142
  70.9587737  83.0559616  78.1582438  69.8468163  83.9479537  77.0928603
  71.5149859  84.5244731  77.3208457  72.0251182  85.4126356  82.3171701
  71.2560160  84.8371629  83.1326705  73.3620279  85.5589741  82.4472718
  73.7441893  86.2893705  81.8636853  74.2734496  84.8784675  83.4208770
  73.6889179  84.4639836  84.2422326  75.0385817  83.7424119  82.7442615
  75.7759204  83.4341130  83.4854651  74.2969324  82.9533091  82.6202734
  75.6642521  83.9734755  81.5463116  76.0980690  83.1694068  81.2515636
  75.4087756  85.7940873  83.8855536  75.6820241  86.8102532  83.2382306
  76.0444319  85.4165540  84.9784341  76.0417058  84.4274564  85.1828303
  76.7664240  86.3299479  85.9120191  77.2313947  87.1606630  85.3811577
  75.7357276  86.8832749  86.8652029  74.9604233  87.2813629  86.2105820
  75.3193734  86.0812349  87.4746953  76.2579838  88.0021882  87.7791845
  77.1317233  87.6142521  88.3028118  76.6371783  89.2706523  87.0321313
  75.7637731  89.6594605  86.5085948  76.9971693  90.0164706  87.7408358
  77.4228735  89.0468472  86.3105395  75.1790615  88.2325996  88.7986836
  75.0048839  87.3135136  89.3581858  75.4886722  89.0215010  89.4841593
  74.2596350  88.5302105  88.2945194  77.8481299  85.5286819  86.6953365
  77.4531296  84.5628462  87.4762610  79.1758443  85.8421079  86.6508438
  79.4686590  86.5072570  85.9494626  80.2243991  85.1818971  87.4805338
  79.9918013  84.6590834  88.4082532  81.0204084  84.1953356  86.5290508
  81.0950173  84.6828970  85.5570340  82.4214143  83.8286625  87.0243864
  82.3475805  83.3406069  87.9962152  82.8930714  83.1508609  86.3128914
  83.0227471  84.7330215  87.1173125  80.2983761  82.9300933  85.9686329
  79.4335170  83.2356151  85.3797549  80.9867340  82.3679275  85.3375761
  79.9699322  82.3019111  86.7966502  81.0881936  86.2049315  88.1855470
  81.3907932  87.2369766  87.5527624  81.5879299  85.8637364  89.3597559
  81.2335478  85.0316712  89.8094003  82.4995129  86.7494749  90.1329680
  82.9975769  87.3821508  89.3982895  81.9028186  87.6185134  91.1818516
  81.1828657  88.3197274  90.7598730  81.4215339  87.0308116  91.9635623
  83.0269258  88.3587330  91.7515945  82.7074478  88.9443096  92.4419811
  83.6565592  85.8595161  90.6573869  83.3915287  84.9615405  91.4780462
  84.9315881  86.0892144  90.2534934  85.1579553  86.9412323  89.7606215
  85.9858374  85.0401728  90.3738301  86.0759369  84.6876390  91.4013033
  85.5657861  83.8469187  89.4752314  86.1777840  82.9736939  89.7011436
  84.5154018  83.6059267  89.6386807  85.7433780  84.1381133  87.6961826
  85.3029690  82.9424520  87.3149581  87.4086176  85.5671669  90.0999051
  87.5630319  86.7825844  89.8740169  88.4488012  84.6899609  90.1015378
  88.2905526  83.8288572  90.6050823  89.8413427  84.9822864  89.6064652
  89.8244166  85.7887966  88.8734209  90.7399313  85.4277947  90.8262123
  91.7008367  85.7570729  90.4308189  90.2442612  86.2644582  91.3185591
  90.9695079  84.2727201  91.8630750  89.9919614  83.9827230  92.2483092
  91.4101046  83.4343902  91.3234645  91.9108670  84.6773540  93.0666367
  91.7881007  83.8667563  93.7849395  92.9148907  84.6387307  92.6440919
  91.7024121  86.0447342  93.7860120  91.9697527  86.8279876  93.0766858
  90.6433118  86.1235186  94.0313662  92.4996625  86.1988497  95.0074416
  93.4810996  86.1263079  94.7802443  92.3150693  87.1029402  95.4181064
  92.2517861  85.4734206  95.6650197  90.3454514  83.8345213  88.7618299
  90.1892006  82.6585657  89.1748288  90.8552121  84.0946502  87.5765738
  90.9073009  85.0729896  87.3311393  91.2084389  83.0820237  86.5336125
  90.9535236  82.0707814  86.8506401  90.3783417  83.4299933  85.2850410
  90.6407142  84.4343579  84.9526082  90.6741569  82.7072715  84.5246025
  88.8583634  83.3449945  85.5092602  88.5870521  83.9659729  86.3630030
  88.1065875  83.8412263  84.2514649  88.3770531  83.2203995  83.3973447
  87.0317696  83.7768294  84.4209357  88.3805218  84.8765691  84.0486705
  88.3415082  81.9280165  85.7474371  88.8198949  81.5103275  86.6333160
  87.2620798  81.9547068  85.8965118  88.5730823  81.3061046  84.8827419
  92.7690299  82.9180632  86.2479857  93.4843346  83.8944008  86.0568075
  93.1659787  81.6341149  86.3203547  92.6008694  80.8789907  86.6816555
  94.4800130  81.3313565  85.8502992  94.5912667  80.2606543  86.0215256
  94.4378878  81.5249229  84.7784518  95.6566426  82.0381888  86.4240022
  95.7183403  82.1623967  87.6826577  96.6577769  82.3811368  85.5839387
  96.6961100  82.0306121  84.6374914  97.8019187  83.2551887  86.0764252
  98.2678616  82.8350299  86.9677517  98.8282103  83.3085076  84.9769564
  99.6431130  83.9074881  85.3834721  99.1613948  82.2778947  84.8547874
  98.4062792  83.8773027  83.6081747  97.5935242  83.2327086  83.2734681
  98.0152828  84.8715082  83.8244597  99.4979661  83.9773496  82.4749725
  99.8780022  82.9763727  82.2707260  99.0287190  84.3776519  81.5762708
 100.6679638  84.8962393  82.8982705 100.4475950  85.9158919  82.5822851
 100.7654072  84.8657530  83.9834777 101.9585696  84.4422007  82.2652567
 101.8686311  84.4707867  81.2596755 102.7085485  85.0540910  82.5537391
 102.1631712  83.4975408  82.5582669  97.5054446  84.6688466  86.5160310
  98.2830471  85.2436588  87.2101919  96.4142619  85.2691034  85.9924413
  95.8267458  84.7216180  85.3799187  96.0432288  86.6555760  86.2488125
  96.9272013  87.2910412  86.1951851  95.0572930  87.1253593  85.2363569
  95.4184326  86.7770548  84.2686992  94.1385692  86.5975220  85.4921584
  94.7784631  88.6302863  85.1655094  93.9763304  89.0416281  84.2343681
  95.3544554  89.3482892  86.0712305  95.3985748  86.8521996  87.6870149
  94.4443827  86.1384115  87.9362155  95.8699272  87.7551002  88.5700565
  97.2022811  88.1915638  88.4455749  97.2606992  88.8799220  87.6024554
  97.8312129  87.3232295  88.2492601  97.5321739  88.8554262  89.7593890
  97.2202568  89.8998304  89.7542368  98.6011570  88.7970386  89.9642483
  96.7403614  88.0445574  90.7727428  96.5235059  88.5859881  91.6935715
  97.2415361  87.1068168  91.0126722  95.4197649  87.7585765  90.0045079
  95.0122104  86.7639510  90.1853880  94.3915321  88.8095033  90.4082644
  93.8860381  88.7653777  91.5520313  94.0188880  89.7120124  89.5236002
  94.6768149  89.9521923  88.7959017  92.7592042  90.4555583  89.5937078
  92.7343863  91.1274520  90.4516368  92.6751847  91.2936288  88.3124223
  92.7126798  90.5571664  87.5097290  91.7421332  91.8534096  88.2479209
  93.8482353  92.2719570  88.1367915  93.7398676  93.3984313  88.5859652
  94.9212724  91.9803278  87.4413198  95.6643841  92.6590892  87.3566572
  94.9994932  91.0783444  86.9936500  91.5099987  89.5461372  89.8083420
  91.4049651  88.4130071  89.2556666  90.6122108  90.0550846  90.5616888
  90.8510944  90.8883582  91.0800410  89.2482828  89.4978945  90.7173825
  89.1360558  88.4569794  90.4140674  88.6765653  89.6614973  92.1711694
  89.0110124  90.6451145  92.5009311  87.1913380  89.5510212  92.3547774
  86.8561947  88.5674320  92.0256408  86.9439366  89.6850034  93.4078398
  86.6935180  90.3202666  91.7644069  89.3524999  88.8102287  93.0831700
  88.9860970  88.9281428  93.9626275  88.3371532  90.2730178  89.7189459
  88.2829677  91.4811001  89.7102841  87.5520337  89.5399093  88.9492087
  87.4376528  88.5973677  89.2936380  86.8324002  89.9282414  87.7169969
  86.9292307  90.9999250  87.5431653  87.4202657  89.1976393  86.5460829
  87.5498059  88.1381141  86.7668200  86.6546174  89.3175936  85.7796016
  88.7022749  89.7606784  86.0562754  88.8091951  91.0782644  85.5838432
  87.9247138  91.7144121  85.5505477  90.0899998  91.5937539  85.1411799
  90.1989853  92.6532638  84.9095276  91.2069910  90.7699751  85.1647018
  92.3573574  91.1100357  84.5086150  92.2938614  91.9521233  84.0520448
  91.0680651  89.5164806  85.7413881  91.9886700  88.9417137  85.8425327
  89.8786048  88.9874344  86.1723723  89.8504940  87.9839779  86.5970898
  85.3297693  89.5693675  87.7437206  85.0064203  88.4346059  88.1925140
  84.4165897  90.4472117  87.2198251  84.6927007  91.4182344  87.2510799
  83.0530076  90.1304145  86.8250170  82.6898603  89.2825958  87.4059014
  82.1279130  91.3235119  87.0708620  82.6933857  92.1703734  86.6820620
  81.1535003  91.2836536  86.5840036  81.8601077  91.6209596  88.5866569
  81.0067032  90.7909625  89.3601992  80.6069202  89.8682181  88.9397042
  80.6821124  91.1598017  90.6580934  80.0163529  90.5290676  91.2471940
  81.2165653  92.3613646  91.2240718  80.9412233  92.6726301  92.2317426
  82.1180986  93.1536517  90.4545993  82.6244559  94.0103050  90.8993998
  82.3470666  92.8261033  89.1326977  82.9124491  93.5040359  88.4932839
  83.0091284  89.5348006  85.4073021  83.8107357  90.0551856  84.5798117
  82.2039580  88.4895526  85.1177449  81.7248034  87.9746542  85.8425826
  81.9870287  88.0764154  83.6862484  82.3662078  88.8044107  82.9690697
  82.7768281  86.7335467  83.5332137  82.3803897  85.9780022  84.2115127
  82.6013234  86.2547194  82.0656226  82.9979803  87.0095928  81.3867043
  83.1400658  85.3181806  81.9215658  81.5426215  86.0999804  81.8575235
  84.2855474  86.9840974  83.8942490  84.6024180  87.8726288  83.3481667
  84.3302340  87.1813506  84.9653203  85.2060407  85.8273071  83.5546883
  85.1622401  85.6297516  82.4836360  86.2282364  86.0812390  83.8352835
  84.8900543  84.9384723  84.1007882  80.4731409  87.8697841  83.4542029
  79.8775027  87.2185251  84.3017605  79.8785387  88.2910898  82.3757634
  80.5084121  88.5873064  81.6439065  78.4408540  88.2488055  82.0817894
  78.0452720  87.7488229  82.9658886  77.8769478  89.6696669  82.0304215
  78.2573899  90.1253216  81.1162323  76.3637974  89.7563501  82.0459120
  75.9826202  89.3012782  82.9600862  76.0588359  90.8020856  82.0067180
  75.9602270  89.2281096  81.1820865  78.1800381  90.4099043  83.4024892
  79.2573627  90.4525704  83.5626555  77.7782580  91.4224994  83.3661088
  77.7128056  89.8633962  84.2217105  78.2719467  87.7260296  80.6690344
  78.8307369  88.2907080  79.7471462  77.4444508  86.7041983  80.5631596
  77.1916112  86.1992872  81.4005582  76.8672770  86.2604062  79.2754450
  77.6231783  86.4808883  78.5217209  76.7462235  85.1806839  79.3628817
  75.5514342  86.8699967  78.8458696  74.7143146  87.2164151  79.6356127
  75.2695968  86.9275665  77.5468980  75.8205268  86.4362504  76.8575622
  74.1750740  87.7838936  77.0801134  73.3396782  87.8125320  77.7796796
  74.6309437  89.2501047  76.7860987  73.7292557  89.7933061  76.5032713
  75.3141127  89.9676844  77.9020887  76.2162042  89.4252879  78.1851727
  75.5820655  90.9733021  77.5780000  74.6437628  90.0293252  78.7593705
  75.4573081  89.3063928  75.6360698  75.7232002  90.2150643  75.4772686
  73.5437489  87.1691778  75.8402395  73.9451424  86.0347239  75.4906006
  72.5253885  87.8108673  75.2440603  72.2108822  88.6741097  75.6635810
  71.8901182  87.3712660  74.0281316  72.6360978  86.9488221  73.3549639
  70.8562540  86.3124602  74.3281670  70.0973485  86.7232915  74.9940349
  70.3869557  85.9885804  73.3992099  71.3370743  85.4600962  74.8081530
  71.1639959  88.4484959  73.3464866  70.7298944  89.4416906  73.9121810
  70.8345180  88.2175213  72.0786837  71.4255347  87.6211986  71.5172589
  69.6828199  88.8858696  71.4224764  69.0044181  89.3794069  72.1183867
  70.3833027  89.9640902  70.5679648  71.3303200  89.5314867  70.2453016
  69.7452066  90.1289377  69.6997720  70.6435491  91.2905852  71.2645257
  69.6814356  91.7181074  71.5467726  71.2293394  91.0914111  72.1619004
  71.5313133  92.4643619  70.2264121  70.9465773  94.0945099  70.6052224
  71.1311083  94.3119214  71.6572583  71.4718408  94.8223258  69.9867704
  69.8767442  94.1530027  70.4048802  68.7690374  87.9345033  70.6460778
  69.2861520  86.9647323  70.0892236  67.5158803  88.3060045  70.4375565
  67.2053029  89.1694593  70.8595599  66.5302923  87.4803820  69.7438953
  66.9728506  86.5333656  69.4350244  65.2929527  87.1838062  70.6267104
  64.7132376  88.1021946  70.7194058  64.3801306  86.0427981  70.0096260
  64.9590644  85.1239040  69.9170497  63.5246549  85.8684506  70.6622092
  64.0284980  86.3508343  69.0249586  65.6605212  86.7653504  72.0595531
  66.2236234  87.5659052  72.5392717  64.7501831  86.5717028  72.6269020
  66.2687533  85.8613184  72.0298763  66.1271055  88.0981731  68.3855564
  65.1156954  88.7912911  68.1984575  66.9602338  87.8007535  67.3702092
  67.8606327  87.4165961  67.6188141  66.7201425  88.1103047  66.0314429
  66.3560742  89.1341246  65.9457321  68.0214499  87.9798492  65.2137227
  68.3627449  86.9513709  65.3314065  67.7538746  88.1563650  64.1719234
  69.1387167  88.9357188  65.6204095  70.3427959  88.7502841  64.9319872
  70.4383211  87.9561469  64.1915005  71.4433839  89.6037621  65.2029251
  72.3192869  89.5717630  64.5549499  71.3820132  90.5402945  66.2672097
  72.4748815  91.2674139  66.6830093  73.2688301  91.0721190  66.1799138
  70.1768352  90.6766855  66.9572157  70.1279183  91.3736014  67.7938852
  69.0233144  89.9258410  66.5867414  68.0636368  90.1316844  67.0608170
  65.5301056  87.2740427  65.4359877  65.4989788  85.9994536  65.4601313
  64.5379804  87.9376111  64.7197500  64.3023089  89.3871378  64.7596416
  65.1816802  89.9171027  64.3936587  64.0885625  89.7011394  65.7813140
  63.0425232  89.5530717  63.7965501  63.3669503  89.8382631  62.7957944
  62.3650726  90.3118041  64.1883245  62.3832454  88.1859840  63.7968767
  61.9197858  87.9783886  62.8324036  61.6246898  88.1514329  64.5788609
  63.4504497  87.1756926  64.0761335  63.0721564  86.4650694  64.8109852
  63.8880601  86.4225354  62.8172668  63.1396988  85.6686667  62.2642503
  65.1092897  86.6474873  62.3414560  65.7252512  87.2387717  62.8809683
  65.6079643  86.0896412  61.0875639  64.8157259  86.0414062  60.3404824
  66.7601093  87.0398957  60.5452060  67.4955314  87.0899508  61.3481680
  67.1898106  86.5152767  59.6918410  66.3561290  88.4924339  60.1158033
  65.8864916  88.9249853  60.9992289  67.2286859  89.0853927  59.8416802
  65.3375875  88.4899922  58.9344531  64.0921490  88.1865862  59.1777303
  65.8260994  88.7065708  57.8166200  66.1851811  84.6453518  61.2959190
  66.5945711  83.9928766  60.2945474  66.3107111  84.1620013  62.5471438
  66.0397795  84.8420745  63.2429856  66.8027441  82.8834997  62.9962187
  66.8606189  82.1667977  62.1770191  68.2156634  83.1161026  63.5444711
  68.1673236  83.9740002  64.2151232  68.4951313  82.2279014  64.1111247
  69.2513210  83.3746890  62.4673311  68.9853328  84.2842129  61.9287056
  70.2037574  83.5202555  62.9770118  69.3743041  82.2193104  61.4824019
  69.5758262  82.5231978  60.2689653  69.3070251  81.0610029  61.8696992
  65.8762138  82.2214144  64.0757810  65.5854010  82.9002429  65.0852110
  65.4520246  80.9941684  63.8694348  65.5996422  80.5843501  62.9581954
  64.6678370  80.2017601  64.8946239  63.8858621  80.7982970  65.3644730
  64.0153339  79.0067558  64.1890671  64.7866354  78.3948340  63.7213645
  63.4692682  78.4077357  64.9178245  63.3256435  79.3670861  63.4257923
  65.6497108  79.8175040  66.0517397  65.4399417  80.1463860  67.2287357
  66.7833070  79.2656711  65.7238706  66.8813271  78.7739117  64.8471356
  67.8393839  79.1514104  66.6903705  67.4954849  78.6741281  67.6079948
  68.9220771  78.2703880  66.0558857  68.4015739  77.3725596  65.7225993
  69.2737145  78.8289984  65.1884726  70.1313318  77.8689218  66.9356935
  70.6003330  78.6957044  67.4691439  69.6102117  77.2275958  67.6464917
  71.2223053  77.0439331  66.1971527  70.9935410  76.5804649  65.0798309
  72.3373994  77.0721038  66.7072797  68.3294870  80.4922403  67.3033468
  68.1894898  81.4964185  66.5884496  68.6467501  80.5826896  68.6157862
  68.3762628  79.6299730  69.6955124  68.9686776  78.7402883  69.4819570
  67.3162912  79.3830575  69.6355804  68.7528106  80.2835507  71.0414441
  69.7380159  79.9608295  71.3780752  68.0148012  80.0593503  71.8116244
  68.7419967  81.7812385  70.6899170  69.5106749  82.2831491  71.2775552
  67.7867588  82.2855905  70.8356883  69.1179627  81.8027371  69.2278946
  68.6039305  82.6755881  68.8254020  70.6314080  81.8853730  68.8767198
  71.5112712  81.4576678  69.6051119  70.8576163  82.4670631  67.7116488
  70.1253975  82.9522238  67.2130768  72.1787292  82.3202858  67.0532218
  72.6629228  81.4029977  67.3882419  72.0061696  82.2551436  65.5596708
  71.3234069  83.0554880  65.2743935  72.9827894  82.4338053  65.1097889
  71.4547549  80.9139613  65.0662510  71.8125600  80.1252789  65.7281092
  70.3659325  80.9507038  65.1011490  71.9156707  80.6189607  63.6143652
  71.4873269  81.3714474  62.9522592  73.0033670  80.6775250  63.5745354
  71.4578783  79.2111358  63.1597609  72.1374327  78.4942472  63.6206048
  70.4525924  79.0635110  63.5543575  71.4464092  78.9997472  61.6349877
  72.3779232  79.1360714  61.2692048  71.1373275  78.0608329  61.4276034
  70.8164533  79.6636537  61.2078078  73.1249027  83.4345889  67.4795799
  74.2941807  83.3914603  66.9666763  72.8419380  84.3258296  68.4038368
  71.9352216  84.2778054  68.8461696  73.6993319  85.4953144  68.6886069
  74.7407090  85.2588007  68.4702165  73.2676561  86.6917276  67.8047475
  73.7784723  87.5835591  68.1677936  73.5791938  86.4867972  66.7805172
  71.6866611  86.9305340  67.8430552  71.3021960  86.8205687  68.8570547
  71.5957220  87.9710676  67.5314110  70.8617499  86.0809113  66.9230315
  71.2458400  85.5906088  65.8747780  69.6564825  85.7850438  67.3859503
  69.0317687  85.2164677  66.8322759  69.3677298  86.1293813  68.2904695
  73.7959395  85.8210859  70.1813808  72.7513085  86.0095796  70.8219603
  75.0361606  85.9497463  70.5923006  75.7986997  85.8401911  69.9391305
  75.3649697  86.2598814  72.0265342  74.6308871  86.9579435  72.4289409
  75.3518357  85.3413409  72.6132285  76.7938091  86.9080939  72.1230297
  77.5344708  86.9071721  71.1296152  77.1950360  87.2725392  73.3559375
  76.4650252  87.4435025  74.0326613  78.5802808  87.5926846  73.7292858
  79.2386285  86.8328857  73.3081171  79.0133029  88.9129664  73.2420469
  80.0478714  89.0818314  73.5407975  78.9418012  88.9330255  72.1545796
  78.1229843  90.0165698  73.8339677  77.0765993  89.7526923  73.6805148
  78.3225678  90.1026755  74.9020755  78.4063618  91.3064714  73.1753652
  79.4584497  91.5382380  73.3411787  78.2267808  91.1790966  72.1078326
  77.5500512  92.4937141  73.6847941  76.5711433  92.4428937  73.4413686
  77.9934414  93.5819971  74.3077655  79.2256326  93.7414835  74.6454442
  79.9006968  93.0197594  74.4368713  79.5113015  94.5875570  75.1173049
  77.1573922  94.4815721  74.6852143  76.1711475  94.3567215  74.5067943
  77.4903767  95.3093197  75.1585578  78.8109599  87.4109897  75.2443449
  77.8780286  87.6900645  76.0062678  79.9681333  86.8360446  75.6068553
  80.4185791  86.2438300  74.9238621  80.6022768  86.9869800  76.9253983
  79.7623853  86.8949332  77.6140265  81.7042106  85.8590152  77.2678123
  82.5832984  86.0073845  76.6406827  82.0967626  85.9644017  78.7111465
  81.2182180  85.8156716  79.3389517  82.8411097  85.2024322  78.9423406
  82.5167197  86.9518181  78.9028336  81.1591622  84.3681090  77.1462799
  80.6776243  84.0734948  78.0787093  80.4397103  84.3030161  76.3300377
  82.3576106  83.4168573  76.8583707  83.0773129  83.4810605  77.6744629
  81.9963393  82.3920182  76.7730067  82.8394005  83.7105836  75.9257919
  81.3161202  88.3742822  77.0629447  82.0232513  88.6353105  76.1334035
  81.0316250  89.1769855  78.0744070  80.1730220  88.9833277  78.5697825
  81.8293697  90.3823437  78.4777691  82.7684484  90.5933445  77.9661941
  80.9089524  91.6460823  78.3761188  80.2720832  91.6796467  79.2600703
  81.7558176  92.9800751  78.2855221  82.3926408  92.9474453  77.4015015
  81.0825404  93.8344817  78.2163302  82.3763392  93.0783243  79.1762530
  79.7863541  91.7028418  77.3747836  79.0849865  90.8911635  77.5680810
  79.2687718  92.6581256  77.4621971  80.1912992  91.6003896  76.3679947
  82.4483698  90.2129749  79.9140445  81.8358660  89.5299712  80.7221962
  83.4659784  90.9973465  80.2188163  83.5766100  91.8242960  79.6495935
  84.3918049  90.7865487  81.3080208  83.9296572  90.1679442  82.0773369
  85.7047012  90.1086678  80.8514491  86.1729364  90.6935852  80.0597883
  86.6318006  90.0333590  82.0342810  86.1644114  89.4481630  82.8262368
  87.5658048  89.5579034  81.7348174  86.8377057  91.0393834  82.3998211
  85.6625059  88.6721255  80.2397958  85.0401940  88.6758257  79.3449124
  86.6729594  88.3584193  79.9777427  85.2448719  87.9781913  80.9692738
  84.7321742  92.1815332  81.8410657  85.0539013  93.0813848  81.0496462
  84.4860369  92.4630213  83.1763342  84.1358904  91.6748156  83.7019086
  84.6264023  93.7262388  83.8526337  85.1885719  94.4195618  83.2270397
  83.1900855  94.3614396  84.1565235  82.8061690  93.8794582  85.0556349
  83.4048188  95.4085973  84.3697145  82.0689376  94.3475811  83.1471255
  81.7326361  95.4528572  82.4281290  82.1991811  96.4172961  82.6288608
  80.7600813  95.3359897  81.4056843  80.4820756  96.2056154  80.8102308
  80.1607855  94.1095236  81.1632399  79.4830546  94.0197914  80.3142824
  80.4049199  93.0206948  81.9658110  79.8427001  92.0925981  81.8626338
  81.4026540  93.1267286  82.9316462  81.6755099  92.2581486  83.5309944
  85.4023076  93.6680540  85.1609133  85.6170154  92.5972989  85.7248542
  85.9103827  94.7891031  85.6911042  85.7813732  95.6242184  85.1378968
  86.7325332  94.8957382  87.0051923  86.4826779  94.0896514  87.6950441
  88.2295377  94.7771698  86.6269517  88.4641128  93.7502088  86.3469075
  88.4583362  95.4417098  85.7938022  89.0848295  95.1862854  87.8691700
  88.9811190  96.2628682  88.0045006  88.7418865  94.6729884  88.7675120
  90.5205118  94.8704012  87.6611059  90.9825354  94.2934337  86.7020462
  91.4006103  95.1995157  88.6038573  92.3796086  94.9890467  88.4720755
  91.0853956  95.6582093  89.4466748  86.2894683  96.2537804  87.6413636
  85.7911744  97.1458714  86.9202250  86.4028980  96.3997685  88.9404472
  86.7770134  95.6200908  89.4622131  85.8870367  97.5272656  89.6733637
  85.4959187  98.3107725  89.0243316  84.7236245  96.9425497  90.4947944
  83.9978849  96.3026990  89.9928059  85.2528111  96.3654658  91.2531055
  84.0182986  98.0785723  91.1405358  83.0048599  98.8428382  90.5304714
  82.6586262  98.6109728  89.5232673  82.4343914  99.9251684  91.2437155
  81.7750311 100.6497452  90.7658723  82.9477651 100.1805052  92.5594330
  82.3806187 101.2453439  93.2725560  81.6897853 101.6984857  92.7836682
  83.8046244  99.2931139  93.2227985  84.1019285  99.4283594  94.2627117
  84.2800811  98.2032156  92.4990909  84.8670327  97.4319887  92.9978864
  86.9334652  98.3052909  90.4633263  87.8491508  97.7151109  91.0919505
  86.8910884  99.6132187  90.3951628  86.1391287 100.0245198  89.8608526
  87.8970702 100.5190222  91.0084992  88.0347924 100.2924500  92.0657583
  89.2823487 100.2958417  90.2556246  89.6655321  99.3360244  90.6020642
  89.0442476 100.2296273  89.1940109  90.2346014 101.2662526  90.4513139
  91.0270924 101.0408763  89.9586036  87.3731548 102.0159331  90.8881153
  86.4845794 102.3772253  90.1655902  88.0093566 102.8765394  91.6839452
  88.6356160 102.4645505  92.3608231  87.6909476 104.3095935  91.8085785
  87.8289494 104.6260222  92.8424681  88.5864838 105.1368893  90.9294729
  88.2823669 105.0077034  89.8907606  88.3764937 106.1590065  91.2445612
  90.0869790 104.8611025  91.0596830  90.8203164 105.4258292  90.2206156
  90.5002186 104.1354641  92.0529508  86.1988717 104.6875487  91.7023419
  85.8655804 105.5772297  90.8764638  85.2872055 103.9478178  92.3318996
  85.6378705 103.1353481  92.8187531  83.7692426 104.2286347  92.3750116
  83.3189019 103.5709758  93.1185015  83.6199460 105.2669612  92.6711329
  83.0955725 103.9954844  91.0378046  82.0013817 104.5214772  90.7948888
  83.7700077 103.2322964  90.1358699  84.6329971 102.8359111  90.4797120
  83.3990571 102.9852750  88.7351140  82.3571017 103.2710935  88.5911142
  84.2843635 103.7982859  87.7311032  85.3289395 103.5431473  87.9096097
  84.0082998 103.5086734  86.7171932  84.0939756 105.2913177  87.8987981
  83.9590644 105.4803429  88.9637719  85.0108941 105.7723378  87.5582366
  82.8844433 105.8685063  87.1135555  83.0956945 105.8802229  86.0442872
  81.9906321 105.2732505  87.3002948  82.6598592 107.2704984  87.5934818
  81.6848743 107.5850773  87.2212652  82.6390047 107.2376147  88.6827856
  83.6925745 108.2349562  87.1485804  83.7117656 108.2658966  86.1392370
  83.4739664 109.1526040  87.5094586  84.5960326 107.9438751  87.4937389
  83.4921911 101.4642434  88.3912042  84.4648348 100.7561225  88.8230398
  82.5851951 100.9613379  87.5268060  81.6649400 101.3761313  87.5611052
  82.7879069  99.7931748  86.6698061  83.5251753  99.1346560  87.1290309
  81.5027704  99.0166606  86.4707184  80.9840091  99.2151975  87.4085718
  80.8824010  99.3443353  85.6365295  81.7915371  97.4161846  86.3375251
  82.4994398  97.3428448  85.5119369  82.3258100  96.6363599  87.5363161
  81.6181784  96.7088549  88.3622101  82.4559769  95.5898006  87.2608694
  83.2852776  97.0528542  87.8429995  80.5685353  96.7641592  85.7745380
  80.3492043  97.1872226  84.7942265  80.7399271  95.6921489  85.6769675
  79.7240780  96.9373386  86.4416210  83.4621880 100.1454242  85.3296731
  82.9661646 101.0408214  84.6474564  84.4161086  99.3732781  84.7761300
  84.6150069  98.5103855  85.2618822  85.1637322  99.6676864  83.5381944
  84.5593155 100.3326268  82.9212390  86.5183092 100.3336281  83.7931095
  87.0251317  99.7288830  84.5451159  87.0705787 100.2835090  82.8547138
  86.4491354 101.8309898  84.2825379  85.8398194 102.4062642  83.5854768
  85.9699728 101.8222815  85.2615320  87.7896737 102.4961750  84.4102079
  88.8195970 101.8421956  84.2827683  87.8914952 103.7649645  84.6280531
  88.8047402 104.1884921  84.7099643  87.0574049 104.3277696  84.7154887
  85.3634081  98.2676812  82.9137218  86.0126542  97.4481002  83.5951024
  84.8210990  97.9886521  81.7572727  84.0993090  98.6348539  81.4717178
  85.1178197  96.8213879  80.8721031  84.8282412  95.8821549  81.3433620
  84.4267277  96.9125858  79.4756030  84.6530366  97.9244384  79.1393903
  84.7798754  95.9207604  78.3739705  84.5533913  94.9086541  78.7092992
  84.1969191  96.1460759  77.4809452  85.8422859  95.9970804  78.1425408
  83.1054177  96.8410384  79.7636028  82.5975521  96.8903425  78.9504350
  86.5985190  96.5352498  80.5670100  87.3653534  97.4600747  80.4189261
  86.8567127  95.2369512  80.3506593  86.0710506  94.6023004  80.3579322
  88.2177607  94.6737565  80.1248958  88.9305802  95.4957416  80.0591085
  88.7115572  93.6636817  81.2404728  87.9626826  92.8721533  81.2682015
  90.1211222  93.0363318  81.0588479  90.8706295  93.8272751  81.0314902
  90.3312198  92.3660716  81.8923410  90.1519214  92.4748537  80.1250946
  88.6552051  94.5441511  82.5301565  87.6338586  94.8893821  82.6906837
  88.9777689  93.9540461  83.3879608  89.3146216  95.4040832  82.4127358
  88.2464231  93.9400328  78.7957664  89.2504015  94.1151206  78.1006990
  87.2915937  93.1068859  78.5546792  86.6264140  92.9352412  79.2950666
  87.2052661  92.2861976  77.3338847  87.3750767  92.9508199  76.4868069
  88.3709485  91.2445050  77.3935281  88.2101793  90.5661316  78.2314199
  88.3972248  90.6743006  76.4649395  89.3187640  91.7662698  77.5258402
  85.8398924  91.6790835  77.1050221  84.9552088  91.6507033  77.9668878
  85.5350649  91.2819843  75.8755595  86.2351554  91.6014331  75.2213996
  84.3303172  90.7193940  75.3563232  83.8773302  90.1376149  76.1590903
  83.3056874  91.7106666  74.8384146  82.3469323  91.2037072  74.7294197
  83.2062668  92.5242939  75.5569034  83.7431516  92.2805732  73.4745947
  84.6225805  92.7947842  73.8622706  84.0303938  91.6604004  72.6254912
  82.6762110  93.3423830  73.0115615  81.5107637  92.9235475  72.9308056
  82.9861112  94.3968603  72.4521356  84.7143550  89.5426601  74.3862416
  85.8617854  89.5264247  73.9395910  83.7955487  88.6322738  74.0848434
  82.9664424  88.6024501  74.6608577  83.9632127  87.6154044  73.0728244
  84.6072350  87.9503224  72.2597043  84.6384207  86.4269292  73.7766780
  85.6109014  86.7615253  74.1378233  84.0147562  86.1427965  74.6242695
  84.8250807  85.2190194  72.8527711  83.8850059  84.6720028  72.7811253
  85.1195523  85.5656487  71.8621972  85.8799693  84.3223771  73.3980019
  86.8131877  84.8796725  73.4793921  85.5766905  83.9763050  74.3861089
  86.0874164  83.0992874  72.4623276  86.7332904  82.3650451  72.9438207
  85.1270424  82.6398003  72.2285489  86.7326758  83.5784840  71.1973755
  87.6227919  84.0039040  71.4137337  86.8759048  82.7959269  70.5751296
  86.1341589  84.2585428  70.7508370  82.6350964  87.3333074  72.4209054
  81.7237007  86.7634065  73.0532351  82.5505867  87.6778283  71.1250749
  83.3053737  88.1732022  70.6723050  81.4023555  87.3364906  70.3476852
  80.4993606  87.7972842  70.7481456  81.6412050  87.8779554  68.9149575
  82.0487808  88.8761851  69.0747034  82.4191131  87.2283816  68.5136933
  80.5394224  87.9507141  67.9739441  80.1879598  86.9211219  67.9067522
  79.7368894  88.5841023  68.3519116  80.9535562  88.4275600  66.6122220
  82.0846072  88.1916672  66.1795845  80.1939146  89.1524501  65.9186558
  81.1833155  85.8224024  70.2635987  82.1430615  85.1689590  69.9171708
  79.9580499  85.2794545  70.3989976  79.1974758  85.8619228  70.7189307
  79.6774156  83.8845799  70.0932801  80.4559244  83.3974539  69.5061418
  79.5316834  83.1365627  71.4371243  78.9504155  82.2270495  71.2854254
  80.9579384  82.7616063  71.9883425  81.5396734  83.6707047  72.1407414
  80.8544185  82.2338966  72.9364493  81.4685855  82.1202502  71.2700086
  78.7806900  83.9034406  72.4721877  77.7751825  84.1162107  72.1091650
  78.7189743  83.3149464  73.3875922  79.2981606  84.8405478  72.6775045
  78.3955102  83.6257347  69.2911681  77.4313382  84.4032102  69.2973498
  78.2894533  82.4883305  68.5928023  79.1421559  81.9488206  68.5489071
  77.1530406  82.0355604  67.8267323  76.5553129  82.8749067  67.4713190
  77.6657631  81.3082266  66.6739521  78.4937453  81.8756293  66.2489828
  78.0272204  80.3371221  67.0121897  76.5609162  81.1027234  65.5843320
  75.7464972  80.4936534  65.9765773  76.1680463  82.0639514  65.2529771
  77.2111812  80.3833654  64.4020658  78.2321766  80.7224973  64.2269741
  77.2049520  79.3005852  64.5271561  76.3305639  80.7655608  63.1989840
  75.2872474  80.5909271  63.4618421  76.4778434  81.8235300  62.9819378
  76.6779826  79.9660506  62.0074067  76.5411676  78.9857075  62.2081774
  76.0858481  80.2374805  61.2355242  77.6445858  80.1280539  61.7634142
  76.1361691  81.2275950  68.6462976  75.7003677  80.1002899  68.2939138
  75.6563832  81.7924423  69.7291540  76.0859185  82.6795891  69.9495387
  74.5867815  81.2821542  70.6315914  73.6799954  81.1866580  70.0343321
  74.8995324  80.2965886  70.9764779  74.2943217  82.1580352  71.8376265
  75.2083289  82.7455026  72.3401847  73.1066219  82.1760309  72.4364950
  72.3695721  81.8725418  71.8162118  72.7348942  82.7105607  73.7446718
  73.0117035  83.7645726  73.7215483  71.2303523  82.6083795  73.8187894
  70.9381324  81.5588002  73.8518167  70.8752835  83.1123120  74.7177213
  70.7899120  83.0801520  72.9404146  73.5009687  82.1111842  74.9747591
  73.5435822  80.8632791  75.1660414  74.1673663  82.9499242  75.8266432
  74.1607134  83.9461935  75.6608042  75.0247444  82.4271468  76.9039489
  75.3865263  81.4287947  76.6579689  76.2533264  83.3709267  77.0898920
  75.8998598  84.2743802  77.5868149  77.4230851  82.7231804  77.9413590
  77.7774085  81.8198656  77.4447926  78.2445759  83.4339781  78.0309139
  77.0527455  82.4696687  78.9346777  76.9101564  83.8079257  75.7467639
  76.1781640  84.3414143  75.1403985  77.7573456  84.4623303  75.9520070
  77.2552323  82.9262583  75.2066841  74.2756670  82.1743124  78.1995602
  74.1611381  83.0076544  79.0849959  73.5736705  81.0204070  78.2348072
  73.6979654  80.3416847  77.4972530  72.6628173  80.6909032  79.3372570
  71.8878424  81.4496282  79.4461122  71.9931719  79.3493895  79.0091563
  72.8970697  78.7405040  78.9910900  71.3094530  78.9614906  79.7642476
  71.2845550  79.2978939  77.5687878  70.0825932  80.0170852  77.2404685
  69.7191685  80.8374436  77.8593661  69.3647814  79.6337705  76.0761898
  68.5114408  80.2215704  75.7379547  69.9341382  78.6687384  75.2275133
  69.1297303  78.1220436  74.3032222  68.2343060  78.4668090  74.3340741
  71.1851378  78.0726086  75.4682417  71.6992749  77.4586150  74.7287991
  71.7779138  78.2993146  76.7391870  72.6207609  77.6892648  77.0640686
  73.3918536  80.5070919  80.7006665  72.6914480  80.8347283  81.6862041
  74.6288741  79.9202391  80.8199226  75.1525927  79.7306459  79.9773833
  75.1788486  79.4466916  82.1091444  74.8525075  80.0994943  82.9187426
  74.6709094  77.9940404  82.4017816  73.5915586  77.9499340  82.2563318
  75.1575023  77.2947140  81.7218773  74.9894791  77.6363341  83.7737177
  74.6781070  76.7460711  83.9528237  76.6639993  79.5693240  82.0916635
  77.2718871  79.3294684  81.0419932  77.2468481  79.8609329  83.2616877
  76.6735338  79.8541693  84.0931709  78.7112931  80.2306717  83.4009574
  79.3063120  79.6016027  82.7388970  78.9543643  81.6812400  83.0381091
  78.3664593  82.2404794  83.7659266  80.0155732  81.8316730  83.2363653
  78.6248669  82.1745521  81.6311920  78.9439281  81.3433992  81.0023155
  77.5360741  82.2248886  81.6411113  79.2951741  83.7407326  80.9472841
  78.9685613  84.6808513  82.4418242  79.5151851  84.2402372  83.2755870
  79.2916283  85.7122733  82.3007674  77.9003176  84.6615467  82.6576577
  79.2670540  80.0149154  84.8066060  78.5045475  80.1128080  85.7197056
  80.5751325  79.7609138  85.0169984  81.2029163  79.8138157  84.2275756
  81.0764791  79.2915827  86.2294116  81.0645542  80.0160165  87.0437535
  80.4172112  77.9196819  86.7518836  79.3786994  78.1099553  87.0227865
  80.4716621  76.8437718  85.6704242  81.5099568  76.6526101  85.3993115
  80.0201824  75.9259945  86.0471886  79.9237840  77.1833465  84.7914359
  80.8880267  77.3685639  88.1223499  80.6767559  78.1012789  88.9011923
  80.3587117  76.4416225  88.3430417  81.9601016  77.1747679  88.0877196
  82.5846991  79.2287289  86.0802280  83.0442826  78.9212242  84.9941097
  83.3871193  79.5023377  87.1122833  82.9182213  80.0614300  87.8106026
  84.8402987  79.2192218  87.2920968  85.3585161  79.3185951  86.3383280
  85.4748514  80.2398671  88.3209735  85.3420530  81.2382482  87.9042015
  84.9067628  80.1549046  89.2473410  86.9885610  79.9962140  88.6150183
  87.0874846  79.2235580  87.8525763  87.7183841  80.7843277  88.4297236
  87.2329604  79.3969509  89.9684309  87.7341627  78.2277945  90.0612454
  86.6421426  79.9217772  90.9617595  85.0426337  77.7319205  87.6649955
  84.6184454  77.3404341  88.7421378  85.7077108  76.9882872  86.8033105
  86.0749103  77.5303799  86.0342855  85.9818003  75.5463271  86.8318060
  85.4338004  75.0437852  87.6288299  85.4985979  74.9897241  85.4731190
  84.4216893  75.1502480  85.5241011  85.8933744  75.4605071  84.5727774
  85.7118058  73.4651782  85.3057421  85.0945066  72.6391650  86.2667051
  84.5316925  73.1336430  87.0584322  85.1791892  71.2521966  86.2363963
  84.6882685  70.6301185  86.9848055  85.9045772  70.6696086  85.2298217
  85.9178084  69.5880602  85.0949961  86.6571216  71.5134203  84.3430609
  87.2978234  71.0527858  83.5911186  86.5786192  72.8675982  84.4318555
  87.2113933  73.4926777  83.8017980  87.4923994  75.2847413  86.9964726
  88.2587399  75.5102742  86.0550852  87.9298013  75.1506608  88.2383494
  87.2123680  75.1421375  88.9492053  89.3375967  75.1959922  88.6678201
  89.4344728  75.5440250  89.6962108  89.8731501  73.7415252  88.5838780
  90.2610071  73.5240771  87.5886984  90.6935608  73.7391324  89.3015274
  88.8549645  72.6156101  88.9823741  88.4994178  72.3760000  90.0967711
  88.2518134  71.9223556  88.0096686  87.5934895  71.1939282  88.2465290
  88.4576366  72.1306862  87.0430580  90.2815093  76.2339662  88.0006162
  91.2591489  75.8837477  87.3289692  89.9697871  77.5219931  88.1660828
  89.2674619  77.7126398  88.8664345  90.5447628  78.6490820  87.4377056
  90.1789228  79.5095418  87.9979459  91.6137557  78.5293251  87.6138072
  90.3115325  78.8887837  85.9548908  90.9651549  79.7803376  85.3760993
  89.4170895  78.2005763  85.3291023  89.0408261  77.3975027  85.8124221
  88.9465710  78.4756641  83.9597649  89.4568022  79.3595737  83.5770545
  89.2255281  77.3049011  83.0183262  88.8417563  76.3953815  83.4804869
  88.6984621  77.4861192  82.0815971  90.7331448  77.1412025  82.7362555
  91.1232732  78.1062880  82.4129746  91.2206737  76.8455341  83.6652323
  91.0195934  76.0617520  81.6272015  90.9236575  75.0824442  82.0960848
  90.2527695  76.1736945  80.8606839  92.4163661  76.1876805  80.9799148
  92.5857985  75.2965709  80.3755002  92.4077171  77.0668346  80.3356226
  93.5313666  76.3229919  82.0074622  93.5398288  75.5082500  82.6043070
  94.4192134  76.4016063  81.5324382  93.3747858  77.1488889  82.5673511
  87.4532388  78.7886004  83.9121539  86.6504172  78.1308642  84.5202013
  87.0467566  79.8607439  83.1880672  87.7044486  80.5580634  82.8698125
  85.6390892  80.0642509  82.9064053  85.0966963  80.0495930  83.8517594
  85.3299074  81.4347326  82.1649691  85.6804916  82.1321158  82.9257888
  85.9909370  81.4796022  81.2994480  83.9092714  81.8141592  81.7415572
  83.4328311  80.9377824  81.3021610  83.0696422  82.3070820  82.9533076
  83.5452428  83.1837776  83.3929755  82.0659251  82.5685498  82.6182147
  83.0081602  81.5150555  83.6996415  83.8678762  82.8366751  80.6204748
  84.3746603  82.4351916  79.7429326  82.8308626  83.0601954  80.3699896
  84.3683385  83.7499394  80.9423206  85.1320638  78.8986130  82.0739947
  85.6385022  78.6376197  81.0052920  84.0648302  78.2685275  82.5163235
  83.9439473  78.2933070  83.5187568  83.1764331  77.4450499  81.7430989
  83.5975653  77.1964813  80.7689528  82.9872657  76.1307759  82.5527393
  83.9528672  75.6872551  82.7956431  82.5324138  76.5289131  83.4597655
  82.0682856  75.0571766  81.9477847  81.4656313  75.4850310  81.1466298
  82.9262815  73.9738421  81.3978807  83.5289360  73.5451607  82.1985920
  82.2974542  73.1976692  80.9617241  83.5821361  74.3836409  80.6297530
  81.3357000  74.4566145  83.1280166  80.7649827  75.2340556  83.6359206
  80.6572394  73.6787792  82.7776386  82.0564867  74.0238423  83.8217556
  81.8785006  78.3337206  81.3961156  81.3605122  79.0844430  82.2384184
  81.3822790  78.1592046  80.1325499  82.0365674  77.6708267  79.5379971
  80.1077162  78.6074567  79.5474758  79.4851551  78.9200031  80.3858263
  80.3254906  79.8144922  78.6204361  80.9397211  79.5149375  77.7712672
  79.3619029  80.1761737  78.2615691  80.8294622  80.6093278  79.1702982
  79.3530521  77.5322151  78.7493230  79.9327896  76.7557209  77.9972524
  78.0229192  77.4084139  78.8034389  77.6826672  77.5419777  79.7449742
  77.0827868  76.9304579  77.7863695  77.5968975  76.3683318  77.0067519
  76.1127967  76.0294995  78.4599504  75.5997749  75.4849233  77.6672685
  76.7041048  75.3331490  79.0545517  75.1404038  76.6769760  79.3048494
  74.5624975  76.0156727  79.6925376  76.4583908  77.9636100  76.8894412
  76.1463692  79.0579221  77.2311874  76.2143117  77.5591641  75.5882802
  76.1549065  76.5514122  75.5565544  75.9933524  78.3028525  74.3560405
  75.4319777  79.2277680  74.4882862  77.3631822  78.6178565  73.6534135
  77.8677804  77.6711318  73.4605578  77.1857590  79.3731993  72.3450373
  76.6816082  80.3203108  72.5371636  78.1622940  79.5656011  71.9006706
  76.5860572  78.7757118  71.6584038  78.3194307  79.3301032  74.5752614
  77.7825676  80.2124289  74.9236579  78.4778730  78.6483557  75.4108545
  79.6681147  79.7503239  73.9995332  79.5104863  80.4324934  73.1641304
  80.2531306  80.2507498  74.7711739  80.2057910  78.8684197  73.6513246
  75.1608830  77.4049544  73.3640976  75.6350800  76.6947583  72.5107069
  73.8633848  77.6058804  73.4552696  73.4627990  78.1316981  74.2189096
  72.9426935  76.8550194  72.5544365  71.9250916  77.0828595  72.8717288
  73.0776166  77.1843619  70.9982892  74.1351919  77.0807383  70.7556047
  72.5079354  76.4181822  70.4724261  72.5922153  78.5816516  70.5183372
  72.5066176  79.4625949  71.2840186  72.2912140  78.7476716  69.2886570
  71.9749449  79.6512955  68.9668844  72.3708253  77.9745790  68.6436060
  72.9775869  75.3504071  72.8408389  72.4242659  74.9302241  73.8597123
  73.5904791  74.6008479  71.9071911  73.8385844  74.9630772  70.9976126
  73.8356559  73.1453239  72.1850962  73.1442079  72.7952451  72.9515449
  73.6266483  72.3191267  70.9295847  72.6463797  72.5965075  70.5419864
  74.3973401  72.6338167  70.2259481  73.6889243  70.8698895  71.1035246
  73.5453822  70.4396028  70.2574461  75.2589861  72.8968738  72.7818513
  75.4998945  71.7871702  73.3070295  76.1914185  73.8706668  72.5810754
  75.8714047  74.6543664  72.0301621  77.5788011  73.8302427  72.9706423
  78.0600143  72.8570619  72.8734203  78.3780644  74.8781789  72.0986304
  77.8898364  75.8520085  72.1359089  79.7433393  74.9890658  72.6609260
  80.2323985  74.0156572  72.6235570  80.3197489  75.7073219  72.0778658
  79.6843367  75.3259614  73.6958756  78.2795443  74.4253486  70.7551663
  78.7514920  75.0302816  70.1781726  77.7502256  74.0383119  74.4991873
  77.2693883  75.0090350  75.0879641  78.6850095  73.3085974  75.0707991
  79.0364035  72.5203669  74.5460951  79.2380792  73.5487357  76.4750560
  78.8903299  74.4978762  76.8828573  78.7780228  72.3903012  77.4351464
  78.9023737  71.4243172  76.9457478  79.6492967  72.4409188  78.6915722
  79.5251162  73.4065038  79.1818027  79.3494854  71.6460614  79.3745182
  80.6949675  72.3063097  78.4148875  77.3328768  72.4863785  77.8190296
  76.7143544  72.4381009  76.9228146  77.0766844  71.6596915  78.4816410
  77.1547964  73.4313389  78.3322917  80.8273988  73.6072337  76.2334733
  81.4340038  72.6537967  75.7476027  81.4115919  74.8195857  76.4817230
  80.8064403  75.5405449  76.8479315  82.8590391  75.1741577  76.1900460
  83.4572229  74.2855967  75.9882175  82.8545882  76.0735055  74.9129933
  82.1860571  75.5475486  74.2314254  82.3784133  76.9943795  75.2496662
  84.1782471  76.4147236  74.1781006  84.8173492  76.9852709  74.8519886
  84.6778038  75.4854462  73.9042601  83.9046426  77.2366517  72.9176468
  83.0574835  77.9000159  73.0919120  84.7852376  77.8298392  72.6711096
  83.5837403  76.3404021  71.7495323  83.6688886  75.3583343  71.9695141
  83.2715069  76.6806652  70.5275449  83.3299364  77.9262234  70.0697634
  83.6298639  78.6721360  70.6811208  83.0741664  78.1216624  69.1124313
  82.8237767  75.8225227  69.6742137  82.7071089  74.8571468  69.9472306
  82.5921177  76.1202732  68.7373160  83.4866383  75.8516547  77.3844157
  82.8834415  76.3339265  78.3381985  84.7945551  75.6962285  77.4068537
  85.1147694  75.3533650  76.5124227  85.7816535  75.8769946  78.4758973
  85.2732568  76.2982622  79.3431721  86.4777217  74.5633177  78.9010281
  85.6245945  73.9724455  79.2344096  86.8618986  74.1514005  77.9678441
  87.5877748  74.5203364  79.9793619  88.4195530  75.1767840  79.7237795
  86.9196644  75.0195097  81.2694207  86.0880202  74.3632487  81.5259129
  87.6475848  75.0167584  82.0807314  86.5486484  76.0332197  81.1182937
  88.1621180  73.1101908  80.1235535  88.5885472  72.7919684  79.1722427
  88.9394400  73.1102925  80.8876684  87.3682725  72.4218972  80.4136575
  86.8182857  76.9163730  77.9859675  87.0502105  76.9136109  76.7454977
  87.3408147  77.8345167  78.8392163  87.0542719  77.8188068  79.8075891
  88.2934604  78.8994477  78.3991095  88.7185154  78.6880288  77.4179217
  87.4768483  80.1759605  78.3091771  87.1151752  80.3538825  79.3219138
  88.1333859  80.9928637  78.0096316  86.2626473  80.0980311  77.3291226
  86.4696521  80.3489395  75.9248348  87.4945246  80.5148997  75.5928815
  85.4106004  80.3849390  74.9914911  85.6111414  80.5274986  73.9296239
  84.0940052  80.1781646  75.4361735  83.1054419  80.2456493  74.4735368
  83.4483047  80.4303472  73.5960795  83.8773760  79.9773835  76.8258453
  82.8518662  79.9273228  77.1918017  84.9557808  79.8436320  77.7270798
  84.7709918  79.5357396  78.7562326  89.4729528  79.0562462  79.3557337
  89.2175043  79.4443256  80.4980447  90.7285013  78.9350128  78.8739272
  91.0487247  78.2470096  78.2074380  91.7202030  79.8317576  79.4790772
  91.7628764  79.6869731  80.5585751  93.1345103  79.5020055  78.8709396
  93.2510490  78.4184409  78.8507961  93.1646770  79.8891528  77.8524570
  94.2717784  80.1219397  79.6858094  94.1046169  81.1862617  79.8512681
  94.2003151  79.5915307  80.6353664  95.7153755  79.9039392  79.0662393
  96.6645387  80.3385717  79.7677211  95.8653104  79.2620216  78.0349918
  91.4457071  81.3270008  79.3733952  91.1707602  81.8302576  78.2826052
  91.5160090  82.0657224  80.5237508  91.4695897  81.6275299  81.4325588
  91.6357996  83.5309893  80.4610756  91.1676585  83.8755485  79.5390007
  90.9674531  84.2473811  81.6500696  89.8865555  84.2174757  81.5127185
  91.2353114  83.6841564  82.5440103  91.3239407  85.6694929  81.9192711
  92.1244611  86.2055103  82.8505538  92.6636372  85.5060280  83.4893913
  92.0843997  87.5621427  82.7888318  92.5012220  88.1361831  83.5077451
  91.4023300  88.0270846  81.6952162  91.2025078  89.3142298  81.1931114
  91.6619823  90.1565325  81.7103232  90.4061274  89.4388059  80.0310473
  90.2425695  90.4055588  79.5548775  89.8037465  88.2832109  79.4674646
  89.2178426  88.3462061  78.5504871  89.9489684  86.9878181  80.0923855
  89.2700861  86.2031820  79.7583709  90.8604479  86.8143202  81.1560582
  93.0995524  83.9419723  80.4292387  93.9027139  83.3653829  81.1525023
  93.4823138  84.9973817  79.6613053  92.7392662  85.5439497  79.2499137
  94.8714506  85.3757235  79.3656409  95.5278050  84.8670525  80.0717230
  95.2064164  84.8613730  77.8997829  96.2827210  85.0137604  77.8194915
  94.8420977  83.3680954  77.4387374  93.7658272  83.2150980  77.5183195
  95.1541265  83.2201606  76.4048842  95.3585264  82.6532892  78.0794044
  94.4526001  85.6533397  76.9922242  94.6319395  85.3680426  76.0933120
  95.1682944  86.8964449  79.4451907  94.2886092  87.7592571  79.5341288
  96.4818454  87.2169531  79.2856404  97.1207566  86.4636981  79.0746933
  97.0382613  88.5672508  79.4996932  96.3799846  89.0948302  80.1899330
  98.4285660  88.4725105  80.1268885  99.0064389  89.3823137  79.9643419
  98.1723309  88.2870833  81.6475703  97.5948663  87.3771709  81.8109523
  99.1256308  88.2106060  82.1705136  97.6164207  89.1431615  82.0299242
  99.2043282  87.3538251  79.6855245 100.0590452  87.3647907  80.1224902
  97.1092379  89.4793658  78.2826462  97.3953163  90.7036021  78.2810252
  96.6539988  88.9821855  77.1677049  96.6783954  87.9745303  77.1033993
  96.1673702  89.7408068  76.0115102  96.8760454  90.5238204  75.7417542
  96.0143466  88.8000102  74.8343808  95.0495109  88.3212542  75.0016646
  95.9455490  89.4634647  73.9722932  97.0677980  87.7374560  74.5723489
  97.2727843  87.2418861  75.5212914  96.5725455  87.0389976  73.8978269
  98.3390502  88.1884499  73.9676668  99.1786480  87.3388891  73.6064964
  98.5330856  89.3935071  73.7900367  94.8237398  90.4727026  76.2624444
  94.4213640  91.2314494  75.3681150  94.1360951  90.1959087  77.3695433
  94.5874209  89.5967619  78.0458771  92.7188573  90.5470542  77.5817835
  92.3882726  90.1969683  78.5596653  92.5415552  92.0973245  77.5206367
  92.9837258  92.4691187  76.5963243  91.4776264  92.3338800  77.5346791
  93.2586499  92.7917130  78.7716830  92.8405271  92.3879151  79.6937575
  94.3273062  92.5802557  78.7347844  93.0303565  94.3494282  78.7301694
  93.6184371  94.7301601  77.8951224  91.9705936  94.5055404  78.5285979
  93.4330768  95.1161562  80.0496244  93.1635165  96.1657060  79.9317980
  92.8709776  94.6881757  80.8796704  94.9312251  95.0040581  80.3372560
  95.4522519  95.4009679  79.5684300  95.1494508  95.5055669  81.1863534
  95.1811342  94.0316261  80.4468942  91.7577176  89.7195484  76.6169309
  90.9250930  90.2851920  75.9232158  91.9825368  88.3842453  76.6597689
  92.6486156  88.0253752  77.3288359  91.2923147  87.4274545  75.7808407
  90.3592413  87.8646869  75.4254523  92.1563286  87.0762209  74.5746190
  92.6254136  88.0059495  74.2526512  92.9220001  86.3896112  74.9357482
  91.4203721  86.4430947  73.3960583  92.1014258  86.0237509  72.6555063
  90.8364824  85.6409026  73.8473454  90.5167004  87.3982416  72.7437732
  90.9982364  88.3937181  72.1117244  89.2643281  87.1178502  72.7591749
  90.9509742  86.0695432  76.4974429  91.7722494  85.4668046  77.1344909
  89.7151048  85.6138976  76.3663706  88.9779637  86.2622893  76.1290724
  89.3381381  84.1788734  76.6737902  89.8956174  83.7904024  77.5260849
  87.8270395  84.1806990  77.0286757  87.3329120  84.4472241  76.0943837
  87.6217099  83.1360736  77.2625509  87.2776779  85.1030468  78.1997344
  87.8658624  86.0178904  78.2718531  85.8197085  85.4567548  77.8657527
  85.2307635  84.5423791  77.7939225  85.4100776  86.0913650  78.6516110
  85.7828509  85.9877195  76.9145333  87.3787725  84.2362025  79.5142239
  88.4180511  83.9563266  79.6864709  87.0140756  84.8165664  80.3617351
  86.7741294  83.3360241  79.4038405  89.6680580  83.1898250  75.5990977
  88.8934917  83.0671936  74.6308779  90.7439172  82.4204707  75.6093481
  91.4029804  82.6757414  76.3308548  91.0914670  81.2947291  74.7041465
  90.9679670  81.5699916  73.6567318  92.5669340  80.9631735  74.9526758
  93.1015230  81.8761430  75.2149744  92.6420332  80.2501536  75.7736891
  93.1840791  80.3557790  73.6925620  92.6611491  79.4318138  73.4457151
  93.0838475  81.0609507  72.8674629  94.6928966  80.0498197  73.9335032
  95.1022099  79.5655813  73.0468945  95.2204606  80.9869264  74.1112857
  94.9037672  79.1467100  75.1160532  95.5302801  79.5122008  75.8189027
  94.4541600  77.9054044  75.2522697  93.9538572  77.1981297  74.3366488
  93.8699013  77.5724703  73.4023466  93.6393653  76.2605096  74.5417413
  94.4047870  77.4107377  76.4364505  94.7035931  77.9661762  77.2253124
  94.0673899  76.4686360  76.5732209  90.1939301  80.0079837  74.9371268
  90.1618781  79.5298118  76.0884762  89.5329039  79.4718853  73.9466886
  89.4743964  80.0332860  73.1091294  88.8412672  78.1582257  73.9632741
  88.0235563  78.1251222  74.6832409  88.2367943  78.0801673  72.5113535
  89.0402794  78.2095502  71.7862521  87.5728477  76.7593599  72.2885560
  86.7688912  76.6294536  73.0130406  87.1613534  76.7245344  71.2798148
  88.3035257  75.9597180  72.4101416  87.3096521  79.0285092  72.3468089
  86.9480841  78.9719596  71.4593006  89.7622756  76.9611765  74.2918189
  90.8335864  76.7325625  73.7040650  89.3963420  76.2916391  75.3691932
  88.5055684  76.5079115  75.7932781  90.2535103  75.2477384  76.0126921
  91.2828725  75.4265222  75.7019688  90.1996518  75.2316950  77.5545831
  90.5530225  76.2113286  77.8763692  89.1471666  75.1218101  77.8159264
  91.0253568  74.1270065  78.2619640  90.7452075  74.1638146  79.3147044
  90.7378999  73.1624408  77.8435374  92.6451073  74.3216206  78.1214525
  93.4453206  73.8283448  78.9102381  92.9821121  75.0334995  77.1620244
  89.7714054  73.8648155  75.4561623  90.5678298  72.9664221  75.2248281
  88.4076391  73.6100205  75.3824955  87.7944076  74.4117198  75.3460985
  87.8129674  72.2759834  75.2798478  88.2966926  71.6884212  74.4995403
  88.0193992  71.5673296  76.6271680  89.0350393  71.6886060  77.0038196
  87.3096498  71.9053875  77.3821995  87.7572404  69.7822787  76.4544361
  87.9987520  69.4824636  77.7274959  86.2909698  72.3936193  75.0574966
  85.6094149  73.2716137  75.6309169  85.7400409  71.4362256  74.3462051
  86.2503026  70.6123608  74.0616368  84.4029794  71.6430036  73.8031449
  83.8334454  72.3060830  74.4543406  84.4960389  72.2871923  72.4024655
  85.0894368  73.2010647  72.3739072  84.9947362  71.5124396  71.8200917
  83.1231629  72.5722418  71.7680822  82.6561218  73.6922361  72.0089354
  82.5433596  71.7573074  70.9103065  81.6405829  71.9942733  70.5243774
  83.0043809  70.8994374  70.6426890  83.5016988  70.3525660  73.8225875
  83.9817429  69.2934866  73.4306903  82.3491670  70.5013354  74.3010300
  82.1409879  71.3618381  74.7871328  81.2909588  69.4733604  74.2116788
  81.6782808  68.6051373  73.6785095  80.8300576  69.0362225  75.5658448
  81.6161011  68.5502999  76.1438708  80.5539942  69.9749140  76.0462065
  79.6004668  68.1249465  75.6450950  78.2768391  68.5347573  75.8560893
  77.5811047  67.3927134  76.0262106  76.5159216  67.4661527  76.2455064
  78.3715363  66.3333857  75.8861794  78.1004415  65.3622189  75.9448518
  79.6378673  66.7789294  75.6447426  80.4476639  66.0647822  75.4953286
  80.1627335  70.1557611  73.4083370  79.8725128  71.3452146  73.5954132
  79.3562395  69.3664477  72.7219553  79.5219145  68.3720916  72.7844619
  78.3568050  69.8482856  71.7533001  78.0688038  70.8800293  71.9549422
  79.0126581  69.7837989  70.3642140  79.8416067  70.4915492  70.3699511
  79.4000497  68.7722903  70.2422375  78.0875341  70.1059844  69.2255293
  77.4105777  71.3738308  69.1731226  77.5428153  72.1052877  69.9703576
  76.5831104  71.6628577  68.0957377  76.0371360  72.6062629  68.0962800
  76.2954726  70.6728737  67.1097669  75.4912768  70.9999210  66.0925142
  75.1798658  71.9069100  66.1371663  76.9987846  69.4469496  67.0983935
  76.8897895  68.7262272  66.2879740  77.8749038  69.1644629  68.1942234
  78.3936769  68.2071484  68.2444593  77.0031016  69.1546091  71.8537045
  75.9533534  69.6975850  71.5165473  76.9258873  67.9250692  72.3727032
  77.6700370  67.6095565  72.9783369  75.7848845  67.0346291  72.1534319
  75.2921520  67.2101194  71.1971281  76.4015122  65.6087370  72.1398988
  77.2532569  65.4949791  71.4693101  76.7339116  65.4928321  73.1714882
  75.3946318  64.5221082  71.8313237  74.7308495  64.6761421  70.7869709
  75.3407977  63.4349063  72.5236263  74.6578501  62.7270539  72.2942199
  75.9818537  63.2967112  73.2917735  74.7177687  67.0989358  73.3267356
  74.6479156  66.2922558  74.2673280  73.7563026  68.0058093  73.1069531
  73.8401107  68.4368382  72.1973984  72.7005425  68.4352690  73.9638783
  72.4526203  67.6836480  74.7133446  73.2422347  69.7465388  74.7125778
  73.6173689  70.5427691  74.0696230  72.3957875  70.1160781  75.2914283
  74.3635334  69.3311883  75.6886194  74.2585283  68.5058901  76.6116989
  75.5399241  69.8211883  75.4108591  76.3287557  69.5978092  76.0007289
  75.6565468  70.4217138  74.6071993  71.4661946  68.7134732  73.1473383
  71.5802475  68.9220739  71.9595847  70.2759232  68.7223977  73.7141896
  70.1966156  68.1185622  74.5199143  69.0621402  69.3413276  73.1912838
  69.0895182  69.2812920  72.1032832  67.7189985  68.7186981  73.7160027
  67.6275541  68.8384297  74.7955409  66.6069262  69.4712066  73.0314253
  66.6974390  69.3515555  71.9517996  65.6450883  69.0780503  73.3606619
  66.6728557  70.5290030  73.2860213  67.7122462  67.2108095  73.3991299
  68.1024498  67.0675563  72.3914988  68.3601630  66.7043221  74.1145136
  66.2932467  66.6232157  73.4874979  65.6448189  67.1289236  72.7720254
  66.3255489  65.5581119  73.2581300  65.9025311  66.7656916  74.4950403
  69.2832468  70.8053179  73.4169858  69.2914169  71.6357662  72.5287409
  69.4473879  71.1891038  74.6587406  69.3611367  70.4964947  75.3887767
  69.6557702  72.5752448  75.0448221  70.3868176  73.0408152  74.3838280
  68.3643130  73.3377685  74.9456008  67.9180954  73.0805331  73.9849661
  67.7229746  72.9798678  75.7510151  68.5102646  74.8409966  75.0474112
  69.1905780  75.0220065  75.8795831  68.9806340  75.1617063  74.1178952
  66.9919347  75.7896840  75.3035838  65.9377274  74.9341239  74.1365843
  65.8666182  73.8823450  74.4137190  64.9434725  75.3806653  74.1491821
  66.3603451  75.0177288  73.1353322  70.2754063  72.6939710  76.4640135
  69.6201360  72.5083406  77.4552930  71.5830090  73.0041741  76.5810576
  71.9882169  73.1290742  75.6643756  72.4361226  72.9832882  77.6835760
  72.1512526  72.0744710  78.2136699  73.8982407  72.8565626  77.2457334
  74.2008992  73.7629554  76.7213766  74.5299393  72.7168001  78.1229583
  74.0059696  71.9996130  76.5808041  72.1250897  74.1500922  78.6885243
  72.9481022  75.0602600  78.9368988  70.9647624  74.1403042  79.3527214
  70.3405098  73.3517446  79.2600838  70.4513825  75.3620824  79.9711177
  70.7952675  76.2393133  79.4231138  68.9320733  75.3368695  79.9433147
  68.6152667  74.8394747  79.0266189  68.7177892  74.6944032  80.7973752
  68.1795053  76.6460048  80.0941397  68.5656721  77.1898121  80.9562590
  68.3636669  77.4800991  78.8499094  67.9772865  76.9371054  77.9873742
  67.8229453  78.4202419  78.9587780  69.4239659  77.6862130  78.7036783
  66.6348672  76.3799297  80.1808698  66.4225492  75.7466267  81.0422338
  66.1078566  77.3279288  80.2888456  66.3001313  75.8802175  79.2718381
  71.0760326  75.7841250  81.3096550  71.4056876  76.9536983  81.5467118
  71.2679975  74.7638371  82.1767358  71.0771251  73.8229655  81.8630040
  71.8398833  74.9423214  83.4729846  72.0343923  75.9997191  83.6523599
  70.8841427  74.4374953  84.5383233  70.8955709  73.3518788  84.4413426
  71.3221868  74.7208923  85.4953518  69.4863000  74.9242607  84.4718664
  69.1971292  76.3020349  84.2088101  70.0111092  77.0228955  84.2855945
  67.9033561  76.7352913  83.8589042  67.7832068  77.7183835  83.4037165
  66.8310340  75.7881658  83.8103718  65.6004432  76.2497831  83.5168809
  65.5811792  77.1979403  83.3677952  67.0507724  74.4797891  84.3829505
  66.2244516  73.8005464  84.5925305  68.3660574  74.0919934  84.6692124
  68.5665357  73.0974901  85.0677997  73.0908358  74.0440925  83.6309295
  72.9574182  72.8277260  83.4385305  74.2192698  74.6722088  84.0950971
  74.1596568  75.6778399  84.0226280  75.4858170  74.0811231  84.5375378
  75.4613487  73.0024274  84.3828891  76.6668696  74.6652338  83.7424406
  76.6860980  75.7051110  84.0686078  77.5818463  74.1673390  84.0634056
  76.5614832  74.6092199  82.1538610  75.7026805  75.1713697  81.7870556
  77.8504284  75.2603559  81.6484064  78.7097169  74.6984522  82.0144476
  77.8547233  75.2606745  80.5584145  77.9064311  76.2864886  82.0117463
  76.3480598  73.1829964  81.5724644  75.4220139  72.7642902  81.9664486
  76.2876194  73.2384423  80.4855541  77.1847202  72.5450319  81.8572443
  75.6600333  74.2103966  86.0538577  75.3658167  75.2504643  86.6760866
  76.2394381  73.2124639  86.6823435  76.2193784  72.2899308  86.2716981
  76.8725313  73.3762272  88.0267581  77.1264958  74.4243375  88.1850811
  75.9037604  72.9222029  89.1591445  75.5918314  71.9234321  88.8537652
  76.5431434  72.8494748  90.0389172  74.6751273  73.7574657  89.4927096
  74.0722641  73.8662857  88.5911471  74.0962601  73.2368781  90.2556010
  75.0823721  75.1762598  90.0233508  75.4882583  75.1235844  91.0335887
  75.8073018  75.6558352  89.3656398  73.7661338  76.0056791  90.0362539
  74.0137216  77.0359801  90.2917549  73.3321925  75.9739565  89.0368602
  72.7858071  75.4737736  91.0188204  73.1875521  75.5034816  91.9450051
  71.9478556  76.0372131  90.9970659  72.5559281  74.5192213  90.7819987
  78.1426504  72.5984374  88.0280119  78.3150468  71.6802237  87.2645440
  79.1030740  72.9098713  88.9386498  78.9943410  73.7647640  89.4653707
  80.3734439  72.1772559  89.0527983  80.3221839  71.1221781  88.7839443
  81.4625265  72.8551742  88.1886312  82.2516928  72.1056775  88.1288697
  81.1188349  73.3767142  86.7329729  80.3300132  74.1266335  86.7919735
  82.0084753  73.8203266  86.2859304  80.7811729  72.5425794  86.1179086
  82.0796208  73.9567373  88.9171656  82.7522307  74.3664397  88.3682210
  80.8619285  71.8810236  90.5091078  80.3776945  72.5220623  91.4807208
  81.8179792  70.9655299  90.6280422  82.1259643  70.4913839  89.7911252
  82.3339767  70.5301168  91.8767999  82.5376979  71.4089274  92.4885913
  81.4004890  69.6321395  92.6257181  80.4142795  70.0916479  92.6916137
  81.3198449  68.6713296  92.1173472  81.9475262  69.4223254  94.0072713
  82.8887050  68.8932542  93.8577153  82.1507834  70.4252908  94.3825698
  81.0558490  68.6307786  95.0641187  80.0400319  69.0200072  94.9954477
  81.0614972  67.5790131  94.7780120  81.5586805  68.7703597  96.5012754
  81.7086342  69.8272196  96.7218692  80.8094134  68.3610433  97.1788875
  82.8210169  68.0514457  96.6786516  83.5155616  68.4308608  96.0511553
  83.1364348  68.1553164  97.6324977  82.6821850  67.0720421  96.4747072
  83.7021958  69.9033242  91.6199739  83.7558763  68.8874810  90.9331806
  84.8108058  70.5084486  92.1527154  84.8053992  71.2663504  92.8202893
  86.1179050  69.9872211  91.6932978  86.8587047  70.6419634  92.1522397
  86.1930301  68.9916469  92.1306620  86.3977893  69.8939487  90.1925210
  86.0476098  70.7331587  89.3724291  86.9218622  68.7325911  89.7944881
  87.4775142  68.2424947  90.4808960  86.9916575  68.2792380  88.3710326
  87.1837826  69.1000743  87.6800804  88.1685398  67.3213541  88.3256061
  87.8360308  66.5735850  89.0455910  88.1164414  66.9048309  87.3196766
  89.6579062  67.7351569  88.6470029  90.5747089  66.8753525  88.7868250
  89.9649893  68.9205906  88.8146337  85.6772115  67.8353480  87.6067830
  85.7610642  67.2493795  86.5163928  84.4730990  67.9605833  88.2279965
  84.5640796  68.0673386  89.2282091  83.1719140  67.5736850  87.6883111
  83.2893444  67.3881220  86.6206615  82.5753974  66.3130537  88.3446576
  82.0617641  65.6452003  87.6531000  83.4797083  65.8285014  88.7128026
  81.6441100  66.4904528  89.5600894  80.2194702  66.5856618  89.4179785
  79.7228929  66.6517444  88.4499166  79.4520706  66.5915055  90.6102896
  78.3890775  66.8111721  90.5108261  80.0038697  66.3295280  91.8863662
  79.4144071  66.2538273  92.8000966  81.3897964  66.1646189  91.9338347
  81.8101298  65.8740819  92.8966474  82.2468144  66.3551261  90.8098746
  83.3274380  66.3900126  90.9482052  82.1752688  68.7245224  87.3682837
  82.2130547  69.8169534  87.9083759  81.2999959  68.4107613  86.3303746
  81.3280458  67.4534877  86.0095322  80.3506231  69.3494536  85.6697436
  80.1184022  70.2098403  86.2973640  80.8933825  69.8534281  84.2567719
  81.2169119  68.9812594  83.6886603  79.8109816  70.6258607  83.4489158
  79.4872722  71.4984843  84.0162260  80.2294439  70.9478408  82.4953338
  78.9568708  69.9731573  83.2684382  82.1113538  70.6755569  84.2742056
  81.8211634  71.7261927  84.2667956  82.6638648  70.4582023  85.1883107
  82.9892326  70.3855269  83.0723302  82.4375229  70.6031014  82.1577934
  83.8818987  71.0095865  83.1147097  83.2802225  69.3351098  83.0793074
  79.0352833  68.5856976  85.4747769  79.0399903  67.5592930  84.8626230
  77.9946099  69.1506771  86.1226859  78.1162450  69.9139210  86.7728882
  76.6074291  68.5868343  85.9324763  76.6343285  67.5850535  85.5037446
  75.9772126  68.5067609  87.3192948  76.6998526  67.9689313  87.9329966
  75.8545957  69.5184839  87.7059234  74.6129405  67.7686633  87.3608598
  74.0622843  67.9283251  86.4338287  74.9090456  66.2752148  87.5276386
  75.4593190  66.1146999  88.4547487  73.9716714  65.7199701  87.5613095
  75.5071741  65.9266326  86.6857163  73.6806089  68.2128504  88.4361987
  73.4552928  69.2715742  88.3079952  72.7575976  67.6359211  88.3787192
  74.1463553  68.0562562  89.4091619  75.8006657  69.4268094  84.9784011
  75.8864908  70.6170000  84.9952331  75.0780181  68.7941170  84.0858067
  75.0716226  67.7892872  84.1876671  74.3712682  69.3814571  82.9434105
  74.3966580  70.4704036  82.9840337  75.0240960  68.9115392  81.5832620
  74.9720109  67.8255716  81.5054107  74.2392236  69.5583023  80.3919191
  74.2912532  70.6443399  80.4688364  74.6825740  69.2397387  79.4484902
  73.1969014  69.2415268  80.4282428  76.5163904  69.3224944  81.5539504
  77.0393808  68.8534892  82.3873875  76.9648974  68.9975535  80.6151456
  76.5970810  70.4061987  81.6386547  72.8940609  69.0769071  82.9475164
  72.5255237  67.9919496  82.6095273  72.0029737  70.0797241  83.3110044
  72.4494846  70.9191264  83.6517845  70.5448516  70.0461583  83.2532619
  70.1621861  69.0536750  83.4912599  70.1050640  70.7769409  83.9319688
  70.1434564  70.4077066  81.7875058  70.1078429  71.5670484  81.4587152
  70.1413443  69.3874170  80.9059988  70.6609199  68.5708078  81.1945989
  69.5911127  69.4195621  79.5332494  69.9353445  70.2919591  78.9777973
  70.1121008  68.1537202  78.8323395  71.1043027  67.9382291  79.2288218
  69.4347774  67.3385122  79.0868370  70.1914909  68.2959925  77.2978914
  70.9128303  67.4406907  76.6686837  69.5793471  69.1949801  76.7100630
  68.0710207  69.6094903  79.4830035  67.3457039  68.6680398  79.9096890
  67.5242400  70.8079814  79.1215870  68.1787210  71.4587485  78.7113967
  66.1770142  71.2446662  79.3370447  66.0418663  71.4594214  80.3970987
  65.8268959  72.5385366  78.5133472  66.5632036  73.2621530  78.8631036
  66.0069283  72.3173209  77.4613244  64.4307488  73.1171026  78.6774197
  63.7346456  72.3698621  78.2964040  64.0573535  73.4759028  80.0864595
  64.7527798  74.2234923  80.4680235  63.0451754  73.8800361  80.1029682
  64.1026007  72.5850725  80.7129373  64.1820327  74.3622693  77.8352954
  64.3109761  74.1198398  76.7804490  63.1658667  74.7186679  78.0040791
  64.8910728  75.1403505  78.1180511  65.0622284  70.2395068  79.0657144
  64.0636094  70.1654959  79.7924003  65.1963576  69.4357019  77.9776895
  66.0102239  69.5918445  77.4003331  64.1678109  68.4152687  77.5135807
  63.3351915  68.3411440  78.2131160  63.6208898  68.9098908  76.1378110
  63.6820794  69.9977915  76.1090523  64.2405442  68.4905696  75.3451583
  62.2301838  68.4940648  75.9415542  62.1030236  67.5370455  76.4475633
  61.5971805  69.2430210  76.4174465  61.7286016  68.3137617  74.1528421
  62.6049670  66.7927887  73.7758025  62.2481588  65.9959344  74.4283438
  62.4261174  66.5179193  72.7363025  63.6734258  66.9398168  73.9335355
  64.7133151  67.0085646  77.4677789  64.1694789  66.1956252  76.7800808
  65.7917419  66.7797345  78.1966503  66.1491566  67.5237978  78.7786503
  66.5588847  65.5007813  78.1324891  65.8674079  64.6605763  78.0691285
  67.4721503  65.4773419  76.9018704  67.0808944  66.1934919  76.1792728
  68.4685622  65.7872897  77.2168239  67.5496188  64.0906391  76.2553661
  68.3617726  64.0917250  75.5283821  67.7599036  63.3565419  77.0331731
  66.2452845  63.7309335  75.5579353  65.4833141  63.6188295  76.3292541
  65.9827947  64.5649933  74.9071337  66.2877248  62.4527705  74.7224545
  66.8735720  62.6207325  73.9170532  65.7471230  61.2886851  74.8587813
  65.0380199  61.0374572  75.9041718  64.9104992  61.7509710  76.6075469
  64.6128292  60.1281227  76.0156315  65.8771968  60.3221396  73.9779472
  66.4240878  60.4745348  73.1426114  65.4296688  59.4313961  74.1404075
  67.3880073  65.2018116  79.3949913  68.3366479  64.4282350  79.4400500
  66.9029801  65.7505210  80.5345319  66.2715758  66.5192869  80.3600986
  67.3023781  65.4661110  81.9516392  66.8223301  66.1694587  82.6320472
  66.8429246  63.9949403  82.3352058  66.8580423  63.3263241  81.4744950
  67.4536096  63.5728156  83.1333127  65.5103142  64.1473397  82.7910095
  65.1588874  63.2906878  83.0444785  68.8386110  65.7647318  82.2184499
  69.2980913  66.8389986  81.8389217  69.4540242  64.9605040  83.0158848
  68.9983418  64.0811939  83.2140429  70.7036743  65.2388944  83.6608517
  70.8483634  66.3176546  83.6021939  70.6264357  64.8396574  85.1194476
  70.8011511  63.7706079  85.2407196  71.7205958  65.6178503  85.8403764
  71.5462874  66.6870609  85.7199343  71.7083031  65.3654124  86.9006709
  72.6908929  65.3584603  85.4168885  69.3005678  65.2349806  85.8917707
  68.4441566  64.7642763  85.4089672  69.3664620  64.8951271  86.9253360
  69.1777102  66.3178732  85.8730493  71.8052964  64.4705897  82.9296952
  71.6735593  63.2682357  82.6091642  72.8572228  65.1555831  82.5429706
  72.7701118  66.1611915  82.5074372  74.1080919  64.5607670  82.1278460
  74.0509752  63.4736283  82.0733806  74.3672615  65.1012105  80.7394697
  73.6799269  64.5304682  80.1150311  74.0333655  66.1374177  80.7932120
  75.7377533  65.0500299  80.1465027  76.4586065  65.4173208  80.8769606
  76.0813893  63.6441989  79.7711035  75.3611960  63.2763530  79.0402753
  77.0820607  63.6170098  79.3398051  76.0517913  63.0128673  80.6591602
  75.7909324  65.9388287  78.9022600  75.5538564  66.9662176  79.1786047
  76.7910281  65.9008281  78.4704431  75.0658516  65.5835337  78.1700563
  75.2472714  64.8988669  83.1080844  75.3629514  65.9947651  83.6410003
  76.1365770  63.9066239  83.4641677  76.0002952  62.9873380  83.0686428
  77.2986787  64.1217963  84.3562393  77.1727807  65.0640102  84.8896077
  77.4389944  62.9854101  85.3896046  76.6111451  62.9928887  86.0986243
  77.3800137  62.0889087  84.7724283  78.7544849  62.9917813  86.1479231
  79.5422927  63.0108300  85.3948648  78.9496850  64.1426843  87.1108437
  78.1624635  64.1240241  87.8645233  79.9204008  64.0490911  87.5977236
  78.9069942  65.0851232  86.5648704  78.7322485  61.7495719  87.0571665
  78.6370297  60.8525079  86.4453584  79.6582878  61.7013927  87.6300812
  77.8856622  61.8140970  87.7407066  78.5269718  64.1106394  83.4372483
  78.7175116  63.1405298  82.6408011  79.3625985  65.1531741  83.4265072
  79.1043743  65.9228829  84.0273132  80.5736039  65.2671141  82.6516164
  80.7316378  64.4856207  81.9083852  80.2381900  66.5878582  81.9170401
  79.1483669  66.5910949  81.8976898  80.5923914  67.4072687  82.5425061
  80.7757361  66.7647843  80.4892984  81.8004874  66.3933632  80.4949438
  79.9718957  66.0390949  79.3895149  78.9470883  66.4103433  79.3829489
  80.4318226  66.2262875  78.4191919  79.9682961  64.9674423  79.5886332
  80.8696224  68.1980913  80.0712057  81.5411493  68.7303738  80.7448722
  81.2559077  68.2557109  79.0535786  79.8803146  68.6540034  80.1101052
  81.8571177  65.3568367  83.4994225  81.8626339  65.7756832  84.6649023
  83.0152781  65.0144821  82.9199893  82.9758250  64.6257413  81.9886337
  84.3351053  65.2360856  83.5271218  84.3198409  65.9094604  84.3841123
  84.8773727  63.9027216  83.9721202  84.9073204  63.2202878  83.1227162
  85.8844027  64.0333494  84.3682605  84.2332661  63.4885082  84.7477833
  85.2945701  65.7840363  82.4870894  85.2038682  65.4132233  81.3614741
  86.3002675  66.6049827  82.8718449  86.1179052  67.0828763  83.7427416
  87.5033995  66.9649178  82.1221217  87.3963603  66.7935677  81.0510097
  87.6740499  68.4492583  82.3595722  86.7457455  68.9297797  82.0506233
  87.8488615  68.6442568  83.4176443  88.8280067  69.0072048  81.5449237
  88.7912424  68.9823847  80.1326732  87.9325617  68.5833928  79.5926986
  89.9270942  69.5021185  79.4026414  89.8733085  69.6158526  78.3199256
  91.0547720  69.9557665  80.0995455  92.1963558  70.3327460  79.3613681
  92.0790534  70.2356784  78.4135192  91.0380812  69.9165438  81.4507790
  91.9679917  70.2360497  81.9211863  89.9672523  69.5159869  82.2340545
  90.0248414  69.5987247  83.3193830  88.6451474  66.0661566  82.5073088
  88.9438049  66.0280207  83.7233082  89.2624210  65.4422550  81.5045382
  88.8745944  65.6758522  80.6016970  90.3118993  64.4654068  81.5619834
  90.6505567  64.3898469  82.5952796  89.8766011  63.0505801  81.0760106
  89.6022482  63.1457751  80.0254071  90.7476465  62.4015397  81.1661573
  88.6623370  62.4221592  81.8852361  88.9955756  62.1193297  82.8778827
  87.8608806  63.1548918  81.9794313  88.1363415  61.1724322  81.1090943
  87.2337853  60.8366213  81.6197039  87.8813451  61.5059084  80.1031768
  89.1420591  60.0071968  81.0242855  90.1291509  60.4129160  80.8026048
  89.1674620  59.4966767  81.9870020  88.7647759  59.0708734  79.9936129
  88.7415964  59.5436351  79.1013916  89.4382919  58.3190297  79.9588663
  87.8503238  58.6944869  80.1990626  91.5015413  65.0099173  80.7355010
  91.6485007  64.6450741  79.5366021  92.3785300  65.8272766  81.3940634
  92.2732458  66.2688887  82.8296302  92.4676443  65.3892338  83.4432397
  91.2452705  66.5976776  82.9821548  93.2645732  67.3658083  83.0666079
  93.7263803  67.2559547  84.0478140  92.7777351  68.3388802  83.0016377
  94.3094623  67.1885688  81.9223069  95.1171748  66.5268670  82.2351174
  94.7278993  68.1346682  81.5789325  93.5134519  66.5386933  80.8053498
  93.1237394  67.2984099  80.1278151  94.4472026  65.5997319  80.0356126
  94.9090681  65.9775059  79.0247002  94.6754793  64.3487420  80.5222213
  94.3053186  64.1188950  81.4334023  95.5389119  63.3787945  79.8630158
  96.5141772  63.8238810  79.6658996  95.7243970  62.2061800  80.7125572
  94.7540187  61.7183896  80.8048917  96.4172108  61.5410902  80.1970336
  96.2661484  62.5263723  82.1014763  97.1836767  63.0892354  81.9299309
  95.5209313  63.1777224  82.5580904  96.6299124  61.0871121  83.2671074
  97.3371947  61.9711200  84.7055895  96.6020003  62.6733982  85.0985188
  97.6020724  61.2517393  85.4804649  98.2292613  62.5153517  84.3955408
  95.1137206  62.9805358  78.4800434  95.8467131  63.2624694  77.4865323
  93.8635871  62.4724968  78.3658668  93.5101487  61.9900788  79.1797793
  93.1107349  62.3958245  77.1519434  93.6444048  61.8555225  76.3700422
  91.8594218  61.6293268  77.4992857  92.0306077  61.0711246  78.4197230
  91.0425444  62.3351677  77.6496187  91.5053599  60.6896926  76.4112476
  91.4466840  61.4319352  75.6151735  92.2923815  59.9717157  76.1805848
  90.1467464  59.9479771  76.5278119  89.8993642  59.0068150  75.7051473
  89.2299076  60.3447039  77.2283421  92.8980690  63.6882660  76.4077807
  92.7641812  63.6513279  75.2045020  93.0051247  64.8443293  77.0974378
  93.1867109  64.7465784  78.0861595  92.8803564  66.2213388  76.5332981
  93.1406936  66.9519253  77.2991749  93.5564806  66.3283208  75.6850586
  91.4368761  66.4832284  76.0602860  91.2808415  67.1237862  75.0145882
  90.3963345  66.0662132  76.8063755  90.5486498  65.6009437  77.6897914
  88.9911106  66.1933893  76.3038051  88.8543448  67.2185207  75.9595669
  88.6268625  65.2273384  75.1433005  87.5405861  65.3082649  75.1038834
  89.0501829  65.5614385  74.1960534  88.9952991  63.7787246  75.3519720
  89.3452357  63.0760704  74.3769323  88.8368913  63.2443178  76.5103818
  89.0823299  62.2751582  76.6538719  88.4677513  63.7961534  77.2715085
  88.0808846  65.9874058  77.5676343  88.4026707  65.3298182  78.5185776
  86.9067915  66.6382564  77.4949981  86.8947604  67.4839098  76.9428885
  85.6399779  66.2283860  78.2024234  85.8127563  66.3311490  79.2737247
  84.3973664  67.0464177  77.8253785  84.2370500  67.0655511  76.7474027
  83.5523326  66.5566055  78.3092193  84.3871058  68.5030764  78.2955584
  84.7560685  68.7304382  79.6076883  84.9194115  67.9270225  80.3259794
  84.9214222  70.0826544  80.0057131  85.3253609  70.2637271  81.0017789
  84.5913074  71.1563255  79.1823909  84.6828542  72.1856362  79.5291452
  84.1542831  70.9042127  77.9430827  83.8404867  71.7543066  77.3373003
  84.0890974  69.5675070  77.4003140  83.8221863  69.4164184  76.3543548
  85.2650604  64.7356477  77.9672991  85.7596799  64.0759364  77.0131353
  84.4301573  64.1177503  78.7783974  84.0414314  64.7344366  79.4774607
  83.9934925  62.6825212  78.7741214  84.0542477  62.2821371  77.7621428
  84.8846500  61.8497037  79.6800675  85.9029067  61.9300556  79.2995468
  84.8346357  62.2860695  80.6776564  84.4812845  60.3775947  79.7476876
  84.8006650  59.9497291  80.6979654  83.3922542  60.3921311  79.7040867
  85.0532718  59.4859234  78.5402280  84.4695588  59.4091354  77.4413391
  86.1574960  58.9305708  78.7573303  82.5467352  62.8121433  79.3306260
  82.2421985  63.3620510  80.4260332  81.7133270  62.0147997  78.6446208
  81.8495171  61.7329665  77.6843492  80.3796345  61.7155121  79.2989458
  80.0546229  62.5402091  79.9332497  79.3576216  61.5278222  78.1813219
  79.6914931  60.6731780  77.5929237  78.4090735  61.2889021  78.6622311
  79.1738764  62.7324286  77.2673252  79.0531235  63.6906654  77.7725993
  80.1216390  62.7229963  76.7290351  78.0473451  62.5332905  76.2985160
  77.6213285  63.5176427  75.6627757  77.6107322  61.4265111  75.9567170
  80.4969994  60.5934550  80.3332806  80.6127700  59.4549020  79.9325661
  80.4148550  60.9626146  81.6546187  80.3357951  61.9203068  81.9655442
  80.4374091  59.9102790  82.6600430  81.1097839  59.0838043  82.4299323
  80.8106626  60.5106416  84.0378698  80.0508758  61.2590273  84.2631322
  80.8997080  59.4919461  85.2124486  81.6596681  58.7434605  84.9881037
  81.1669152  60.0166788  86.1297035  79.9349542  59.0016857  85.3428098
  82.1304801  61.3451450  83.9636289  81.9343447  62.2567061  83.3991043
  82.4353561  61.6047395  84.9774143  83.2675640  60.5408348  83.2704338
  82.9635828  60.2812644  82.2563734  84.1723137  61.1476226  83.2338872
  83.4645926  59.6292960  83.8346826  79.0462025  59.2393410  82.7743206
  79.0154674  58.0321993  82.9104093  77.9345593  60.0082670  82.7360823
  77.9992760  61.0120014  82.6442763  76.6569059  59.4344285  82.9563711
  76.7041560  58.5042462  82.3901313  76.4007318  59.0962266  84.4394382
  76.3417892  60.0181582  85.0179431  75.4620997  58.5497254  84.5311259
  77.2170317  58.4814779  84.8186975  75.4394539  60.2890050  82.3923890
  75.4590142  61.5004903  82.3628473  74.3060413  59.6665264  82.1334443
  74.2765851  58.6763550  82.3304019  73.1551794  60.2761257  81.4473396
  72.9932967  61.2715549  81.8608778  73.3600162  60.4038514  79.9062186
  74.1675435  61.1202507  79.7553179  73.6737162  59.4229859  79.5490140
  72.1041997  60.8653185  79.1157523  72.2960275  60.6440185  78.0658336
  71.2710996  60.2572797  79.4683644  71.7663363  62.2962904  79.2634332
  70.6789385  62.3676548  79.2873526  72.1725766  62.6240280  80.2203325
  72.2658860  63.1710363  78.2233174  72.9963579  62.7886933  77.6399445
  71.9096744  64.4469883  78.0452482  71.0827856  65.0571212  78.7792868
  70.6495071  64.5761444  79.5545488  70.8587428  66.0231105  78.5875342
  72.3889918  65.0787808  76.9586853  72.9932782  64.5855740  76.3170584
  72.1424135  66.0434831  76.7894300  71.8895036  59.5697458  81.7925455
  71.6259565  58.4125104  81.4713489  71.0552270  60.2789949  82.5082160
  71.3697392  60.9996574  83.1421143  69.5876458  59.9818480  82.4420188
  69.4551445  58.9270896  82.2011300  68.8591465  60.2798781  83.7704911
  69.3364092  59.6563178  84.5264620  69.0371152  61.3301793  84.0013474
  67.3648017  60.0100078  83.7619627  66.8039336  59.5491805  82.7479321
  66.7014578  60.2663510  84.7899588  69.0188998  60.8231687  81.2830755
  69.3217394  62.0117986  81.2607122  68.3744302  60.2430666  80.3065856
  68.1901706  59.2513384  80.3577990  67.8842676  60.9857819  79.1295701
  68.5308078  61.8154533  78.8436847  67.9148767  59.9165715  77.9953121
  67.5728121  59.0335251  78.5350528  67.2232470  60.1350047  77.1816565
  69.2138309  59.5535767  77.3643803  69.5410038  60.1040896  76.1064270
  68.8589987  60.8386057  75.6781106  70.7035113  59.7332535  75.4082508
  70.9652552  60.1442244  74.4332156  71.5541628  58.7779767  76.0285696
  72.4304151  58.4028971  75.4998002  71.2550966  58.3018178  77.3676432
  72.0204999  57.7550767  77.9183993  70.0013362  58.5367800  77.9540420
  69.6839050  57.9492980  78.8155535  66.4708553  61.5619302  79.2270012
  66.0176057  62.1444175  78.2832203  65.6335706  61.1937863  80.2491291
  66.0707357  60.6105655  80.9482997  64.2250707  61.3779007  80.3096912
  63.7138087  60.8205396  79.5247969  63.7616032  60.8382859  81.6798542
  64.1574247  59.8230646  81.6524645  64.2585891  61.4002588  82.4706080
  62.2712074  60.7717291  81.9924520  61.5952650  61.6622578  82.5279197
  61.7011321  59.6174033  81.7519897  60.7150812  59.4968737  81.9344067
  62.2502140  58.8531292  81.3852542  63.7304237  62.7527511  79.9518088
  64.1648921  63.7537473  80.5427890  62.7166714  62.8789110  79.0800771
  62.0990398  61.8339628  78.2271665  61.6146483  61.1187560  78.8919555
  62.9059390  61.3385211  77.6872126  61.0833608  62.5459890  77.2644677
  60.0854722  62.6344314  77.6939969  61.0172724  62.0625862  76.2897599
  61.7554880  63.8891241  77.1538952  61.0774488  64.6601311  76.7879580
  62.6590699  63.8815078  76.5443205  62.1301271  64.1753685  78.6801061
  62.9200183  64.9263281  78.6952670  60.9787154  64.6142882  79.6341719
  59.7748827  64.3791095  79.3640097  61.3247372  65.2693320  80.7814354
  62.2478515  65.1070956  81.1577845  60.4006229  66.1268212  81.5435286
  59.3581078  65.8981188  81.3222671  60.6665453  65.8262332  83.0394999
  60.1383466  66.6838099  83.4562344  60.2261256  64.9066102  83.4247586
  62.1140438  65.8899639  83.4778095  62.8047050  66.8582561  83.1037407
  62.6010093  64.8491790  84.0026147  63.5629745  64.8452118  84.3103597
  62.0260299  64.0260447  84.1119285  60.7019947  67.6060859  81.0546782
  61.0799205  67.8066374  79.9447087  60.4314777  68.6205261  81.9081117
  59.7943247  68.4680388  82.6768008  60.8750933  69.9463540  81.6536366
  61.7017661  69.9771965  80.9438761  59.6578926  70.6714011  81.0275733
  58.8235997  70.6523852  81.7287816  59.9350678  71.7052147  80.8214100
  59.1419347  70.0916238  79.7228402  58.2787220  69.0759348  79.6409567
  57.8985398  68.6500613  80.5695002  58.0557317  68.7844765  78.3129614
  57.3317420  68.1223585  78.0730899  58.6978453  69.5951958  77.4424161
  58.6620931  69.8673435  76.1043621  58.0137803  69.2158656  75.5183879
  59.4399295  70.9468361  75.5449587  59.4450874  71.1179256  74.4684821
  60.1873169  71.7774924  76.3593020  60.7965947  72.6102128  76.0079379
  60.1521021  71.5153900  77.7760756  60.6872525  72.2717790  78.3501753
  59.4306121  70.4760191  78.3718703  61.4995307  70.5553614  82.8849680
  60.7665865  71.0492684  83.7680737  62.8253396  70.7018804  82.9239284
  63.2721091  70.3430568  82.0922181  63.6648196  71.1649404  84.0084605
  63.3532457  70.7588610  84.9708120  65.0616369  70.6540828  83.6950022
  64.9990109  69.7053839  83.1619474  65.5936011  71.3808082  83.0810117
  65.8252894  70.4475451  85.0296501  65.6681175  71.3749698  85.5803599
  65.2928886  69.6361821  85.5259784  67.6281702  70.0594867  84.9976289
  67.4366147  68.3677440  84.3827604  66.9374498  68.3870510  83.4139670
  68.4182283  67.9060760  84.2759990  66.8386551  67.7899717  85.0875474
  63.5907024  72.6321344  84.2687110  63.9986411  73.4848579  83.4503935
  63.3703976  72.9926870  85.5698842  63.0641502  72.2628284  86.1972743
  63.4211941  74.3788011  86.0794149  63.4002401  75.0881370  85.2520681
  62.1853454  74.6393936  86.9895284  62.1301212  75.6994907  87.2370029
  61.2765423  74.3410079  86.4668977  62.3120175  73.8998215  88.1537463
  61.5514068  74.0580412  88.7176947  64.7966479  74.6578623  86.7756165
  65.1595356  75.8256469  86.7871308  65.4645013  73.6373006  87.3929774
  65.0712556  72.7074386  87.3644504  66.6983467  73.8470915  88.1568153
  67.2909732  74.5671724  87.5925667  66.1972885  74.5528291  89.5366892
  65.6100228  73.8411266  90.1169467  67.0628990  74.8688848  90.1188641
  65.5831676  75.4214128  89.2989559  67.6108987  72.6419320  88.4834336
  67.1003550  71.5606876  88.5937819  68.8963292  72.7792052  88.6923561
  69.2827133  73.7031606  88.5615396  69.8093280  71.6880062  89.0698252
  69.3596293  70.8717051  89.6350886  70.4534786  71.1019960  87.7739984
  69.7472590  71.3719746  86.9888458  71.8940687  71.5236769  87.3451414
  72.6009612  71.2535844  88.1296501  72.1635285  71.0110146  86.4217405
  71.9250057  72.6012820  87.1841695  70.4068017  69.5848758  87.8191626
  69.3703100  69.2546270  87.8878845  70.8573184  69.1798551  86.9130210
  70.9592221  69.2295923  88.6890512  70.9603161  72.0564784  90.0333576
  71.4238269  73.2357912  90.1079836  71.4207636  71.0181140  90.7858292
  70.9080247  70.1551273  90.6742406  72.3678090  71.1207903  91.8865546
  73.2443282  71.6730344  91.5476743  71.7632298  71.8549309  93.1200876
  71.2064891  72.6753653  92.6672893  71.0648912  71.1212821  93.5228067
  72.6791161  72.4206339  94.2993007  72.1153258  72.8158774  95.1443001
  73.3313409  71.6174214  94.6421588  73.5295395  73.5423885  93.6814589
  74.6010189  73.1918946  93.1383732  73.0769067  74.6972715  93.7044126
  73.1809156  69.8708181  92.3078483  72.8886984  68.7208684  92.0553535
  74.3330404  70.0771261  92.9431225  74.5921346  71.0079982  93.2371405
  75.2322909  68.9527837  93.2962298  74.8616106  68.0411276  92.8276379
  76.6246903  69.3168231  92.6950530  76.8666823  70.3293748  93.0179759
  77.7666529  68.3415569  93.1371607  77.5255764  67.3288111  92.8141613
  78.7072793  68.6530083  92.6829352  77.8633585  68.3628263  94.2226536
  76.5495131  69.1996283  91.1270965  76.4779140  68.1388289  90.8869320
  75.6376677  69.7057426  90.8101016  77.7210652  69.7929636  90.4153219
  78.6332925  69.2870120  90.7314773  77.5929791  69.6715394  89.3397060
  77.7930474  70.8539259  90.6546490  75.4037377  68.8123480  94.8488018
  76.0725489  69.6163960  95.5423488  74.6633915  67.8797800  95.4795049
  73.9694038  67.3562919  94.9652671  74.7299644  67.7053605  96.9165755
  74.5776622  68.6483229  97.4416710  73.5716582  66.7167032  97.3123311
  73.8663983  65.7956532  96.8094451  73.5279417  66.5448746  98.3878142
  72.1447141  67.1692422  96.7915344  72.1716781  67.3135761  95.7114689
  71.1471428  66.0925438  97.1290488  71.1192778  65.9479545  98.2090563
  70.1589930  66.3887686  96.7770380  71.4401667  65.1605679  96.6456665
  71.7487030  68.5452502  97.3126745  72.4785639  69.2838000  96.9810923
  70.7638605  68.8103804  96.9281066  71.7199992  68.5272857  98.4021480
  76.0790647  67.2827395  97.5041425  76.6010366  67.7404699  98.6251194
  76.8293146  66.4073094  96.8841560  76.2819921  66.1245979  96.0837739
  78.1097807  65.8511694  97.0457230  78.8537702  66.6245214  97.2367873
  78.0585123  64.8889794  98.2822144  79.0099664  64.4439226  98.5733481
  77.7454227  65.6051790  99.0419071  77.0163066  63.8064670  98.1523713
  77.3593907  62.7248739  97.6596670  75.9334611  63.9792711  98.7225698
  78.5963121  64.9806209  95.8187162  78.0957591  65.1174726  94.6819786
  79.6686767  64.1905938  95.9775278  80.0530373  64.1790964  96.9114626
  80.3875222  63.4821020  94.9255062  80.5908064  64.1278038  94.0711972
  81.7477734  63.0278370  95.5423190  81.2923638  62.6728028  96.4667929
  82.2755536  62.2057740  95.0588311  82.7270258  64.1408493  95.8569447
  82.3766945  65.3054278  95.6096052  83.9407489  63.9287485  96.0725705
  79.6038774  62.3582865  94.2706248  79.8221145  62.1080792  93.0688782
  78.5240717  61.9020005  94.9048745  78.2688168  62.4060303  95.7420712
  77.6874491  60.7487514  94.4963993  78.0845422  60.2646302  93.6041869
  77.7101097  59.7842366  95.6029596  77.6105554  60.4083239  96.4910492
  76.9981843  58.9605984  95.6566470  79.1142857  59.2317705  95.5309813
  79.5699679  58.7530811  94.4803399  79.7528724  59.0789756  96.5722280
  76.2118891  61.1649126  94.2051045  75.4112365  60.3001017  93.7496557
  75.8339308  62.4273423  94.5744156  76.5208429  63.1067172  94.8688656
  74.4326602  62.7941468  94.6392317  73.8646894  62.0969499  94.0232569
  73.8546467  62.7626345  96.0923348  74.6451518  63.3383519  96.5737395
  72.8859315  63.1917332  96.3483916  73.9074361  61.3190411  96.6194661
  73.0503110  60.4941138  96.4677114  74.8064526  61.1113134  97.5123729
  74.9116192  60.1906291  97.9140945  75.4041766  61.8695874  97.8087633
  74.2683131  64.1654351  94.0055881  74.8105486  65.1486591  94.5295131
  73.3348788  64.2489142  93.0461104  72.8420264  63.3847182  92.8718663
  72.9515945  65.4254200  92.2859076  73.4145246  66.3225136  92.6970255
  73.4412459  65.2395833  90.8260530  72.6808762  64.7075865  90.2542868
  73.6489420  66.1978349  90.3499058  74.7261877  64.4114731  90.7233735
  75.9732822  64.8743402  91.2424443  76.0668233  65.9160597  91.5493161
  77.0841225  63.9960779  91.3614163  77.9359831  64.3057430  91.9668431
  77.0975412  62.7588451  90.7213414  77.9821104  62.1219512  90.7194919
  75.9185704  62.3353400  90.0604016  75.9318048  61.3789013  89.5377641
  74.7150688  63.1395593  90.0676101  73.8127901  62.7746440  89.5768658
  71.3941198  65.5767378  92.2617531  70.7654084  64.6301573  91.8515478
  70.8546525  66.7683109  92.6048311  71.5652516  67.4544881  92.8153286
  69.4760774  67.1809130  92.6393573  68.7723305  66.3548529  92.7416526
  69.4241214  68.0577119  93.9604926  69.6695345  67.2949990  94.6995059
  70.1742654  68.8479047  93.9917876  68.0502902  68.6474803  94.2747965
  67.7860809  69.3582990  93.4918335  66.9746170  67.5351498  94.3462687
  67.2379162  66.8241531  95.1293753  66.0053792  67.9802057  94.5712220
  66.9225594  67.0172613  93.3885725  68.1072791  69.5473201  95.4795826
  68.8016468  70.3658305  95.2898626  67.1149942  69.9520913  95.6786612
  68.4465350  68.9767570  96.3441415  68.9712609  68.0644613  91.5115081
  69.5502998  69.0921254  91.1760586  67.8135155  67.7141086  90.9825237
  67.3919124  66.8439628  91.2744083  67.0893767  68.5510231  89.9625865
  67.5711776  69.5262924  89.8931820  67.1358843  68.0536102  88.9938157
  65.6398762  68.7445448  90.3472588  65.0806502  68.0140677  91.1997812
  65.0319601  69.6115279  89.5517123  65.5423278  70.1010963  88.8306389
  63.6111299  69.8758349  89.6895538  63.1111445  68.9417404  89.9456424
  63.4219166  70.8758015  90.8590114  63.9094277  71.8192791  90.6134855
  62.3580323  71.0486340  91.0214291  63.8650653  70.4635681  91.7655334
  62.9147213  70.5016411  88.4441652  63.6339267  71.0152437  87.5496307
  61.5988609  70.3175668  88.2808681  61.0378331  70.0579416  89.0795807
  60.9486787  70.4051934  86.9783233  61.4320183  71.1384878  86.3327527
  61.0866709  68.9965441  86.3230874  60.6842427  69.0920429  85.3146079
  62.1559864  68.7921968  86.2691746  60.3898695  67.8557785  87.0390761
  60.7751308  66.8978162  86.6898157  60.7159727  68.0256420  88.0651864
  58.8394265  67.8398097  86.9854810  58.2992055  67.6763248  85.8530350
  58.1210690  67.8673866  88.0355791  59.4753607  70.8497324  86.9106838
  58.9313102  71.2614045  87.9254124  58.8575115  70.9909995  85.7169016
  59.4402809  70.6773428  84.9539478  57.6531677  71.7607742  85.3994289
  57.7121747  72.7262543  85.9018883  57.4825328  72.0070598  83.8570619
  58.4327948  72.2941156  83.4068393  57.1644801  71.0465186  83.4517188
  56.3990256  73.0952147  83.4861236  56.5464626  74.2492091  83.8151908
  55.3880503  72.6472766  82.7382497  54.6526351  73.2800519  82.4574302
  55.3631960  71.6776441  82.4566544  56.3414308  71.3430623  86.1226787
  55.3566135  72.1050376  86.1497772  56.3326405  70.1335313  86.6609337
  57.1609155  69.5769396  86.5051595  55.1848277  69.5031588  87.3289169
  54.3293154  70.1582949  87.1646165  54.8768771  68.1302798  86.7136384
  55.7207828  67.4602950  86.8780876  53.9856789  67.7130802  87.1824778
  54.7052762  68.2416072  85.6430037  55.3986067  69.4532034  88.8732863
  54.5142179  68.9006902  89.4856837  56.4762973  70.0890030  89.4037870
  57.2233973  70.2750344  88.7500796  56.7119520  70.3860985  90.8595665
  57.4950608  71.1430898  90.9020395  55.5223921  70.8774499  91.6497982
  54.8899067  70.0631064  92.0032188  55.9070658  71.4349430  92.5038050
  54.6404383  71.8050391  90.8998509  55.1343110  73.0179631  90.3877619
  56.1709501  73.2961909  90.5776792  54.2970008  73.8763884  89.6302433
  54.7030120  74.8033379  89.2252492  52.9739690  73.5441710  89.4042069
  52.2998277  74.2559469  88.9277527  52.5073354  72.2988962  89.7870656
  51.5290168  71.9642255  89.4421187  53.2834443  71.4676449  90.6136999
  52.8491567  70.5624710  91.0381459  57.3709447  69.1982699  91.5867149
  57.1473999  69.0710846  92.8007370  58.1726074  68.3577470  90.9190396
  58.1770909  68.3919924  89.9096306  58.9570800  67.3015884  91.5864987
  58.6157147  67.1329236  92.6078317  58.7464587  66.0266204  90.7873984
  59.1405441  66.2229309  89.7902735  59.3458052  65.2538358  91.2687380
  57.3135005  65.5200062  90.6542704  56.8654062  64.7176670  91.4668480
  56.6352119  65.9600823  89.6803979  55.6818086  65.6520936  89.5528645
  57.0506604  66.6170993  89.0355476  60.4622109  67.6862201  91.7725643
  61.1150621  68.1753037  90.8733465  61.0163083  67.5163056  92.9852679
  60.3732367  67.6161359  93.7576617  62.4280074  67.2073833  93.2855407
  63.0983444  67.8582049  92.7241328  62.6641308  67.4492628  94.8268888
  62.0863878  66.6534103  95.2969218  63.7244079  67.1994702  94.8658261
  62.4206375  68.7725510  95.5778743  61.3960887  69.1308791  95.4778661
  62.6897229  68.3855906  97.0514003  63.7142944  68.0275782  97.1522920
  62.5458186  69.2580126  97.6887951  61.9989116  67.5981558  97.3527749
  63.3616385  69.9658867  95.2644547  63.2867650  70.2203715  94.2072267
  63.0704338  70.8267134  95.8663505  64.3896694  69.6900340  95.4993094
  62.7576574  65.7606876  92.9457991  62.0821203  64.8894562  93.5388644
  63.9576989  65.5001542  92.3908867  64.3394884  66.3636970  92.0322366
  64.6782486  64.2586675  92.1191795  64.4262575  63.5090106  92.8692556
  64.2908232  63.7171782  90.7342752  64.8477924  62.8157866  90.4785846
  63.2235958  63.4955579  90.7374880  64.5249856  64.7049837  89.6097018
  65.8122836  64.5553193  88.9691135  66.4473785  63.7391370  89.3134983
  66.2644604  65.4212532  87.9269602  67.2641569  65.3536672  87.4978452
  65.3611774  66.3903136  87.4557586  65.6634590  67.0410713  86.6352465
  64.0584042  66.5294911  88.0386880  63.3830304  67.2925766  87.6518148
  63.6423989  65.6865202  89.1098470  62.6470269  65.8015607  89.5389158
  66.1358845  64.3246557  92.2865238  66.8266226  65.2516769  91.9301385
  66.7453386  63.1768194  92.7238161  66.1899612  62.3389158  92.8216574
  68.1709217  63.0861923  92.9566910  68.7123498  63.9416221  92.5527175
  68.5311682  62.9362316  94.4665322  68.1420222  61.9722082  94.7941350
  70.0255033  63.0084632  94.7636501  70.4152995  63.9724542  94.4367230
  70.1892739  62.8954485  95.8353345  70.5413316  62.2091775  94.2315175
  67.9329557  63.8243341  95.4947698  66.8486180  63.7138257  95.4846841
  68.3162601  63.5521481  96.4781782  68.1941332  64.8600345  95.2774870
  68.6165763  61.8003733  92.2983815  68.0866259  60.7498273  92.5951433
  69.5953408  61.9347166  91.4126490  69.9328112  62.8787563  91.2901660
  70.1293480  60.9107667  90.5731974  69.5961804  59.9783457  90.7587308
  69.9831528  61.2797546  89.0470124  70.2847035  60.4628138  88.3914408
  68.9718691  61.5958803  88.7911416  71.0724443  62.6865878  88.6367694
  70.7372803  62.7516994  87.3513419  71.5830919  60.6955500  91.0356599
  72.1271909  61.4528458  91.8567886  72.1757812  59.5244703  90.6872482
  71.7186875  58.8403550  90.1014573  73.4786725  59.1976550  91.2393894
  74.0178360  60.0935876  91.5471342  73.2330911  58.3078472  92.4956863
  72.8736580  58.9939448  93.2626134  72.4289093  57.6299534  92.2095888
  74.3820719  57.5182591  93.0331689  74.2541011  56.6330075  92.4102292
  75.3224359  58.0075890  92.7794487  74.4369303  57.0905436  94.4667979
  74.3710192  55.9268216  94.8231305  74.3870968  58.0186420  95.3233765
  74.4198526  57.7953795  96.3078471  74.3147628  58.9790433  95.0192410
  74.3709524  58.5165430  90.1812968  73.8395111  57.7114211  89.4228933
  75.6747821  58.7382937  90.1713174  76.0715832  59.4864495  90.7216911
  76.5430852  57.9965075  89.3083088  76.0411131  57.8114226  88.3586421
  77.8417459  58.7690303  89.0345390  78.4444575  58.1571801  88.3633629
  77.5648741  59.6951712  88.5308475  78.6424235  59.0914349  90.2788816
  78.0197072  59.7051471  90.9297907  78.8766750  58.1525697  90.7806390
  79.9138400  59.8229566  89.9692558  80.4606676  59.3996155  89.1267233
  79.7683671  60.8910336  89.8075505  80.7123182  59.6066200  91.2550964
  80.0223956  59.7661860  92.0837374  81.0394202  58.5668693  91.2504084
  81.8746445  60.4828429  91.4125924  81.5717151  61.4463316  91.4173936
  82.3397293  60.2717884  92.2839432  82.5142695  60.3348340  90.6450819
  76.7042056  56.6315040  90.0604601  76.9065628  56.6279673  91.2259802
  76.6180383  55.5561220  89.3391454  76.4681321  55.6252452  88.3427271
  76.5972779  54.2427602  89.9466022  77.2632696  54.2071006  90.8087406
  75.2069891  53.9481429  90.4051005  75.0223642  54.9069088  90.8896423
  74.5121042  53.8214055  89.5749363  75.0049658  52.8240454  91.4116334
  75.9807807  52.3761249  92.0686771  73.8923735  52.2459348  91.4013672
  77.2042782  53.2329307  88.9131361  76.4889981  52.8866406  87.9784413
  78.4639122  52.8053838  89.1781190  78.9845522  53.3347148  89.8628393
  79.2037384  51.8885211  88.2945444  78.6253128  51.6474127  87.4026982
  80.4749178  52.5884831  87.8712263  80.2113174  53.4759570  87.2958967
  81.0255211  52.8851388  88.7639365  81.2879143  51.7311054  87.0752683
  82.0877324  52.1959649  86.8187600  79.2184961  50.4433756  88.7870032
  80.0406795  49.6129692  88.4102172  78.3488973  50.1171558  89.7293241
  77.7651098  50.8996336  89.9882063  78.1753578  48.8863406  90.4242370
  79.1003689  48.5282643  90.8761606  77.1672935  49.1645222  91.5332020
  76.2325941  49.5152502  91.0956784  76.9835636  48.2492497  92.0958918
  77.5638307  49.9282773  92.2021830  77.7141485  47.7817849  89.4579950
  78.2857310  46.6496279  89.5065639  76.8013525  48.0714780  88.5447215
  76.3599762  48.9543782  88.7586689  76.2413623  47.2585792  87.4574936
  75.7044295  46.4610193  87.9710114  75.1716178  48.2194401  86.7419065
  75.6945967  49.0180424  86.2157625  74.5821653  47.6413751  86.0302276
  74.5110799  48.6519171  87.4934068  77.2176708  46.5351814  86.5215693
  78.4160370  46.7859324  86.4569053  76.5952027  45.6001641  85.7684875
  75.6007052  45.4601263  85.8755557  77.3561576  44.6862916  84.8096890
  78.4240229  44.8822430  84.9064672  77.0981674  43.1953644  85.1177689
  77.6455981  42.5730863  84.4098212  77.5605182  42.9003198  86.4948532
  77.0131714  43.5219301  87.2034516  77.3821586  41.8490948  86.7211561
  78.6266984  43.1126672  86.5740307  75.7130448  42.9395704  85.0153982
  75.5436694  42.0139693  85.2055953  77.1657488  44.8007026  83.2588923
  77.5801662  44.0198565  82.4234172  76.5939408  45.8950966  82.8616087
  76.1508634  46.4179878  83.6034757  76.4644313  46.4080203  81.4493759
  77.0978349  45.8741932  80.7409073  75.0354770  46.2590700  81.0211031
  74.9843789  46.7259397  80.0374761  74.4609294  44.8717694  80.9474213
  74.5112609  44.4044003  81.9308502  73.4214297  44.9251669  80.6238656
  75.0329397  44.2784673  80.2340508  74.1740066  47.0295246  81.9109528
  73.2598134  46.9323997  81.6345151  76.9772555  47.8807820  81.4248761
  76.6163992  48.6996869  82.2953331  77.7338704  48.2769466  80.4182797
  78.1091286  47.5588710  79.8152474  78.1399310  49.6814900  80.1753153
  78.7770499  50.0446180  80.9817375  78.9276484  49.7401723  78.8661428
  78.1358668  49.4456470  78.1773498  79.2593094  50.7505727  78.6269943
  80.1411724  48.7427174  78.7288822  81.2076612  49.1769541  79.1635971
  80.0761755  47.6780824  78.0848094  76.9673924  50.6592678  80.1667198
  77.0612728  51.7215281  80.7983388  75.9063167  50.3038233  79.5073552
  76.1116734  49.5181006  78.9068822  74.5896483  50.9355653  79.3982071
  74.6712202  51.9109882  78.9186287  73.6816009  50.0458441  78.5457887
  74.0897896  50.0945642  77.5362801  73.8078850  49.0374761  78.9399286
  72.1134947  50.4153944  78.5091636  71.5469034  49.7374845  77.8707958
  71.8570718  50.2307319  79.5523540  71.7714730  51.8550885  78.1499474
  70.5530560  52.2311303  78.3542815  72.6772926  52.6598586  77.8255712
  74.0351508  51.3096137  80.7547255  73.6697173  52.4911873  80.9827765
  73.8065309  50.3483358  81.6514249  73.9511150  49.3871713  81.3769116
  73.3483820  50.6113619  82.9750649  72.4483734  51.2241328  82.9241196
  73.0104061  49.2807532  83.7628376  72.4040287  48.6435254  83.1191401
  73.9455088  48.7729247  83.9990432  72.2378784  49.5751792  85.0729110
  73.0275228  49.6368346  85.8217509  71.7594873  50.5490683  84.9690781
  71.2244823  48.5665982  85.5009328  70.0772224  48.9631347  85.8532217
  71.6412089  47.4151055  85.5226921  74.3517576  51.3652227  83.7868569
  73.9697280  52.3487833  84.4723458  75.6585638  50.9479207  83.7009583
  75.9318808  50.1633149  83.1266841  76.7183048  51.6707101  84.4610250
  76.5658214  51.5498332  85.5335159  78.1119986  51.0832982  84.0869889
  78.0205024  50.8483104  83.0265605  78.7930497  51.9247005  84.2147060
  78.6817586  49.8189616  84.8619394  78.4741359  49.9087261  85.9282114
  78.2235414  48.9072740  84.4785795  80.1953117  49.7611099  84.6402607
  80.6090465  50.7638904  84.7468146  80.6395040  49.1040230  85.3879433
  80.5357565  49.2494502  83.2994137  80.9416999  49.8746904  82.6179564
  80.4232073  47.9408048  82.9865609  80.0458935  46.9588634  83.7135337
  79.7787803  47.1191553  84.6742923  80.0167840  46.0276619  83.3235132
  80.6425155  47.6555091  81.7212403  80.8741200  48.3945126  81.0729092
  80.5782691  46.6987900  81.4039710  76.7117969  53.1639205  84.1146371
  76.9614896  53.9123743  85.0480590  76.3367418  53.5769865  82.9081148
  76.5102786  52.8554533  82.2230059  76.1269306  54.8978797  82.4515654
  76.5964363  55.6132585  83.1267666  76.7529201  55.0555925  81.0559577
  77.0574416  56.0993839  80.9793717  77.6371549  54.4182651  81.0494198
  75.8549073  54.6962701  79.8643116  76.3468788  54.6609320  78.8922951
  75.5247180  53.6948587  80.1404500  74.6241209  55.6065464  79.7581470
  74.6952252  56.7688663  79.4908091  73.4684536  55.0305282  79.7916320
  72.6281651  55.5869488  79.7252036  73.4105732  54.0264346  79.8840824
  74.8102580  55.6911738  82.6828140  74.8055740  56.8937497  82.5070435
  73.7086696  55.1181848  83.1513292  73.5772626  54.1336834  82.9680574
  72.6240185  55.8518916  83.7548417  72.2359544  56.6499613  83.1219197
  71.5443958  54.7916921  83.9174608  71.4323426  53.9249270  83.2661072
  71.7916103  54.4585299  84.9254231  70.2508889  55.4173844  83.9963152
  69.7968085  56.4217845  83.1631908  68.5596401  56.7066348  83.5721159
  67.9246047  57.3985119  83.0188212  68.3285547  55.9988104  84.7129100
  67.4543115  55.9849558  85.2184857  69.4129588  55.3350298  85.0597718
  69.4745271  54.8669257  86.0422122  72.9723270  56.6746747  85.0309589
  73.8936018  56.2735234  85.7933212  72.2093067  57.7385126  85.2797939
  71.5980453  58.1009491  84.5620901  72.2163002  58.3826378  86.5482705
  73.1374634  58.1743310  87.0924815  72.1235094  59.9237707  86.2937450
  71.3191239  60.1902382  85.6081370  71.8913569  60.3011894  87.2896167
  73.4329939  60.5429447  85.8072524  73.7989449  59.9949258  84.9390036
  73.1818955  61.9962031  85.4216171  72.8163394  62.5450065  86.2895356
  74.1115802  62.4460138  85.0731096  72.4379633  62.0382143  84.6260668
  74.4513847  60.6609452  86.9325746  74.6680841  59.6704052  87.3325387
  75.3691307  61.1055287  86.5476212  74.0471669  61.2915123  87.7244660
  70.9737782  57.8238849  87.2297741  69.8295890  58.2775118  87.0007264
  71.1308916  56.9085451  88.1838278  72.0823466  56.7350876  88.4749380
  70.0283095  56.1414473  88.8582430  69.3387210  55.7982024  88.0870427
  70.5164820  54.9026847  89.6796631  71.1538762  55.2674206  90.4851415
  69.6376624  54.4171597  90.1039763  71.2807193  53.9139089  88.8452982
  71.8928159  54.6144832  88.2772892  71.9269905  53.2540985  89.4241641
  70.4778215  53.0743719  87.8733930  69.2588040  53.1754696  87.6660920
  70.9964768  52.0308168  87.3058366  70.4445165  51.4839809  86.6605369
  71.9501298  51.7694327  87.5115688  69.2387334  57.0185948  89.8854965
  69.8528456  57.7065678  90.7243591  67.8934555  57.1376164  89.8766547
  67.4341098  57.0982923  88.9780144  67.1404218  57.6668920  91.0208647
  67.5151608  58.6656883  91.2446411  65.6557216  57.7534157  90.7745986
  65.1968198  58.3499928  91.5630174  65.4805779  58.2302862  89.8102235
  65.0308595  56.3352684  90.7702922  65.7375324  55.5054541  90.7813605
  64.4769322  56.3526347  91.7088880  64.0427937  56.1557078  89.5914186
  64.3481633  56.3623247  88.4307754  62.9578662  55.6192886  89.8344121
  67.5444818  57.1325247  92.4015356  67.6043971  55.9114322  92.5555656
  67.7748137  58.0635857  93.3649206  68.0452783  58.9646775  92.9975220
  67.9447100  57.8211154  94.7818329  67.4655983  56.9441707  95.2171710
  69.4257245  57.8170726  95.1771840  69.5103158  57.4568070  96.2024412
  70.2898498  56.8687112  94.2019112  70.2061171  57.2286477  93.1764671
  71.3355792  56.8876266  94.5088195  69.9131309  55.8475238  94.2598849
  70.0011680  59.1510329  95.3910265  69.4606540  59.6564342  96.1913490
  71.0511871  59.0543522  95.6670922  69.9194106  59.7339023  94.4735954
  67.0756937  58.5602545  95.7764223  66.8708662  57.9578839  96.8734552
  66.6510983  59.7717004  95.4589593  67.0023856  60.3267426  94.6917405
  65.5901733  60.3356505  96.2945617  65.1041676  59.5301844  96.8451269
  66.0289678  61.0429306  96.9983469  64.5315792  61.0696704  95.4369894
  64.8945710  61.8879037  94.5770521  63.2029894  60.7985917  95.5837119
  62.9239833  60.2098838  96.3555137  62.1431914  61.3752066  94.7197972
  62.5486706  62.1340784  94.0506190  61.5660276  60.2377739  93.8761588
  61.0383191  59.5042998  94.4857807  60.8497857  60.7769689  93.2561859
  62.5801706  59.5206120  92.9783745  63.3472672  59.0457504  93.5900690
  61.8478453  58.4594069  92.1694534  61.0808461  58.9335930  91.5571148
  62.5567247  57.9396695  91.5248886  61.3807907  57.7439348  92.8462547
  63.1294735  60.4594923  91.9092519  63.6246194  61.3048878  92.3869928
  63.8463509  59.9231709  91.2875225  62.3105720  60.8223509  91.2880974
  61.0065159  61.9263648  95.5726979  60.6015108  61.2572988  96.5258015
  60.4090757  63.0514199  95.2294411  60.6316648  63.4122860  94.3127464
  59.5612425  63.8155960  96.0625052  58.7626794  63.1766578  96.4395386
  60.3261568  64.4210160  97.2726381  60.8973472  63.6459477  97.7836274
  61.0100792  65.1596166  96.8545241  59.5294123  65.1215103  98.3171911
  59.0434535  64.3499496  99.3184853  59.2401287  63.2814140  99.2310178
  58.3386098  64.8356328 100.4014628  57.9266458  64.1857284 101.1734801
  58.1609326  66.2254896 100.4857408  57.7209351  66.7003647 101.3626649
  58.5752162  67.0182282  99.3808216  58.3110306  68.0748910  99.3387511
  59.3250801  66.4398180  98.3431749  59.7419151  67.0683242  97.5562007
  58.8299594  64.9299611  95.3338670  59.3417601  65.8942261  94.7387762
  57.5166091  64.8581247  95.4277572  57.1043055  64.0354959  95.8441548
  56.6199731  65.8662531  94.8386976  57.0887812  66.3485763  93.9809783
  55.3276797  65.1517110  94.3608301  55.3122355  64.0905844  94.1120908
  54.8806884  65.3004928  95.3437659  54.4200043  65.8451120  93.3616573
  53.1380464  65.4371456  92.9077592  52.8648548  66.1937535  91.8612986
  51.8583441  66.1355863  91.4469899  53.9559586  66.9422816  91.4815365
  54.0765921  67.5269473  90.6668504  54.8632902  66.7528274  92.4156978
  55.8131522  67.2854364  92.3688909  56.3182468  67.0655063  95.7720818
  55.4240532  67.0822730  96.6647098  57.1567313  68.1178835  95.6071850
  57.8441442  67.9768116  94.8807818  57.2308118  69.3101762  96.3856118
  57.3520610  69.1165567  97.4514023  58.4621801  69.9893070  95.8805983
  59.2079863  69.2232275  96.0927174  58.4221561  70.1690960  94.8062734
  58.8466477  71.2964830  96.6068555  58.0235463  71.9973006  96.4673572
  59.1237604  71.1149745  98.1384338  59.9471009  70.4145978  98.2787253
  59.3873687  72.0773779  98.5770578  58.2298447  70.7265097  98.6263993
  59.9938496  71.9677682  95.8674247  59.6851132  72.1961327  94.8473114
  60.2661063  72.8907719  96.3793247  60.8536197  71.2981484  95.8449838
  55.9464931  70.1361535  96.3014464  55.5956397  70.8489083  97.2457755
  55.2745489  70.1529866  95.1391432  55.5796924  69.5971731  94.3529764
  54.0642530  70.9899461  94.9791753  53.5739933  70.7288379  94.0413229
  53.3859059  70.7948550  95.8097679  54.4165442  72.4936932  94.9605087
  53.6581377  73.3753992  95.3915981  55.5991188  72.8178137  94.4102640
  56.2559919  72.0664569  94.2550864  56.0138289  74.1603542  94.1033088
  55.1928941  74.7467605  93.6906432  56.4612052  74.8020836  95.4124581
  55.5748943  74.7791362  96.0465130  57.2105332  74.1184061  95.8114478
  57.0336280  76.2294250  95.3834841  57.1421724  76.5698966  96.4132404
  58.0016362  76.2698092  94.8840561  56.0431019  77.1349705  94.6490650
  54.8067448  77.1021887  94.8805916  56.5195161  77.8908506  93.7598289
  57.1084317  74.1367296  93.0268680  57.9369511  73.2233799  92.8717783
  57.1904848  75.2040137  92.2696349  56.5471302  75.9495587  92.4940384
  58.0701015  75.3695047  91.1014427  58.2566367  74.3974430  90.6449344
  57.4065057  76.3170745  90.0205550  56.3577664  76.0996636  89.8181260
  57.4906051  77.3012503  90.4814513  58.0848313  76.4061646  88.7007158
  59.1092184  77.4439412  88.4778618  59.4080497  78.1696424  89.2342728
  59.7134038  77.4655495  87.1996815  60.4831523  78.2270712  87.0744911
  59.4080442  76.6392868  86.1758385  59.9077352  76.7316413  85.2115359
  58.4310651  75.6506329  86.3679117  58.0728005  75.0520222  85.5304083
  57.9061588  75.4328534  87.6765013  57.3625747  74.5148504  87.8998546
  59.4576589  75.9051596  91.5088395  59.6957919  77.1448344  91.4715269
  60.3110790  74.9714657  91.8870415  60.0034093  74.0207573  92.0339845
  61.7588262  75.3093544  92.1719160  61.8040511  75.8203784  93.1336375
  62.5778573  74.0430387  92.2591710  62.4854566  73.5226220  91.3058988
  64.1045408  74.3135023  92.5654910  64.1977789  74.8335187  93.5189010
  64.6391538  73.3649454  92.6157823  64.5311241  74.9288465  91.7733547
  62.0767666  73.1805498  93.4106887  61.0312911  72.9216452  93.2432027
  62.6715828  72.2689609  93.4681249  62.1683971  73.7330821  94.3457891
  62.3619309  76.2575587  91.0998906  62.2412508  75.8896139  89.9349550
  63.1054998  77.3103514  91.4256463  63.2978594  77.4187674  92.4112137
  63.7137022  78.2637354  90.4885142  63.4235619  78.0282581  89.4645668
  63.2269284  79.6837690  90.8230374  62.4839403  79.6001906  91.6161846
  64.1086801  80.1985265  91.2046638  62.6417883  80.4996091  89.6990222
  62.6131536  80.1679917  88.5288944  62.0859893  81.6597956  90.0564585
  61.6745976  82.2569610  89.3534293  62.0794885  81.9349450  91.0282359
  65.2071005  78.3405167  90.5899604  65.8524459  78.9086261  89.7055612
  65.7234032  77.8300571  91.7287139  65.1182633  77.3870865  92.4052359
  67.0916749  78.1563845  92.1308146  67.8280791  77.7461383  91.4397965
  67.4433293  79.6360789  92.4061719  67.3275347  80.2243772  91.4958994
  66.4940744  80.1608669  93.4729023  66.6096309  79.5733165  94.3836888
  66.7246248  81.2052480  93.6831757  65.4668698  80.0805725  93.1172266
  68.8703257  80.0294346  92.7147278  69.5118782  79.7583811  91.8762516
  68.9236271  81.1056250  92.8792661  69.2056338  79.5082610  93.6114147
  67.4989737  77.1198718  93.2800692  66.6605800  76.9384520  94.2134340
  68.7557187  76.7294212  93.3595244  69.4025180  76.9580611  92.6182594
  69.2879085  75.9934211  94.5791735  68.5242437  75.8643322  95.3461489
  69.7054332  74.6423334  94.0875993  70.1938530  74.8374677  93.1328910
  70.4055974  74.1441824  94.7582077  68.6030179  73.6626979  93.8133535
  67.7244994  73.4324459  94.8527910  67.8316783  74.0507488  95.7440340
  66.7094278  72.4368546  94.7954012  66.0693443  72.2710353  95.6619448
  66.5316061  71.6797581  93.6467379  65.7511170  70.9256722  93.5452925
  67.4378256  71.9277919  92.5577477  67.3294531  71.3492665  91.6403253
  68.4525340  72.8990342  92.6621375  69.1378421  73.0627982  91.8304922
  70.5356051  76.7940390  95.0674380  71.2602385  77.3299002  94.2282216
  70.9196667  76.6438646  96.3283097  70.4427653  75.9339574  96.8656142
  71.8654938  77.4820409  96.9998695  72.7277196  77.6599974  96.3572208
  71.2265906  78.8257884  97.3422704  70.9618844  79.3270379  96.4112608
  70.3233646  78.6382665  97.9228895  72.1687383  79.9832103  98.2676170
  71.2330277  80.9277262  98.3027381  72.3927920  76.7326909  98.1720965
  71.6502929  76.5209752  99.1178051  73.6284624  76.2230024  98.1328286
  74.1156015  76.2063322  97.2482287  74.3130335  75.7110002  99.3045728
  73.6321250  75.0323165  99.8182373  75.6239948  74.9568077  98.9997072
  76.3410055  75.4388250  98.3351365  76.0483025  74.8860295 100.0012328
  75.4621336  73.5922239  98.5185149  75.8408246  72.4200994  99.2217817
  75.6858868  71.4535253  98.3380495  75.9477852  70.4467792  98.6635805
  75.2212259  71.9035659  97.1693516  74.9820081  71.3354151  96.3693020
  75.1176421  73.2705463  97.2229891  74.8144185  73.8292925  96.3375743
  74.7198029  76.8768175 100.2674506  75.3949788  77.8295350  99.8353849
  74.2511342  76.6722615 101.5143678  73.8301567  75.8009367 101.8036262
  74.3514357  77.7371934 102.4813144  75.4039601  77.8356184 102.7470289
  74.0135056  78.6512262 101.9930044  73.5474789  77.5261335 103.7355476
  72.5276220  76.8458687 103.6418629  74.0313714  78.0262988 104.8668313
  74.9744803  78.3874835 104.8530305  73.3774612  77.8374135 106.1674141
  72.3772038  77.4285086 106.0246513  74.1902732  76.8581480 107.0345663
  74.2771804  75.8904939 106.5404086  75.1858994  77.2560639 107.2307585
  73.4866197  76.7002062 108.2732209  73.9684166  76.0931784 108.8397797
  72.9478635  79.1595635 106.8493717  73.6912835  80.1538393 106.7956189
  71.7522640  79.1719894 107.5323151  71.1472581  78.3764195 107.3869334
  71.2796830  80.2521866 108.3901257  71.6703605  81.2158202 108.0631997
  69.7377365  80.2851961 108.2913319  69.4689875  79.2964500 108.6631576
  69.2645582  81.0468426 108.9110875  69.2658103  80.4315189 106.8691687
  69.6226713  79.5650793 106.3123622  67.7601490  80.5235447 106.7478039
  67.4025713  81.3900726 107.3040111  67.4854070  80.6275465 105.6981367
  67.3064601  79.6193913 107.1537268  69.8445877  81.5286770 105.9521656
  70.9204961  81.3871165 105.8497880  69.3754683  81.4670106 104.9702158
  69.6473432  82.5082547 106.3876207  71.6915325  80.1643515 109.8567634
  71.7241197  81.2040462 110.4807714  72.0757758  78.9669400 110.2689087
  71.9704772  78.2298982 109.5864274  72.5453233  78.5985136 111.6497770
  71.9333508  79.1252240 112.3820099  72.4487211  77.0359972 111.9359736
  72.9588541  76.5008206 111.1350681  73.1057752  76.6791388 113.2968796
  72.5958443  77.2136185 114.0983800  73.0264879  75.6057120 113.4688360
  74.1568812  76.9672289 113.2800928  71.0181114  76.5033139 111.9910395
  70.5244994  76.6869366 111.0367167  71.0362483  75.4317571 112.1898781
  70.4713083  77.0106098 112.7858716  73.9470211  79.1546701 111.7629464
  74.7733807  78.9569744 110.8236146  74.3239430  79.7893563 112.9080299
  73.5948787  79.9930279 113.5766722  75.7285995  80.1521553 113.2600511
  76.1593376  80.9066456 112.6017894  75.5809684  80.7709099 114.7108915
  75.0216294  81.6982370 114.5871838  74.9834718  80.0602273 115.2818802
  76.8422012  81.0485524 115.4348158  76.5120620  81.5573832 116.3404648
  77.2150337  80.0569063 115.6912063  78.1877033  82.0147383 114.6587159
  77.2956099  83.5939020 114.9029079  77.1186745  83.7510847 115.9669034
  77.8949782  84.4149778 114.5095977  76.3410880  83.5575309 114.3778686
  76.7020724  78.9738404 113.3375790  76.3872000  77.8573647 113.7889749
  77.9648464  79.1855817 112.9203304  78.2269633  80.1077017 112.6023858
  78.9118401  78.0723990 112.6987151  78.3639571  77.1535873 112.4896494
  79.8129150  78.3797334 111.5160662  80.2324673  77.4185868 111.2189596
  79.1450675  78.7413512 110.7342016  80.9914372  79.4284120 111.7339666
  81.1410139  79.9512165 110.7892957  80.7649967  80.1519148 112.5171464
  82.2993582  78.6932679 112.1039892  82.3567828  77.6288789 112.6359700
  83.3769648  79.3558908 111.8461292  84.2778708  78.9505009 112.0561978
  83.3139843  80.2765218 111.4355523  79.6237474  77.6431915 113.9251379
  80.1008645  78.5131688 114.6349548  79.5677343  76.3470021 114.1982395
  79.1717085  75.6984088 113.5329654  79.8718427  75.8601938 115.5464787
  80.4764324  76.5987025 116.0729532  78.6023477  75.6214938 116.3371775
  77.8800978  76.3908510 116.0641502  78.2237274  74.6449341 116.0353864
  78.7756493  75.6304722 117.8625102  79.6722698  76.1822797 118.4970346
  77.8999988  75.0287056 118.4793524  77.9364008  74.9846066 119.4877322
  77.1480839  74.5810897 117.9750066  80.8515031  74.6747403 115.5448880
  80.7905751  73.7249337 114.7935264  81.8606624  74.6912564 116.4673291
  82.0251397  75.5843552 116.9093937  82.7831388  73.5926236 116.7581904
  82.9990034  73.1057919 115.8071401  84.1503962  73.9793605 117.4492179
  84.6553073  74.8639951 117.0611641  83.8863092  74.1414607 118.4942449
  85.1086822  72.7383537 117.3377456  84.7418121  72.0875635 116.5440332
  86.5477376  73.1688524 117.0217641  86.9154816  73.8193389 117.8153197
  87.1842609  72.2868117 116.9514572  86.5668309  73.7065500 116.0738099
  85.2752741  72.0504841 118.7106744  84.3027912  71.7125996 119.0687395
  85.9423764  71.1943489 118.6101352  85.6983810  72.7584012 119.4233686
  82.1461365  72.4261733 117.5809095  82.3444919  71.2271478 117.2388877
  81.3036107  72.7313704 118.5445537  81.1151773  73.6995601 118.7618115
  80.6292265  71.7142123 119.3134543  81.3869035  71.0829987 119.7777754
  80.0439293  72.2085244 120.0888137  79.7066632  70.8447247 118.4764273
  79.1542179  71.2734104 117.4720306  79.5358305  69.6049891 118.8824629
  80.1271175  69.3550305 119.6622063  78.6351664  68.5699358 118.3239596
  78.8188175  68.4337628 117.2582072  78.9042229  67.2611289 119.0317180
  78.9415537  67.5339563 120.0863605  78.0089807  66.6691079 118.8415796
  80.1768070  66.4178117 118.6642347  80.1756911  65.4675513 119.1981867
  80.1106277  66.2317239 117.5922782  81.4857712  67.1819576 118.9748224
  81.6146703  67.6157914 120.1299562  82.3799143  67.2945905 118.1107206
  77.1119631  68.9365004 118.4640711  76.6004286  69.0083371 119.5962075
  76.4196668  69.1912380 117.4017540  76.9898091  69.3380757 116.5810983
  74.9674017  69.3782835 117.2834110  74.7110696  70.1943634 117.9589897
  74.5394631  69.7606339 115.8751416  75.3693768  70.3211301 115.4448074
  74.1703330  68.5693036 114.9312735  73.3401309  68.0085755 115.3607477
  73.8802968  68.9556146 113.9541645  75.0329642  67.9123166 114.8202057
  73.3606162  70.5131143 115.9888218  73.0609575  70.7724336 115.1144314
  74.2377095  68.1079143 117.7737471  74.8313588  67.0555666 118.0315564
  72.9204985  68.1704318 117.9844241  72.4938145  69.0796997 117.8782542
  72.0905615  67.0733672 118.3808959  72.6950446  66.1726882 118.4880255
  71.4185516  67.3688962 119.7127856  70.8269422  68.2807348 119.6312499
  70.7688146  66.5382954 119.9885466  72.3913574  67.5355629 120.6838398
  71.9727938  67.7224853 121.5273233  70.9942605  66.6888786 117.3994247
  70.5121912  65.5196434 117.4162592  70.7738034  67.4944529 116.3835478
  71.0868219  68.4525940 116.4474566  69.8790630  67.1246126 115.2732016
  69.0213068  66.6586249 115.7581851  69.3885261  68.2812618 114.4304786
  68.8664695  68.9704018 115.0942883  70.5503067  69.0527832 113.6758764
  71.0725581  68.3643513 113.0114861  70.1253790  69.8688753 113.0914713
  71.2527276  69.4562192 114.4052218  68.5726279  67.9200279 113.3894132
  68.3050271  68.7047236 112.9054269  70.4118600  65.9427239 114.3969822
  71.5939746  66.0201644 114.0717681  69.5827042  64.9924569 113.8263604
  68.1451179  64.7503411 114.0581176  67.5789508  65.6398164 113.7817327
  67.9806260  64.5286857 115.1125892  67.8407214  63.5676316 113.1659819
  67.5344115  63.8977616 112.1733654  67.0574847  62.9455689 113.5992020
  69.1855407  62.8075155 113.1179053  69.3513423  62.0361482 112.3658406
  69.3478223  62.3873412 114.1104867  70.1335865  63.9649809 112.8856379
  71.0975621  63.7108770 113.3264106  70.3198482  64.2725181 111.3869527
  70.2806250  63.4694415 110.4588167  70.6334920  65.5708916 111.1442927
  70.9099057  66.1277895 111.9402572  70.5874398  66.2331656 109.7891416
  70.5016535  65.6031021 108.9038395  69.4596621  67.2677523 109.7643227
  69.6270743  67.8806885 108.8786689  68.0276177  66.6975038 109.7310438
  67.8592961  66.0847883 110.6166776  67.3097093  67.5175413 109.7153942
  67.8999795  66.0864507 108.8374985  69.6368594  68.2724855 110.8008045
  68.9160392  68.9052006 110.7596937  71.9888049  66.9284323 109.5361632
  72.6565402  67.3587464 110.4737651  72.4221286  67.0216985 108.2495304
  71.7232021  66.7602552 107.5689069  73.7686762  67.4067710 107.7621087
  74.2170329  68.1683891 108.4000846  74.6561723  66.1444063 107.8026418
  74.4868895  65.7632079 108.8096822  74.1729861  65.4869771 107.0798569
  76.1729844  66.1934221 107.5195651  76.5988343  67.1711922 107.7447727
  76.6130323  65.4454089 108.1790619  76.5155003  65.8327189 106.0750029
  75.6683752  65.6460753 105.2026771  77.8064067  65.8033260 105.7422405
  78.0760067  65.5694248 104.7974085  78.5086828  66.0151002 106.4365469
  73.6421367  67.9768816 106.3795041  72.9252766  67.5331353 105.4976277
  74.4811219  69.0388906 106.1583670  75.2093645  69.2859890 106.8131222
  74.3346436  69.8391397 104.9600901  75.2507717  70.4101169 104.8091154
  74.1795687  69.1712865 104.1127275  73.1512241  70.8099718 105.0534081
  72.2166824  70.6785691 105.8935589  73.1585814  71.8197810 104.1901837
  74.0091463  71.8345828 103.6457395  72.1612706  72.9279572 103.9857096
  71.1556091  72.5502824 104.1703869  72.4266899  74.0873843 104.9336101
  72.5131462  73.6845400 105.9427389  73.3710090  74.5490442 104.6451109
  71.3856020  75.0697216 104.8997968  71.5953446  75.7794364 105.5112809
  72.2557432  73.3064259 102.4901046  73.2659940  73.8610694 102.0253156
  71.1608301  72.9379660 101.7584376  70.7211253  72.0788835 102.0563240
  70.7489200  73.5372093 100.3955288  71.3501882  74.4351610 100.2531969
  70.8590982  72.6602765  99.1220082  70.0404902  71.9405736  99.1248203
  70.7864222  73.5064452  97.8575376  71.6050447  74.2261285  97.8537875
  70.8666581  72.8611140  96.9827745  69.8354818  74.0384706  97.8299158
  72.1474096  71.8639994  99.1051441  72.1829216  71.2108955  99.9770939
  72.1905929  71.2609822  98.1981683  72.9971692  72.5462649  99.1280201
  69.3905184  74.2846169 100.5110444  68.3725804  73.6452760 100.6119375
  69.4274675  75.6369456 100.6567732  70.2885916  76.0485188 100.9871855
  68.2173921  76.5203600 100.5312567  67.3806887  76.0821699 101.0753303
  68.4949153  77.8470423 101.0883884  69.1501825  78.3713676 100.3928260
  67.5468346  78.3793622 101.1650606  69.1850661  77.7836514 102.5219680
  69.6782442  76.8143684 102.5952257  70.2024609  78.8933061 102.7824469
  69.7098883  79.8629428 102.7098127  70.6233329  78.7740402 103.7808171
  71.0010329  78.8357213 102.0428069  68.0663329  77.9032415 103.5510449
  67.3637057  77.0799817 103.4219801  68.4896267  77.8649878 104.5547681
  67.5447784  78.8503678 103.4130896  67.7878832  76.4517086  99.1100297
  68.6162832  76.6418291  98.2560527  66.5048786  76.3053010  98.7840958
  65.9389787  76.0749464  99.5883304  65.8768018  76.2979145  97.4761799
  66.6045422  76.5593773  96.7079805  65.3510021  74.9601801  97.1874892
  65.0568260  74.7744756  96.1544967  66.2469832  74.3841192  97.4187285
  64.2241605  74.3975632  98.0745874  62.8769718  74.6031984  97.7738784
  62.5801611  75.3371251  97.0246422  61.9019983  73.8548645  98.4460644
  60.8563917  74.0872106  98.2440179  62.2312173  72.8378551  99.3514150
  61.4858285  72.1702252  99.7835792  63.6045246  72.6948603  99.7025223
  63.8770881  71.9859455 100.4843465  64.6032799  73.4509510  99.0578364
  65.6514944  73.3035349  99.3178645  64.8340745  77.4016985  97.3125475
  64.0250551  77.6055714  98.2234687  64.9240256  78.1979866  96.2112160
  65.5687243  77.9690880  95.4682028  64.1055030  79.3890789  96.0698667
  63.6203727  79.6318356  97.0152856  64.7147473  80.2334303  95.7473893
  63.0869504  79.1321197  95.0687880  63.3332678  78.3943726  94.1398736
  61.9374724  79.7386680  95.3486677  61.8206816  80.3488793  96.1449725
  60.7571745  79.3945095  94.5614411  61.0245050  78.9957734  93.5828487
  59.8444545  78.4102778  95.2501110  59.1693591  78.0217177  94.4876364
  60.5645513  77.2343166  95.9476881  61.2395245  77.6220975  96.7106670
  59.8269676  76.5810691  96.4138823  61.1358084  76.6691374  95.2112518
  58.9965517  78.9958963  96.1821811  58.4450725  78.3196560  96.5823937
  59.9285969  80.6140589  94.0719265  60.0732183  81.7500754  94.5918074
  59.0492840  80.3721388  93.0503746  59.0433335  79.5051811  92.5322546
  58.1985689  81.4795858  92.5714425  58.6838952  82.4405488  92.4008330
  57.5939946  80.9913645  91.2432649  57.1967660  79.9940178  91.4319665
  56.4743252  81.8909369  90.6529025  56.8709500  82.8883901  90.4634906
  56.1158669  81.4595159  89.7182988  55.6491156  81.9572368  91.3619406
  58.6645316  80.7560214  90.1858268  59.3658383  80.0004522  90.5399260
  58.1958098  80.4122394  89.2637567  59.1992025  81.6867034  89.9959353
  57.1634608  82.0594012  93.5165702  56.8865797  83.2539360  93.5172966
  56.5070095  81.2500594  94.4141440  56.7045612  80.2608346  94.4642130
  55.3924152  81.7854379  95.2287638  54.8953235  82.6199742  94.7342456
  54.3579339  80.6121726  95.3967097  54.9712830  79.7433244  95.6354666
  53.6446575  80.7852529  96.2025509  53.6043973  80.3324262  94.1478948
  53.1870206  81.3065900  93.5114112  53.2624050  79.1412776  93.7241396
  52.7486011  79.0443005  92.8600211  53.5140759  78.3252483  94.2634528
  55.9233346  82.3815466  96.5091157  55.1829678  82.5425381  97.4954162
  57.2384688  82.6638154  96.7387251  57.8525713  82.4371807  95.9695605
  57.8243322  83.2413112  97.9455398  58.7064559  83.7944662  97.6230861
  57.0848024  83.9369274  98.3421670  58.2155568  82.2892450  99.0164400
  58.8701778  82.7826586  99.9188215  57.8669243  81.0264746  98.8958271
  57.1787522  80.7425149  98.2132691  58.3398432  80.0598875  99.8130485
  58.3253146  80.4561154 100.8283767  57.4093607  78.8054448  99.7530832
  56.4138672  79.0603688 100.1165467  57.3390413  78.4404767  98.7284108
  58.0099120  77.7214855 100.6373995  58.5236090  78.2244781 101.4566764
  57.1806887  77.1357975 101.0342122  59.1684029  76.6180439  99.7983581
  58.1686508  75.3793432  99.0242248  57.4868499  75.8516675  98.3170075
  58.8087935  74.6735514  98.4949085  57.5937914  74.8489413  99.7833769
  59.8261777  79.7924391  99.5311919  60.2737876  79.7603245  98.3977145
  60.5590810  79.5528787 100.6301112  60.0862197  79.5568456 101.5225717
  61.9549936  79.1623930 100.5935171  62.2950619  78.8535067  99.6050628
  62.8622907  80.2348186 101.1218158  62.5116904  80.4248655 102.1362428
  64.4173838  79.9547557 101.1461261  64.7688241  79.7650636 100.1319233
  64.9369204  80.8218772 101.5539040  64.6205495  79.0838792 101.7693412
  62.6166529  81.5925335 100.4168099  62.5428950  81.3469377  99.3574029
  61.6441179  81.9235811 100.7810662  63.6562198  82.7282256 100.6130980
  64.6289723  82.3980614 100.2486202  63.3405900  83.6106110 100.0564355
  63.7301967  82.9747033 101.6722845  62.0304482  78.0371910 101.5847285
  61.7102603  78.2281895 102.7695239  62.4376608  76.8832628 101.1108966
  62.5541564  76.8420738 100.1084837  62.7386483  75.6448996 101.9170983
  62.3675530  75.8532358 102.9205840  62.1415695  74.8518901 101.4668402
  64.2094838  75.1755761 102.0117298  65.0888655  75.9222350 101.6841717
  64.4399887  74.0253662 102.6025662  63.6000110  73.5204923 102.8467778
  65.7143174  73.4402767 102.9456414  66.5344112  73.9002850 102.3943360
  65.9214156  73.7112379 104.4613420  65.8189498  74.7735896 104.6827214
  65.0734000  73.1698091 104.8806563  67.2149307  73.1859866 105.0776722
  67.3881009  72.1519809 104.7794356  68.3510182  74.0588999 104.5638885
  68.1787746  75.0930517 104.8621516  69.2949756  73.7123816 104.9845666
  68.3940564  73.9972825 103.4764826  67.2240772  73.3931435 106.4975755
  66.3820842  72.8670724 106.9474603  68.1556087  73.0109521 106.9150442
  67.1414957  74.4589863 106.7103157  65.8224644  71.9689379 102.6816768
  64.8623231  71.2250029 103.0179795  66.8911549  71.5224886 102.0653054
  67.4699479  72.2279685 101.6324126  67.2696457  70.1089234 101.8969988
  66.4293657  69.4951686 102.2215504  67.5484705  69.8155996 100.4016384
  68.3890168  70.3941563 100.0184238  67.9168962  68.2606641 100.3764196
  67.0765963  67.6813863 100.7590868  68.1325172  67.9543831  99.3527985
  68.7932088  68.0842102 101.0001518  66.3390549  70.0258058  99.4629359
  66.0079710  71.0625871  99.5226857  66.6299075  69.7963220  98.4378303
  65.5250050  69.3669899  99.7652359  68.4997434  69.7712030 102.7870559
  69.4165355  70.5625335 102.6735256  68.4881032  68.7601076 103.6194744
  67.5607302  68.4355997 103.8535113  69.6399177  68.1237925 104.2846183
  70.5319666  68.5765688 103.8517886  69.6625597  68.3546993 105.8318236
  70.6540388  68.0740864 106.1872472  69.3630239  69.7957524 106.2437684
  68.3714499  70.0769477 105.8890716  69.3965980  69.8780869 107.3301352
  70.1071038  70.4613821 105.8062952  68.6246385  67.5447628 106.3503324
  68.5876791  67.6439437 107.3044799  69.7037930  66.6081584 103.9934702
  68.7566501  65.9960090 103.5705287  70.8885525  66.0070191 104.2553681
  71.7364022  66.5325145 104.0969233  71.0056965  64.5837378 104.6050088
  70.5197552  63.9271892 103.8832719  72.5559435  64.3112335 104.5689421
  72.9160315  64.7066829 103.6191760  72.9885804  64.8852471 105.3883527
  72.9325131  62.9772392 104.6881416  73.8896588  62.9108085 104.6555984
  70.2975168  64.1429629 105.8940818  70.1111502  64.9809502 106.7472411
  70.0272212  62.8494952 106.0971076  70.1293878  62.2142760 105.3185461
  69.4098543  62.3378560 107.3466169  69.5920316  63.0017652 108.1916821
  67.8339673  62.2785562 107.0732491  67.4689861  63.2930245 106.9128055
  67.6759475  61.6890453 106.1701397  67.0642292  61.6340240 108.2507763
  67.4096079  60.6039426 108.3387915  67.2653806  62.3611270 109.5987412
  66.9197774  63.3912096 109.5116371  66.6952928  61.8516271 110.3756006
  68.3232132  62.3543413 109.8615044  65.5692686  61.6334454 108.0082426
  65.3477239  61.0679843 107.1031066  65.0631873  61.1729386 108.8567214
  65.2194317  62.6589965 107.8900977  70.0981911  61.0601657 107.7953738
  70.3063188  60.1904347 106.9548948  70.4339041  60.9376320 109.1297873
  70.2462434  61.6953241 109.7707128  71.0388819  59.7157033 109.6588307
  72.0618051  59.6264710 109.2930917  71.0665528  59.7374749 111.1793679
  71.7456341  60.5173777 111.5238958  70.0651378  59.9329551 111.5628461
  71.5058648  58.5050142 111.6411215  71.5258556  58.5114923 112.6008914
  70.1697580  58.4672573 109.2020416  69.0345562  58.3239828 109.5138737
  70.9565532  57.5297470 108.6751974  71.8644037  57.7872804 108.3152204
  70.4753533  56.1508730 108.4423045  69.6063080  56.1634841 107.7845048
  71.5481484  55.3414427 107.7985133  71.8432075  55.8239612 106.8667326
  72.4055137  55.2941095 108.4699181  71.0420694  53.8938255 107.4975806
  70.9331204  53.4284048 108.4771798  70.0584245  54.0242038 107.0464227
  71.9103574  52.9875825 106.5893727  71.5435330  51.8789243 106.1790971
  73.0347796  53.3832088 106.2544469  69.8838294  55.5354599 109.7826989
  68.8477036  54.8787781 109.7753400  70.5597690  55.8460378 110.9070143
  71.4618181  56.2850502 110.7900746  70.1423670  55.4246225 112.2983639
  69.8360657  54.3789504 112.2692342  71.2808046  55.5780307 113.3368295
  71.2092178  56.5828138 113.7532253  71.1046564  54.8454727 114.1245037
  72.5631657  55.3855101 112.7971074  73.2207172  55.4936131 113.4881498
  68.8186284  56.1529932 112.6875620  68.2787986  55.7850938 113.7089663
  68.2396034  57.0955311 111.9698278  68.6676624  57.3586572 111.0936831
  66.8661218  57.7608821 112.3594188  66.4181907  57.2549689 113.2147016
  67.1377649  59.2690628 112.7497879  67.8810361  59.8727662 112.2290294
  66.1511159  59.7122000 112.6146835  67.4570937  59.3663402 114.2226957
  68.5200904  60.0207123 114.8054280  69.2484120  60.4511413 114.1181301
  68.4278421  59.9879229 116.2100063  69.1457917  60.3080776 116.8441583
  67.2221448  59.3964420 116.5842432  66.6164547  59.1097545 117.8674033
  67.1050844  59.5704014 118.7259743  65.5025642  58.3073510 117.9552696
  65.0733134  57.9913188 118.9060416  64.8879700  57.8740233 116.7389637
  63.9867864  57.2619258 116.7750783  65.3984364  58.2051106 115.4974101
  64.9281815  57.6693803 114.6728168  66.6036825  59.0115925 115.3365540
  65.9168428  57.8096432 111.1656195  64.7115798  57.7922494 111.3983157
  66.3917247  57.6750288 109.9203789  67.3954852  57.5919878 109.8450893
  65.6026044  57.6594181 108.6937239  65.0504461  58.5942008 108.5967612
  66.5263820  57.4995885 107.4596127  67.2130642  58.3295230 107.6262724
  67.0760021  56.5593634 107.5042736  65.8664253  57.6470189 106.0618894
  65.7935509  58.9399388 105.4749912  66.3331270  59.7684993 105.9337336
  65.0404511  59.1521884 104.3232777  64.9525805  60.1240413 103.8376002
  64.4654641  57.9835864 103.7061470  63.6969550  58.1264433 102.5757689
  63.6133863  59.0397139 102.2919507  64.5399252  56.6827743 104.2461177
  64.1043898  55.8031551 103.7721142  65.2287449  56.5558813 105.4758525
  65.2671336  55.5912972 105.9820184  64.5674791  56.5323662 108.6512656
  63.3802845  56.7828682 108.5136115  64.9746944  55.2745268 108.8510275
  65.9673402  55.1069172 108.7694150  64.0451731  54.0878181 108.8276708
  63.3649832  54.1955383 107.9827819  64.8029555  52.7225843 108.6897596
  65.4289034  52.5163612 109.5579534  63.9831747  52.0050597 108.6548622
  65.6531373  52.5582729 107.4217578  65.1112610  52.5589179 106.3276478
  66.9701057  52.5516737 107.6001336  67.5838313  52.4469555 106.8048508
  67.3511732  52.6514084 108.5301558  62.9224024  54.1938366 109.8895579
  61.7720058  54.0210992 109.5891359  63.2192123  54.6473195 111.0871050
  64.1927901  54.6489514 111.3558854  62.2057545  54.9720161 112.1173600
  61.4555779  54.1841363 112.1850321  62.9150936  55.0921456 113.4742907
  63.5414163  54.2149970 113.6368617  63.5442113  55.9796960 113.4067221
  61.9395406  55.2463001 114.6444871  61.0393868  54.6947551 114.3731533
  62.4526902  54.7492298 115.9841530  63.3526351  55.3006663 116.2563952
  61.6886087  54.9028378 116.7461798  62.6857565  53.6868161 115.9130359
  61.5392290  56.6074777 115.0014214  61.0496969  57.0781576 114.1488264
  60.8482483  56.5744561 115.8437732  62.4210738  57.1853794 115.2779687
  61.3472697  56.2095314 111.6393686  60.1520266  56.1365923 111.9534302
  61.9888215  57.2441344 111.0999754  62.9965568  57.3051329 111.0708534
  61.1825700  58.4760010 110.7320784  60.3949782  58.6588606 111.4630783
  62.1283583  59.6795324 110.7206589  63.0323710  59.4079443 110.1755899
  61.6423368  60.5182441 110.2222155  62.5048796  60.0894913 112.1834017
  62.7365194  59.1977212 112.7658019  63.7477790  61.0223697 112.1484033
  63.5167401  61.9146357 111.5665260  64.0146664  61.3112059 113.1649885
  64.5847127  60.4963477 111.6891177  61.3423191  60.8220319 112.8659634
  60.4704399  60.1687543 112.8999426  61.6304534  61.0956381 113.8809607
  61.0989765  61.7228584 112.3025853  60.2940330  58.2925699 109.4487346
  59.2409324  58.8245514 109.4103029  60.7262561  57.4303197 108.4978415
  61.6977311  57.1543584 108.5112975  59.8323247  56.8765645 107.3925624
  59.5626444  57.6681559 106.6934524  60.5999789  55.7532321 106.6071960
  61.5242748  56.1199905 106.1608056  60.8371008  55.0824508 107.4329839
  59.7763123  54.9840809 105.5349988  58.8165496  54.7002126 105.9667108
  59.5440493  55.8459045 104.3118308  60.5034180  56.1298054 103.8792678
  58.9660438  55.2859798 103.5766474  58.9952543  56.7431944 104.5978298
  60.6309687  53.8147036 104.9430891  60.9103420  53.1277048 105.7418898
  60.0473165  53.2809260 104.1930672  61.5314706  54.2197026 104.4813846
  58.5243968  56.2990834 107.9526028  57.5128787  56.5384763 107.3023803
  58.5697274  55.4635965 108.9801828  59.5039521  55.2060930 109.2648152
  57.4097536  54.8285739 109.6889396  56.7510556  54.3323619 108.9762055
  57.9462127  53.7712198 110.6865226  58.4536434  53.0189488 110.0826172
  58.6661298  54.2492111 111.3508596  56.8654822  53.1114799 111.5075761
  57.1544542  52.8931227 112.6999856  55.7605267  52.7666167 111.0393543
  56.5768209  55.9173462 110.3722162  55.3322891  55.9176783 110.3777281
  57.2376844  56.9272208 111.1186522  58.2230212  56.8067800 111.3049445
  56.5288999  58.1119724 111.7410583  55.7439316  57.7858691 112.4233930
  57.5606943  58.9106577 112.5311216  57.9969440  58.1958872 113.2288957
  58.3110295  59.2058944 111.7976828  57.0876915  60.1364291 113.2923455
  57.9917339  60.6332467 113.6444542  56.5898161  60.7679060 112.5565065
  55.9799967  59.8653987 114.6861633  57.1408383  60.0017488 115.9955182
  57.6008460  60.9896577 115.9725422  56.6320100  59.8605444 116.9490673
  57.9116026  59.2398400 115.8792489  55.7642600  58.9851450 110.6735920
  54.6626513  59.4176804 111.0092664  56.2597117  59.2090091 109.4370123
  57.2441314  59.0920693 109.2437703  55.3762226  59.7391295 108.3416706
  55.0895893  60.7725941 108.5363279  56.1819115  59.6878863 107.0031993
  57.2058413  59.9547974 107.2647817  56.1496451  58.6477010 106.6790489
  55.6926387  60.5930931 105.8654354  54.7520760  60.2382796 105.4440687
  55.5379600  61.5675523 106.3286911  56.7024732  60.7452903 104.7396177
  57.0903722  61.8414712 104.4169744  57.2637666  59.6721623 104.1218573
  57.9313390  59.8140300 103.3773292  57.0106651  58.7378779 104.4102212
  54.0235699  58.9393136 108.2852875  52.9290476  59.5170727 108.2276556
  54.0363850  57.5906834 108.2273700  54.8834829  57.0943175 107.9904197
  52.7676400  56.8344206 108.2614115  52.0506907  57.2382914 107.5465890
  53.0774099  55.3757973 107.8769541  53.6496242  55.1839305 108.7846198
  52.2087155  54.7179711 107.8498479  53.9473942  55.0728087 106.6869426
  53.7414289  55.5502866 105.5472242  54.7827709  54.0758061 106.7464623
  55.3704759  53.8653017 105.9524909  54.8391330  53.5176332 107.5863236
  51.9287561  57.0024656 109.4817540  50.7489263  57.3878998 109.4045071
  52.6250523  56.9446961 110.6352717  53.6267364  56.8158813 110.6236429
  51.9472706  56.9510420 111.9179399  51.1751485  56.1832485 111.9671322
  53.0092721  56.6477520 112.9840885  53.8486915  57.2889429 112.7151116
  52.5642333  57.0034299 113.9133537  53.5155492  55.1798621 113.1770304
  52.6836630  54.5209809 113.4259115  54.0015273  54.8234211 112.2688029
  54.5138938  55.1834560 114.3150129  55.2638923  55.9542994 114.1378076
  53.9961310  55.3895364 115.2517904  55.1901184  53.8868711 114.4272490
  56.0430661  53.8887409 113.8863460  54.8918917  52.7874460 115.1599476
  53.9132348  52.7620685 115.9498341  53.3266144  53.5782927 116.0485988
  53.7188281  51.9255927 116.4814486  55.6372061  51.7705484 114.9121662
  56.3687579  51.8412954 114.2193986  55.4879654  50.9053025 115.4113410
  51.1985312  58.2892605 112.1101594  50.2843159  58.4068236 112.7997451
  51.6285777  59.3566008 111.4363683  52.5377531  59.1921982 111.0283593
  51.0744239  60.6750939 111.3516594  50.5190623  60.9003573 112.2621148
  52.1776611  61.7100680 111.1863885  52.8147384  61.3197646 110.3927292
  51.7768544  62.6783985 110.8867386  53.0155263  61.8758979 112.4906263
  53.3488855  60.8928787 112.8232608  54.2400703  62.7749970 112.2397945
  53.9074699  63.7584049 111.9075523  54.8111473  62.8777390 113.1625165
  54.8696952  62.3262349 111.4714942  52.2351051  62.4147412 113.6898580
  51.4169034  61.7346795 113.9268424  52.8999074  62.4960923 114.5498122
  51.8313299  63.3981534 113.4490990  49.9934644  60.7081114 110.2893034
  48.8737354  61.0279674 110.5731223  50.1974524  60.2602903 109.0892192
  51.1648777  60.0411108 108.8990933  49.2235024  60.1791616 107.9696828
  48.8334663  61.1671813 107.7251669  49.9411557  59.6167386 106.7367290
  50.7371972  60.3294316 106.5211234  50.3765703  58.6418110 106.9558871
  49.0587847  59.4888114 105.5082514  47.8548196  59.2517118 105.5036891
  49.6471085  59.5746592 104.3759947  49.1101090  59.4968358 103.5241291
  50.6459325  59.7198731 104.3390579  47.9683940  59.4398070 108.3138875
  46.8650261  59.9505592 108.0965157  48.1690095  58.3740365 109.0842806
  49.1391049  58.1646285 109.2717973  47.1629414  57.4965098 109.6281259
  46.5470223  57.0801585 108.8310096  47.8699809  56.3156577 110.3849195
  48.8055587  56.6635867 110.8227993  47.2187529  55.9380635 111.1732245
  48.1515186  55.2325233 109.4172597  47.2050485  54.8980347 108.9925096
  48.7821781  55.6361709 108.6251490  48.8372699  54.0863340 110.0582503
  49.5299026  53.6096695 109.3646006  49.3780626  54.4050713 110.9493448
  47.7804003  53.1217197 110.4411392  47.2281781  53.4944510 111.3038226
  47.0933534  52.9693432 109.6087648  48.4263603  51.8391508 110.7870837
  49.0627145  51.9800416 111.5586424  47.7202573  51.1671115 111.0514352
  48.9377642  51.4933846 109.9877021  46.1992902  58.1925984 110.5782980
  45.0916611  57.6753478 110.7494082  46.6008913  59.3222460 111.2396314
  47.5423287  59.5959472 110.9969740  45.9333334  60.0159297 112.3858035
  44.8927107  59.7246010 112.5283910  46.6934603  59.7536139 113.6785063
  47.7582756  59.8381480 113.4614310  46.3209220  60.7334546 114.7983971
  45.2562687  60.6491639 115.0163640  46.8945717  60.4969353 115.6945473
  46.5468293  61.7515131 114.4811837  46.5126132  58.3125816 114.1563078
  46.8840924  57.6272989 113.3944070  47.0696800  58.1633083 115.0812368
  45.4549509  58.1183262 114.3343982  45.5802980  61.4924157 112.1328608
  44.4325165  61.8367323 112.4576031  46.5106940  62.3079099 111.6108258
  47.3656985  61.9137329 111.2451877  46.3735032  63.7908368 111.6420585
  45.9632943  64.2472829 112.5428830  47.7685287  64.4745027 111.2887444
  48.1857221  63.9748208 110.4144630  47.6013262  65.9986861 110.9868416
  47.1845834  66.4991572 111.8608867  48.5732920  66.4314612 110.7500105
  46.9293157  66.1300433 110.1387577  48.8206354  64.1209833 112.2947093
  48.8738113  63.0327396 112.3263141  49.7629754  64.5195138 111.9188527
  48.5619704  64.6666762 113.7214155  47.6199625  64.2681857 114.0981468
  49.3745751  64.3613613 114.3806238  48.5091244  65.7549605 113.6906847
  45.2417429  64.2211241 110.6988870  45.1639562  63.6774626 109.6332931
  44.3681690  65.1372587 111.0737523  44.4385303  65.4029692 112.0456302
  43.3382176  65.7507464 110.2692985  42.7135992  64.9836176 109.8116256
  42.4181499  66.6791962 111.1820576  43.0331034  67.2981684 111.8353606
  41.7903530  67.3188008 110.5616729  41.5376976  65.7704501 112.0264025
  41.1403461  64.9834268 111.3854601  42.1523832  65.3253948 112.8088278
  40.3912998  66.5338547 112.6580997  39.9403799  67.2149519 111.9363817
  39.6323394  65.8462915 113.0313763  40.9748570  67.3449983 113.8361324
  41.5152317  66.6565465 114.4858477  41.6690149  68.0803437 113.4293019
  39.9177742  68.0416365 114.6210586  39.2746907  67.3603923 114.9984835
  40.3447107  68.5569085 115.3775770  39.4172116  68.6799336 114.0193003
  43.9383506  66.5928309 109.1172308  45.0061111  67.2452758 109.2584265
  43.2611241  66.6956009 107.9573650  42.6101229  65.9723169 107.6868895
  43.5676277  67.7492212 106.9908300  44.0390050  68.5928151 107.4950641
  44.5405389  67.2115893 105.9096285  45.3729572  66.7054431 106.3984997
  44.0099878  66.5044740 105.2719739  45.0246383  68.2566605 105.1374840
  45.6250746  67.9117973 104.4725438  42.3324065  68.4038927 106.4068919
  41.4287127  67.6840907 106.0528133  42.4240530  69.7419713 106.3128309
  43.2147543  70.2168636 106.7243744  41.3988936  70.5501652 105.6424759
  40.4332434  70.4313568 106.1339059  41.8248885  72.0608261 105.7305565
  42.8757398  72.1015562 105.4439350  41.0141463  73.0316083 104.8490255
  39.9631895  72.9917742 105.1353891  41.3890493  74.0460307 104.9850235
  41.1161761  72.7443532 103.8025189  41.6828203  72.6137230 107.1518533
  42.3158389  72.0413216 107.8298991  41.9876524  73.6601150 107.1673698
  40.6437217  72.5337579 107.4711971  41.2220297  70.1592830 104.1765632
  42.2450004  69.9065186 103.5543710  39.9177906  70.0285748 103.7007472
  39.2132987  70.2885460 104.3761771  39.4853093  69.5798840 102.3996129
  38.4178898  69.7716890 102.2904083  40.0325652  70.1262535 101.6314392
  39.7453347  68.0655591 102.2219568  39.3107461  67.5023924 101.2209688
  40.3019570  67.3544665 103.2227620  40.8110943  67.9386426 103.8705403
  40.4270460  65.8928151 103.3538836  41.0236841  65.6521156 104.2337619
  39.0746091  65.2566746 103.5023817  38.4442892  65.6293171 102.6949577
  39.2030242  64.1796209 103.3948411  38.4250082  65.5528983 104.8201875
  38.9630423  65.1405747 105.6737737  38.2400467  66.6141966 104.9861310
  37.0879085  64.8208626 104.6572729  36.6334959  65.1863899 103.7364049
  37.3149493  63.7598309 104.5535243  36.1157135  65.0223027 105.8197370
  36.6907088  64.9318169 106.7413080  35.7189077  66.0341765 105.7375437
  34.9557410  64.0186588 105.8405450  35.3231992  63.0809979 105.9171368
  34.3577923  64.2115849 106.6313275  34.4225572  64.1026379 104.9868697
  41.3158085  65.2748648 102.2918898  41.1222704  64.0722156 102.0279410
  42.1925934  65.9983982 101.7237564  42.0568816  66.9967900 101.7937239
  43.2915137  65.4857032 100.8196392  42.9000972  64.8179706 100.0521593
  43.9983062  66.6945828 100.1431428  44.6369312  67.2511803 100.8290420
  44.8824831  66.0001317  99.0553111  44.2444769  65.4436772  98.3687203
  45.4387991  66.7563514  98.5014654  45.5810943  65.3158222  99.5367279
  43.0190248  67.7406030  99.5512664  42.3492629  67.2240969  98.8637046
  42.4403714  68.1632071 100.3726467  43.7239084  68.8316027  98.8297072
  44.3024484  68.4097903  98.0078400  42.9935451  69.5375921  98.4344257
  44.3935591  69.3488993  99.5167822  44.2410843  64.4973203 101.5448055
  44.3826326  64.4706035 102.7799959  44.6706304  63.4514859 100.8189539
  44.0990354  63.3023163  99.9997306  45.7551450  62.4850376 101.1034197
  45.7200346  62.1250575 102.1316613  45.5183994  61.2573788 100.1284775
  44.4992274  60.9156906 100.3091345  45.5944044  61.6524583  99.1154447
  46.4855004  60.0840078 100.2915388  45.9445727  59.3238242  99.7279619
  47.5110256  60.1445897  99.9272215  46.4927291  59.7195498 101.7359328
  47.6203521  59.4914382 102.2572585  45.4584979  59.3974362 102.3994701
  47.2375673  63.0927743 100.9851047  47.6806228  63.4804582  99.8847553
  47.9352285  63.2169121 102.0867874  47.5343325  62.9662630 102.9792877
  49.3410079  63.6487607 102.0502909  49.4290014  64.6798776 101.7080129
  49.8958959  63.5573485 103.4984574  49.4537827  64.3971968 104.0344518
  49.6647880  62.6301438 104.0228432  51.3879818  63.7350138 103.5754556
  52.2902224  62.6998541 103.5239155  53.4682444  63.2465740 103.5047441
  54.3443059  62.6008577 103.4441986  53.3623703  64.5795557 103.5672611
  54.1437297  65.2189870 103.5938105  52.0426474  64.9493911 103.5899372
  51.7728483  66.0052299 103.6126147  50.2344374  62.6298933 101.1295265
  51.1547482  63.0748062 100.4049607  49.9052208  61.3117698 101.1551533
  49.2679414  60.9352672 101.8423361  50.6837910  60.3739884 100.3427006
  51.7258120  60.6771713 100.4445420  50.5738084  58.8965464 100.6741444
  51.3258643  58.4315591 100.0367293  50.8946233  58.8400068 101.7143277
  49.3500555  58.2208239 100.5240882  49.4594333  57.3009891 100.7761602
  50.4969733  60.6566537  98.8656300  51.5551610  60.8777489  98.1983056
  49.2377020  60.8399063  98.3962600  48.4608440  60.6803655  99.0216699
  48.9538607  61.2308284  97.0440129  49.2970787  60.4617880  96.3520032
  47.4724706  61.4125979  96.8639456  46.9046179  60.5670124  97.2520536
  47.1762410  62.3204286  97.3894848  47.0569088  61.5887482  95.4378620
  46.5658756  62.8329559  94.9901773  46.3722796  63.6048375  95.7350392
  46.3267424  63.0918588  93.6356687  46.0450662  64.0961977  93.3193420
  46.4495151  62.0539247  92.6757943  46.1833231  62.2027886  91.6293330
  46.9227310  60.8251815  93.1012890  47.1067166  60.0391492  92.3688938
  47.1617799  60.5904955  94.4403854  47.4479450  59.5938589  94.7764284
  49.6573627  62.5286900  96.6702068  50.0288335  62.6895571  95.5246496
  49.8217375  63.4793983  97.5528350  49.3820596  63.2846643  98.4410137
  50.4047406  64.7940921  97.3464137  50.0809329  65.2364849  96.4043222
  49.9023853  65.6844298  98.5097417  48.9901794  66.1062124  98.0877475
  49.6619546  65.1411484  99.4236008  50.7871482  66.8745062  98.9245615
  51.3720105  66.9437329 100.1727336  51.2807026  66.0695322 100.8173543
  51.9495390  68.1200166 100.3280121  52.4600376  68.3918777 101.1560110
  51.7452094  68.9287150  99.1877080  52.0688742  70.2661343  98.8155875
  52.5675184  70.8667630  99.5763095  51.7497128  70.7272303  97.5560180
  52.0351639  71.7340321  97.2511116  51.0410653  69.8962428  96.6301214
  50.7369709  70.2179294  95.6340572  50.7221328  68.6052016  97.0229223
  50.1808229  68.0346372  96.2682431  51.0428549  68.0844701  98.3014175
  51.9483099  64.8106729  97.1395277  52.3959107  65.4741935  96.2153698
  52.7044093  64.0237316  97.9536223  52.2304175  63.6611668  98.7684707
  54.1304297  63.7865327  97.8247370  54.6181993  64.6699768  97.4127823
  54.7552724  63.4774460  99.2219513  54.2901813  62.5443189  99.5398558
  55.8141029  63.3071254  99.0270947  54.6014813  64.5315393 100.3330002
  53.6540129  64.4097510 100.8579498  55.4226079  64.4684645 101.0470554
  54.6311212  65.9528939  99.6144953  55.3237543  65.9278902  98.7732265
  53.6337035  66.2070937  99.2558312  55.0650056  66.9757461 100.5421772
  54.9681628  66.7012620 101.5093273  55.3843669  68.2441496 100.2682265
  55.4218329  68.7435360  99.0666115  55.2004896  68.1592261  98.2730820
  55.6720703  69.7129503  98.9335067  55.8885156  69.0066225 101.2522606
  56.0176247  68.6153328 102.1743903  56.1362332  69.9678261 101.0656529
  54.4780991  62.7384120  96.8014296  55.6666297  62.5823874  96.5583367
  53.6210363  61.9293989  96.1941535  52.6715699  61.9370164  96.5384716
  53.9960428  60.9071469  95.2066719  54.9075723  60.4073645  95.5344384
  52.8842823  59.8462244  95.0379443  52.3574218  59.7530225  95.9875919
  52.1928074  60.1983005  94.2724347  53.4044274  58.5803921  94.6593948
  52.6836251  57.9532738  94.5657646  54.4667023  61.5031711  93.9043413
  53.8877308  62.4300671  93.3747170  55.5031002  60.9413887  93.3297365
  55.8394068  60.0707180  93.7156506  56.2789421  61.5699115  92.2125371
  56.4577433  62.6292869  92.3965296  57.6247155  60.8525292  92.1454364
  58.0254523  60.8012697  93.1578008  57.3788580  59.8479435  91.8012538
  58.7096493  61.3345347  91.2895717  59.1300336  60.7495484  90.1151846
  58.6573346  59.8281079  89.7751801  60.1860717  61.3466657  89.3380936
  60.4865855  60.8934647  88.3934238  60.8169881  62.4897800  89.7869202
  61.5722312  62.9560234  89.1542079  60.5053130  63.0450556  91.0177128
  61.0785995  63.8371292  91.4994410  59.3666009  62.5201510  91.6481500
  58.9205668  63.0451390  92.4928637  55.4196224  61.4990501  90.9379927
  55.0185366  60.4078661  90.5733987  55.1934057  62.6431575  90.3057513
  55.4612064  63.4816145  90.8011017  54.4387067  62.7808394  89.0960542
  54.6817220  61.9759140  88.4024132  52.8874241  62.7079071  89.4354318
  52.5585446  61.7832162  89.9096515  52.5718454  63.5580107  90.0402738
  52.1717668  62.8060159  88.1752796  50.8744904  63.3722998  88.0774976
  50.4579699  63.2398135  86.7942794  49.4615747  63.5426725  86.4724535
  51.4579858  62.7116371  86.1231863  51.4462555  62.5614838  85.1244790
  52.4585298  62.4109578  86.9181483  53.3430283  61.9156596  86.5175946
  54.8641709  63.9681322  88.2706470  54.3516792  65.0725147  88.4460823
  55.9962931  63.7712489  87.5673546  56.4880779  62.9086017  87.7519807
  56.6078300  64.7326991  86.6714270  56.5902137  65.7575241  87.0422675
  58.0762224  64.3376884  86.3783039  58.5525873  65.2296878  85.9714700
  58.8993953  63.8173477  87.5856291  58.4238663  62.9250271  87.9927356
  59.9100167  63.5727788  87.2586284  58.9435787  64.5880668  88.3551357
  58.2799351  63.3846612  85.3420847  59.2195470  63.2134980  85.2449608
  55.7936252  64.9172127  85.3887445  54.6818659  64.3254070  85.1911130
  56.3901864  65.7223413  84.4972061  57.0794567  66.3921526  84.8076229
  55.9181073  65.8082629  83.1410480  54.8465082  66.0069178  83.1234213
  56.6512415  66.9720038  82.4154129  57.7219291  66.7716525  82.4552448
  56.3221705  66.9807181  81.3763093  56.3560554  68.3673328  83.0687461
  56.2618957  68.0354224  84.1027047  57.1707508  69.0873449  82.9915896
  55.0518377  69.0255941  82.6251347  54.0450838  68.4227549  82.8803863
  55.0200798  70.0553011  81.8363420  55.8957103  64.4905134  82.3057493
  55.1976377  64.4879229  81.2916286  56.6801743  63.4345197  82.6600807
  57.2358949  63.5469052  83.4959296  56.7830665  62.1676408  81.9192109
  55.9398944  61.9831767  81.2535286  58.0368389  62.3750988  81.0726307
  57.8979282  63.3635421  80.6347006  58.8445716  62.4123668  81.8035746
  58.3947541  61.3680530  79.9632776  59.2408123  61.7754574  79.4098266
  58.6918902  60.4376413  80.4471641  57.2309093  61.0924963  78.9920372
  57.6118199  60.5095587  78.1534730  56.4706823  60.5159770  79.5190854
  56.6316057  62.2840162  78.4856457  57.2018294  63.0931808  78.6861375
  55.5477426  62.4523887  77.9007094  54.7693582  61.4885804  77.4170180
  55.0480334  60.5225730  77.5132976  53.9031350  61.7270744  76.9556313
  55.1732556  63.6122097  77.7109101  55.7442153  64.3823755  78.0286360
  54.2975108  63.7859918  77.2387136  56.9138048  60.9315361  82.8237139
  56.8792484  59.8122562  82.3030564  56.9567136  61.0916983  84.1541488
  56.7833486  61.9764840  84.6093389  57.2499275  59.9054031  85.0052225
  56.9841871  58.9682388  84.5161373  58.8081696  59.9323146  85.2281852
  59.2348119  60.2553300  84.2785871  58.9831742  60.6981746  85.9837856
  59.4553474  58.6533561  85.6558395  58.9775787  58.3345903  86.5822445
  59.2695069  57.9125177  84.8781996  60.9926687  58.7921380  85.8848306
  61.3684365  58.9079816  84.8682295  61.0633899  59.7454236  86.4086096
  61.8012187  57.7774067  86.5966186  61.3512410  57.5664514  87.5667312
  61.8390308  56.8612453  86.0072819  63.1764820  58.2958982  86.7923263
  63.1417030  59.1446014  87.3387629  63.7307117  57.6052234  87.2780193
  63.5937749  58.4910348  85.8935007  56.5480354  59.9358461  86.3903797
  56.6147323  60.9750612  87.0945519  56.0559016  58.7430185  86.7064251
  56.2705029  57.9217092  86.1591622  55.2249978  58.5861314  87.8856639
  55.2279221  59.5718180  88.3509729  53.7814053  58.2494923  87.4516815
  53.8589781  57.4660698  86.6978035  52.8643033  57.7907416  88.5619548
  52.7858624  58.5738799  89.3160377  51.8758940  57.5798824  88.1536844
  53.2687996  56.8871408  89.0180127  53.0318561  59.3699639  87.0162789
  52.1500777  59.0865446  86.7638097  55.6856989  57.4340827  88.7813270
  55.8797947  56.2895343  88.2821330  56.0535845  57.7575262  90.0259058
  55.7811349  58.6539388  90.4031525  56.8930496  56.8948403  90.8386169
  56.6501764  55.8634736  90.5828934  58.4151311  57.1050016  90.6533838
  58.5749723  58.0816717  91.1101831  58.8389734  56.3312984  91.2935721
  59.1068353  57.0640576  89.2668352  58.5439551  57.7518601  88.6358088
  60.1127880  57.4542320  89.4215033  59.1868389  55.7440749  88.6070648
  59.4788035  55.7603394  87.4215969  58.9627026  54.6502835  89.2290842
  56.5959440  57.0225194  92.3308727  56.2806235  58.0994445  92.8308839
  56.6918961  55.9475884  93.0973071  56.7906551  54.6161658  92.5647976
  57.3862449  54.6481196  91.6524643  55.7880303  54.2580190  92.3311877
  57.4520568  53.8073204  93.6640896  58.5366942  53.8753330  93.5802139
  57.1477551  52.7628105  93.5970013  56.9542531  54.4360667  94.9572298
  57.6848559  54.3827519  95.7643706  56.0106866  54.0058571  95.2929403
  56.7391518  55.9317250  94.5299236  55.7717909  56.2777044  94.8940796
  57.8826775  56.8415077  95.1295546  59.0460226  56.6269614  94.7622043
  57.4741367  57.8121303  95.9573276  56.4839538  57.9681989  96.0809390
  58.4202273  58.7051464  96.6672999  59.0025854  59.2224536  95.9048357
  57.6395883  59.7453506  97.4765429  57.0584649  59.2432686  98.2500474
  58.3366266  60.4425326  97.9414893  56.9673812  60.2915106  96.8147679
  59.3973281  57.9815447  97.6160441  59.0055807  57.0446234  98.2900371
  60.6986459  58.3465255  97.7164180  60.9254665  59.1564425  97.1572344
  61.8174794  57.6439968  98.4443233  61.4827279  57.3301130  99.4330182
  62.3036347  56.4324267  97.6937923  61.4523117  55.7822988  97.4920914
  62.9766932  56.8374106  96.3498420  63.8284438  57.4872155  96.5507753
  63.3179137  55.9424205  95.8295917  62.2556764  57.3665764  95.7267699
  63.2501393  55.6462134  98.4320758  63.5211212  54.8920570  97.9034765
  62.9953612  58.6607473  98.7641463  62.9238961  59.7522147  98.2628513
  64.0239119  58.2657426  99.5254582  64.0241281  57.3136054  99.8624063
  65.1318275  59.1238993  99.8914298  65.7256291  58.5327555 100.5886011
  65.6925535  59.2667147  98.9676932  64.8456045  60.4885478 100.5151931
  65.8304016  61.1794171 100.7165690  63.6566356  60.8487218 100.9456622
  62.9995538  60.0817450 100.9551208  63.2104412  62.1786321 101.4965117
  64.0772640  62.6340108 101.9754142  62.6296889  63.1855120 100.4552885
  62.0905151  62.4757083  99.8279374  61.9452271  63.9632912 100.7939203
  63.6574320  63.8689360  99.5574145  64.3346976  65.0450512  99.8720148
  64.1577334  65.4011954 100.8868768  65.1811806  65.7601841  99.0170396
  65.7282998  66.6439097  99.3453540  65.3128772  65.3044232  97.6989854
  65.9650850  65.8140105  96.9897283  64.5856750  64.1684892  97.2958368
  64.6578606  63.8284720  96.2627454  63.7744227  63.4756633  98.2074705
  63.2090195  62.6031483  97.8801530  62.0802908  61.9773154 102.3948885
  61.2548515  61.1378326 102.1180932  62.1066537  62.8522098 103.4228335
  62.9057544  63.4444335 103.5983571  61.0509650  62.8031369 104.4237641
  60.2068426  62.3048414 103.9470481  61.4510360  62.0239364 105.7236712
  62.2954210  62.5010678 106.2211248  60.2138752  62.0631649 106.6552856
  59.3691490  61.5857688 106.1586658  60.4381226  61.5323024 107.5804876
  59.9626592  63.0990634 106.8831102  61.8084352  60.5219206 105.4732084
  60.8879370  60.0265535 105.1643470  62.5246704  60.5014737 104.6518141
  62.3946556  59.7978545 106.6743299  61.6787542  59.8174838 107.4960352
  62.6106859  58.7637310 106.4059671  63.3154869  60.2924058 106.9835039
  60.5127724  64.1758104 104.6886947  61.2806397  65.1338354 104.8603509
  59.1979904  64.3436027 104.8057592  58.6074453  63.5385373 104.9581586
  58.5582737  65.6926824 104.7602350  59.0490652  66.3520181 104.0443445
  57.1356250  65.4666939 104.3109300  56.9840932  64.7761980 103.4812598
  56.7494249  65.0220931 105.2281430  56.3913395  66.7801897 104.0260564
  56.9856018  67.8856913 104.1042837  55.2933142  66.7227114 103.5187078
  58.5572581  66.3281778 106.1884344  57.7669109  65.9419936 107.0576427
  59.4415789  67.3605196 106.3681297  60.0754407  67.6117616 105.6230149
  59.5010059  68.1133463 107.6023470  59.6719780  67.3833217 108.3935055
  60.3699981  68.7657360 107.5166752  58.2597067  68.9708069 107.9660588
  57.9825359  69.1946392 109.1227924  57.5124442  69.3604045 106.9079277
  57.8256256  69.3015757 105.9495144  56.2358341  69.9715542 107.1726342
  56.3221145  70.7510938 107.9295839  55.7418289  70.6106959 105.8624843
  55.7402495  69.8244110 105.1075983  54.7194568  70.9432364 106.0421285
  56.5703474  71.7737529 105.3750621  57.4359781  72.3040773 106.0824090
  56.3602092  72.2079977 104.1968926  55.1846537  68.9815246 107.7574431
  54.3329861  69.5327821 108.4790444  55.1023888  67.6842794 107.5206028
  55.7120487  67.3272864 106.7988202  54.1137105  66.7318585 108.1616976
  53.1819227  67.2712357 108.3318235  53.8082283  65.4687369 107.2936183
  53.4743137  65.9017812 106.3507117  54.7224675  64.8989168 107.1275705
  52.7196751  64.5391478 107.8425355  53.0274218  64.2653146 108.8516975
  51.3245374  65.1255685 107.8824294  51.0158959  65.3992361 106.8734967
  50.6311934  64.3878841 108.2864055  51.3206016  66.0124071 108.5161503
  52.7222128  63.2387187 107.0475515  53.6953929  62.7568242 107.1413473
  51.9495520  62.5742869 107.4343680  52.5235115  63.4537345 105.9976063
  54.5317721  66.2969304 109.5273754  53.7177188  66.3262577 110.4326832
  55.7934262  65.9459447 109.6812714  56.4303547  66.0195677 108.9008862
  56.2870473  65.3133121 110.9407904  55.6417966  64.5972688 111.4497429
  57.7285329  64.6904428 110.7647334  58.2081048  65.2722794 109.9776011
  58.6137501  64.6716311 111.9859577  58.1350216  64.0895497 112.7734225
  59.5730150  64.2200026 111.7330873  58.7737876  65.6917275 112.3350859
  57.5519751  63.3656473 110.0045932  56.9789141  62.6847811 110.6339764
  56.9957188  63.5687412 109.0894805  58.8677780  62.7383121 109.6598682
  59.4244469  62.5344862 110.5745674  58.6964850  61.8048543 109.1237576
  59.4412527  63.4184478 109.0300730  56.2570545  66.2442309 112.1655584
  56.1755196  65.7374331 113.2699931  56.2625124  67.5508793 111.8933356
  56.4290220  67.9304807 110.9723162  56.0769845  68.4802843 113.0005640
  56.7966737  68.3597123 113.8102609  56.3433699  69.8521856 112.2945453
  56.3744453  70.5673971 113.1164979  57.3424498  69.7397457 111.8734793
  55.4095435  70.3492769 111.2363418  56.0054140  71.0973309 110.7134130
  55.0636318  69.5990719 110.5252605  54.1783345  71.0392628 111.9047098
  53.1403442  70.3418838 112.0514232  54.2986560  72.2918907 112.0990062
  54.7042920  68.3798437 113.6658370  54.6401819  68.7641722 114.7938111
  53.7016337  67.7542832 113.0706887  53.7537157  67.5535706 112.0822044
  52.4614937  67.4506510 113.7728263  52.0543186  68.3673119 114.1994882
  51.4393412  66.8568897 112.8475330  50.4848217  66.7458072 113.3619767
  51.3080391  67.4936718 111.9726796  51.8944661  65.6147528 112.4485652
  51.2548522  65.2152565 111.8545142  52.5634447  66.5352333 115.0580946
  51.7631217  66.6079981 116.0280757  53.6972559  65.7262637 115.1629293
  54.2391906  65.6014216 114.3198275  53.9626858  64.8474595 116.2886416
  53.0994686  64.2087623 116.4757812  55.1695439  63.9608524 115.9859894
  55.0659181  63.3310821 115.1023886  56.0168233  64.6338550 115.8545167
  55.5274783  63.0256358 117.1533616  54.7940954  61.8510642 117.3142342
  53.9736162  61.5943340 116.6441571  55.1339447  60.9903713 118.3692448
  54.5602523  60.0805113 118.5456885  56.2361188  61.3119325 119.2119693
  56.5541188  60.6365995 120.0062623  56.9069594  62.5059637 119.0085670
  57.6661441  62.7772137 119.7421623  56.6525103  63.3400541 117.9372432
  57.3085836  64.1874978 117.7384794  53.9149047  65.5722472 117.5664619
  53.5117670  64.9802167 118.5670212  54.4040033  66.7939299 117.5824274
  54.5676531  67.1458851 116.6499867  54.8384619  67.6045819 118.7131382
  55.4334253  66.9964916 119.3945661  55.6877683  68.7769254 118.2391558
  55.0427308  69.4609817 117.6877097  56.0887202  69.2842520 119.1166279
  56.8798576  68.3113782 117.3089501  56.5302246  67.6429294 116.5221630
  57.4509302  69.6094192 116.6701281  57.8012114  70.2782139 117.4563313
  58.2822984  69.3559185 116.0123553  56.6700595  70.1050937 116.0933714
  57.9866180  67.5845365 118.0629537  57.5774565  66.6943421 118.5406987
  58.7717532  67.2934257 117.3651582  58.4034935  68.2451540 118.8231499
  53.6703708  68.0549383 119.6138936  53.9424369  68.7962122 120.6044284
  52.4143302  67.8281951 119.1621022  52.3484916  67.5772438 118.1859935
  51.1617268  68.0481602 119.9150384  51.3791879  68.0311254 120.9829896
  50.5133069  69.4020901 119.5660019  51.3119856  70.1422611 119.6145656
  50.1493588  69.3277500 118.5412505  49.3705796  69.8272638 120.4811624
  49.3494375  69.3627267 121.6222129  48.5014588  70.6260393 120.0100490
  50.0776292  66.9151479 119.8276670  49.1606456  67.0494289 119.0586139
  50.1682399  65.8142113 120.5951832  51.0033146  65.7956816 121.1629914
  49.2448275  64.7503452 120.7254930  48.2302517  65.1036182 120.5412830
  49.5626160  63.5840073 119.7724980  50.5560910  63.2260135 120.0425871
  48.5481184  62.3887867 119.8117558  47.5544371  62.7459373 119.5413087
  48.8626541  61.6211876 119.1046775  48.5211243  61.9673060 120.8166063
  49.6750788  64.0175883 118.2337538  48.6651396  64.2718242 117.9120588
  50.2986774  64.9113082 118.2116410  50.2807927  62.9274765 117.2578993
  49.6574284  62.0335714 117.2791245  50.3115155  63.3243661 116.2431905
  51.2909661  62.6730537 117.5787085  49.3655703  64.2349788 122.1096691
  50.4700589  63.9825926 122.5710487  48.2631778  64.0780683 122.7973717
  47.4240204  64.3830524 122.3252501  48.1379113  63.5311885 124.1810016
  48.4642802  64.2599803 124.9229214  46.6785821  63.2165591 124.4220881
  46.4561733  62.2975184 123.8798725  46.5615587  63.0439816 125.4919584
  45.7832030  64.2400749 124.0066910  44.8806376  63.9697795 124.1908535
  48.9581536  62.2838416 124.4353486  48.9413328  61.3294087 123.6546759
  49.6398780  62.1713530 125.6111930  49.6329997  62.9366077 126.2703115
  50.5106143  61.0868389 125.8537985  51.1947663  60.9668984 125.0137691
  51.3494633  61.3391289 127.1494528  50.6580529  61.6030228 127.9497097
  51.8607577  60.4105438 127.4032396  52.3968780  62.4761440 126.9735291
  51.8722842  63.3726119 126.6430030  52.8603996  62.6633709 127.9421342
  53.5067774  62.1027119 125.9254734  54.0640432  61.2392875 126.2888632
  53.0316935  61.8546456 124.9763381  54.4400722  63.2038208 125.7076405
  54.1618071  63.9665969 125.1069405  55.6750364  63.1843224 126.1684237
  56.2593650  62.1785703 126.8227478  55.7421129  61.3303686 127.0046929
  57.2161537  62.2702358 127.1329934  56.3916977  64.2269489 126.1095555
  56.0141821  65.0735368 125.7084683  57.3372527  64.2067669 126.4639805
  49.8971146  59.6909619 125.8512025  50.3810760  58.8424280 125.1064962
  48.6847042  59.5223076 126.4556516  48.0118398  60.3857864 127.4070663
  47.3529733  61.0647705 126.8657939  48.7585950  60.9627971 127.9525150
  47.2161722  59.3842595 128.3466597  46.3179620  59.8028695 128.8006235
  47.8225287  58.9062447 129.1160328  46.8706287  58.3978734 127.2342967
  46.0586355  58.7847655 126.6186016  46.5725020  57.4446126 127.6707757
  48.0932394  58.2161416 126.4037869  48.8522925  57.5409862 126.7988841
  47.6238702  57.7134484 125.0616036  47.6023868  56.4809752 124.9071295
  47.2964499  58.5971514 124.0710992  47.0595298  59.5028203 124.4502194
  47.1510245  58.3826995 122.5757251  46.6915963  57.4067569 122.4190054
  46.3020800  59.4401174 121.8734839  46.7194489  60.4218501 122.0973214
  46.3490163  59.2622965 120.7991112  44.8001558  59.3871059 122.3493932
  44.2865541  58.5053864 121.9661376  44.7204650  59.4096239 123.4362438
  44.1662051  60.6271227 121.7737944  44.6354697  61.5051411 122.2176113
  44.3225068  60.6384211 120.6951186  42.6427138  60.6462252 122.0760878
  42.1568599  59.8870393 121.4631577  42.4941804  60.4112750 123.1300496
  42.0378289  62.0072084 121.7704674  42.1749766  62.2249190 120.7937933
  41.0491053  61.9899954 121.9759651  42.4875992  62.7107694 122.3386291
  48.5474451  58.2696562 121.8688032  48.7652406  57.2556221 121.2445558
  49.5358302  59.2512531 122.0015454  49.2400275  60.0743157 122.5066871
  50.9016496  59.2206302 121.4572564  50.9303607  59.2652990 120.3685510
  51.5485040  60.5183034 122.0258308  51.0076687  61.3647833 121.6026664
  51.4116658  60.5042293 123.1071158  53.0367211  60.6518105 121.7025602
  53.4716581  59.7018112 122.0130952  53.0758928  60.7308968 120.6161381
  53.9825702  62.0016917 122.4290031  53.5079488  63.3040746 121.2294126
  52.4263050  63.4377017 121.2464241  53.9936619  64.2418068 121.4993048
  53.8212688  63.0082137 120.2282142  51.7346925  57.9681999 121.8143667
  52.4752176  57.5373212 120.9290362  51.5944311  57.3533870 123.0198359
  51.0341712  57.8018205 123.7305507  52.3648696  56.1792514 123.3896198
  53.3975506  56.3194502 123.0702244  52.3495159  55.9228505 124.9241177
  53.1734890  55.2371619 125.1215984  52.5587080  56.8853976 125.3908531
  51.0055080  55.3231898 125.5261974  50.1413560  55.8812876 125.1658241
  50.9426420  54.2922835 125.1777979  50.9849569  55.3243577 127.0565389
  51.9254328  55.7972735 127.6879356  49.8991219  54.8468305 127.5876312
  49.8052247  54.8119768 128.5926536  49.1542951  54.5128333 126.9928369
  51.9402646  54.9776657 122.5455633  52.6865810  54.0243633 122.3552679
  50.6298089  54.9202016 122.2366446  49.9728500  55.5498470 122.6748807
  50.1004697  53.8491963 121.3680021  50.6806871  52.9366949 121.5050721
  48.6350290  53.5573606 121.7247436  48.6137152  53.3246972 122.7894092
  48.0806851  54.4781906 121.5434290  48.0023175  52.4310075 120.9526713
  48.6364272  51.5446559 120.9723280  47.1645049  52.2929550 121.6361263
  47.4744422  52.6462234 119.5395326  46.8410911  51.7486393 118.9688661
  47.5206609  53.8252833 119.0535044  50.3075064  54.1728985 119.8798093
  50.5051267  53.3177126 119.0366780  50.4679055  55.4223645 119.4666702
  50.2033929  56.1373224 120.1292166  50.9239328  55.8477774 118.1116264
  50.2652829  55.3728894 117.3844669  50.9643420  57.3895395 117.8199880
  51.4286800  57.8676835 118.6824657  51.7577710  57.7763513 116.5152133
  51.2937132  57.2989177 115.6521905  51.7387058  58.8583909 116.3851079
  52.7906740  57.4397706 116.6042446  49.5949944  57.9248652 117.6814831
  49.0422043  57.7535655 118.6051613  49.6413732  58.9949922 117.4795504
  49.0892580  57.4217177 116.8573629  52.3252566  55.2668125 117.8414999
  52.4532389  54.7068631 116.7634623  53.2588081  55.4072423 118.7589563
  53.0731066  56.0340654 119.5288310  54.5989537  54.8351169 118.6386601
  54.8418003  54.3705478 117.6829926  55.6461521  55.9692864 118.9256865
  56.6363432  55.5733024 118.7002591  55.3966727  57.2439210 118.0838014
  54.4067858  57.6407728 118.3090422  56.1512218  57.9926742 118.3248925
  55.4560701  56.9972196 117.0237485  55.7763209  56.3335583 120.4355590
  56.0897554  55.4531331 120.9965513  56.5173415  57.1237012 120.5566469
  54.8130235  56.6789466 120.8108802  54.8775560  53.5413154 119.4723300
  56.0098213  53.3382581 120.0365011  53.8713208  52.6367344 119.4352639
  52.9776385  52.8831303 119.0343645  53.9952664  51.3440079 120.1153592
  54.3135704  51.5975903 121.1265356  52.6081031  50.6342459 120.1926185
  52.2802265  50.3659565 119.1883189  52.6939619  49.7327013 120.7992038
  51.8795766  51.3074869 120.6443871  55.1050681  50.4088250 119.5172168
  55.3745221  50.4999160 118.3185100  55.5700869  49.4657826 120.3347024
  55.4791615  49.4958599 121.3401512  56.4089563  48.4623403 119.7602951
  56.9435261  47.9269957 120.5449864  55.5538724  47.4528130 118.9700487
  54.7328857  47.2394805 119.6545699  55.1537748  47.8414852 118.0335895
  56.2753569  46.1909316 118.6887404  57.2213943  45.8350880 119.3748727
  55.9791902  45.5039842 117.5882702  56.4662618  44.6420903 117.3882702
  55.2686800  45.8476230 116.9580415  57.6498820  48.9960864 118.9227174
  57.6810888  48.6882029 117.7663265  58.6084728  49.7611043 119.4377303
  58.6256829  49.8760558 120.4410195  59.5605184  50.5305744 118.6344658
  59.8514417  49.9582719 117.7535954  58.9008489  51.8943378 118.1584578
  57.8517705  51.7358172 117.9086478  58.9732453  52.5815819 119.0014016
  59.6364652  52.4972483 116.9368701  60.6952305  52.5368451 117.1928954
  59.4561561  51.7154615 115.6362687  58.3976137  51.6758305 115.3793325
  60.0056560  52.2100264 114.8352966  59.8364048  50.7021027 115.7651683
  59.0502296  53.8853463 116.6781644  59.1991080  54.5127555 117.5569660
  59.5494511  54.3371767 115.8210014  57.9835789  53.7971573 116.4718202
  60.8830825  50.7611908 119.3691611  60.9973955  50.7760034 120.5392091
  62.0192784  50.8464509 118.6613450  61.8459044  50.8947403 117.6675095
  63.4016035  50.8979658 119.1257160  63.4883835  51.2222903 120.1627222
  63.8857463  49.4416321 119.0240691  63.6886646  49.1714626 117.9866365
  64.9618917  49.5112520 119.1827011  63.2905564  48.3498043 119.9678345
  62.2243244  48.5617091 120.0474987  63.4320481  47.3294827 119.6114274
  63.8790195  48.4659976 121.2692811  65.0941979  48.2003801 121.3851079
  63.1560759  48.7552138 122.3634002  63.6121073  48.8275700 123.2616771
  62.1596072  48.8990638 122.2830343  64.2585992  51.8194496 118.2175546
  63.9358938  52.0266423 117.0847389  65.3895038  52.2588667 118.7380470
  65.3465061  52.3342341 119.7443126  66.5478905  52.8488522 118.0415843
  66.6943206  52.3193369 117.1001646  66.3637916  54.3584636 117.7376400
  67.1315232  54.6235882 117.0107312  65.3805054  54.5870354 117.3265400
  66.5821801  55.1752346 119.0430428  65.5134393  55.4281839 119.9271263
  64.5360454  55.0190550 119.6713644  65.6791581  56.1986333 121.1355074
  64.8418482  56.3065106 121.8249830  66.9064877  56.8371197 121.4110454
  67.0139678  57.6880984 122.4208232  66.1929902  57.8006520 122.9055160
  68.0113738  56.5024609 120.5871872  69.0141524  56.8105117 120.8832278
  67.8144509  55.7545972 119.3563296  68.6387241  55.6355918 118.6531145
  67.8387671  52.4297101 118.7589931  67.7642996  51.9017949 119.8704359
  69.0173102  52.5455956 118.1007531  68.7909551  52.6359673 117.1206023
  70.4082711  52.2157887 118.4704504  70.5525125  51.1504109 118.6500712
  71.2476032  52.6268481 117.2431029  70.8004006  52.2105061 116.3404576
  71.1039049  53.7072788 117.2540721  72.7339002  52.3138598 117.2621219
  73.5338082  52.7332655 116.3984750  73.1556429  51.6906629 118.2752501
  70.8533583  52.5131671 119.9660163  70.6417540  53.6020360 120.4961656
  71.5613018  51.5620024 120.6026604  71.4791207  50.6378676 120.2035107
  72.1688249  51.6936185 121.9169465  72.3073152  52.7518749 122.1383353
  71.3209125  51.0830938 122.9991046  70.3184221  51.4507320 122.7801195
  71.3435853  49.9996134 122.8822452  71.7030864  51.4564649 124.4680427
  71.7641110  50.5522193 125.3289735  71.8813105  52.6645318 124.7514884
  73.6856093  51.3309781 121.9753506  74.2967449  51.3485189 123.0776725
  74.3226045  50.9319887 120.8527404  73.7656166  50.7198526 120.0373496
  75.8076554  50.7880057 120.7538583  76.1088049  51.2546011 119.8159367
  76.2354140  51.3428642 121.5888756  76.3312328  49.3634957 120.7873860
  75.9349372  48.6179704 121.7017972  77.1613455  48.9959267 119.8132695
  77.2728242  49.6393269 119.0427450  77.7793149  47.6233840 119.6948744
  78.3556870  47.5472844 118.7728640  78.7352192  47.3746025 120.9022719
  78.1153706  47.5742729 121.7763535  78.9560494  46.3084886 120.8499713
  79.9223942  48.0885911 121.0040399  80.3908744  47.8190712 121.7974409
  76.6995397  46.5695868 119.4652768  76.9084742  45.3856792 119.7237652
  75.5887712  46.9672983 118.8816469  75.3977888  47.9463323 118.7231621
  74.5696102  45.9624863 118.4335970  74.3020246  46.2226721 117.4094874
  75.0622943  44.9902449 118.4440144  73.2946383  45.8838330 119.2768700
  72.3008307  45.1703467 118.9901755  73.3908730  46.6300945 120.4046726
  74.3210969  46.9124032 120.6786885  72.2901062  46.9495305 121.2859529
  71.6596545  46.0742238 121.4423758  72.8544271  47.4047751 122.6560972
  73.7027880  48.0668844 122.4829086  72.0755600  47.9459674 123.1932908
  73.3062414  46.2057504 123.4869507  72.5015610  46.0151413 124.1970623
  73.3802101  45.3710980 122.7898237  74.8571964  46.3681304 124.3810180
  75.9563102  45.6231892 123.1296262  75.8988769  46.1989936 122.2059110
  76.9824337  45.6284648 123.4972447  75.6451730  44.5964390 122.9370668
  71.2789412  47.9823774 120.7394737  71.6170622  48.8382365 119.9559219
  70.0200201  47.8634053 121.1743868  69.7573692  46.9655811 121.5552090
  68.9360751  48.8989618 120.9650259  69.3736742  49.8401810 120.6322909
  67.9489170  48.4064313 119.8876808  67.5006598  47.4841234 120.2571574
  67.1768459  49.1687900 119.7836835  68.6233062  48.1377853 118.4705875
  69.2292986  49.0071158 118.2153651  69.2658746  47.2622483 118.5635548
  67.5712793  47.8921595 117.3502066  66.7932260  47.2776508 117.8030983
  67.1629463  48.8728869 117.1062038  68.0925330  47.1932393 116.0268717
  67.5364460  47.5705145 115.1686577  69.1534446  47.4046488 115.8931859
  67.8885977  45.7091104 116.1422527  66.9055467  45.5129723 116.2657037
  68.2190244  45.2575207 115.3014287  68.4041422  45.3592519 116.9371816
  68.2683521  49.3472236 122.2699463  68.4447749  48.7452792 123.3018485
  67.4059122  50.3498220 122.2039250  67.3058052  50.6871302 121.2571932
  66.7250787  51.0986467 123.2956248  66.4828343  50.4017494 124.0979658
  67.5949825  52.2332562 123.8742115  67.1500694  52.5297418 124.8240788
  68.5882297  51.8209216 124.0518072  67.7078437  53.4712987 122.9480630
  68.0294231  53.1333028 121.9629507  66.7226371  53.9310797 122.8701436
  68.7276205  54.5171476 123.4973137  69.6909678  54.0505701 123.7031445
  68.8645233  55.3356457 122.7906186  68.1771322  55.0773833 124.7848305
  67.7237495  54.4319237 125.4156439  68.3575752  56.3281895 125.1822649
  69.1836399  57.1965618 124.5981583  69.7242574  56.9119719 123.7938939
  69.2650066  58.1349887 124.9626224  67.5486841  56.6915623 126.1390311
  66.8711027  56.0352051 126.4998340  67.6037796  57.6275536 126.5145087
  65.2949194  51.5671594 122.7741212  65.0848796  51.8888930 121.6149837
  64.3149663  51.6602067 123.6571791  64.5476145  51.4392454 124.6148587
  62.9346364  51.8776633 123.3244871  62.7307164  51.3980454 122.3671562
  61.9730666  51.3184020 124.3632395  61.0344670  51.1011096 123.8534217
  62.4047323  50.3909454 124.7395225  61.7063145  52.2811863 125.5473669
  62.7157533  52.3668060 125.9496149  61.3546626  53.2651900 125.2372430
  60.7757474  51.7239590 126.6226253  60.2785517  52.5050421 127.4155834
  60.6343288  50.4663853 126.8199659  62.6622452  53.3319394 122.9922146
  63.2506764  54.2507259 123.5290927  61.9292314  53.5644903 121.8952589
  61.4823294  52.7577559 121.4834853  61.8430151  54.8490546 121.1830564
  62.6958012  55.4773813 121.4400786  61.7931892  54.6970117 119.7039870
  60.9389698  54.0776650 119.4304564  61.6929703  55.6784586 119.2405018
  62.7110683  54.2233544 119.3557832  60.6677694  55.5287454 121.8183319
  59.5539123  55.6533306 121.2602666  60.7749716  55.8004673 123.1095905
  61.5873631  55.5099916 123.6347031  59.6706443  56.3301703 123.8199876
  58.7683694  55.7802931 123.5523419  59.8364577  56.2854778 125.3279894
  59.9492115  55.2350119 125.5961466  61.0545458  57.1052489 125.8956925
  60.9422498  58.1559619 125.6283136  61.0842684  57.0082145 126.9809575
  61.9817518  56.7200068 125.4714541  58.7080927  56.7570675 126.0765838
  58.8979784  56.6939024 127.0154948  59.2483039  57.7152842 123.3439172
  60.1053374  58.4150076 122.8241259  58.0010393  58.1419339 123.6305231
  57.3863639  57.4018183 123.9379355  57.4589018  59.4587672 123.4876004
  57.2343685  59.6759362 122.4433200  56.1581789  59.4522352 124.2726548
  56.3676237  59.2451109 125.3220987  55.6749766  60.4252763 124.1842985
  55.4974164  58.6816252 123.8756002  58.4169560  60.5371243 123.9487685
  58.5416963  61.4534056 123.1259766  59.0004114  60.4286060 125.1831657
  58.6795801  59.7141951 125.8209617  59.9555404  61.4336476 125.6829249
  59.4475260  62.3911135 125.7981619  60.5280511  61.0263551 127.0214963
  60.9069495  60.0085192 126.9290557  61.3608591  61.7099124 127.1866634
  59.5484629  61.1060154 128.2214306  59.6192727  60.2694563 129.1697158
  58.6984950  62.0665627 128.2377206  61.0449311  61.7843492 124.6081345
  61.1078182  62.9224183 124.1498716  61.8482385  60.7938223 124.2397819
  61.5346275  59.9201408 124.6378122  63.0344561  60.7749540 123.3464070
  63.7868093  61.4059476 123.8195991  63.6450019  59.4413751 123.0529698
  62.8018554  58.7828472 122.8442972  64.3065972  59.4691883 122.1871649
  64.4323795  58.9029712 124.2936179  64.6759511  59.5632486 125.3178223
  64.8856956  57.7884013 124.1727030  62.7300091  61.2891800 121.9345820
  63.4279387  62.0780652 121.2815611  61.5355748  60.9085570 121.4599727
  61.0151572  60.2680013 122.0421695  60.9322951  61.3289020 120.1418192
  61.6692567  61.2356588 119.3441399  59.7620895  60.4499904 119.8179330
  59.0500736  60.3319201 120.6347513  59.2836836  60.9780552 118.9930843
  60.2139909  59.1009145 119.3512625  60.8489231  58.5959613 120.0792625
  58.8994495  58.3314575 119.2006676  58.2641338  58.8355872 118.4724327
  59.1083777  57.3175150 118.8595367  58.3883733  58.2925343 120.1626377
  60.8321725  59.0096638 117.9785944  61.7199074  59.6407481 117.9366558
  61.1116220  57.9762764 117.7733635  60.1123909  59.3459258 117.2323094
  60.4571299  62.8052073 120.1319244  60.8582242  63.5712688 119.2070617
  59.7920686  63.2031232 121.2093999  59.4018425  62.5210210 121.8438756
  59.5042083  64.6494645 121.4585573  58.9400368  65.1093464 120.6471891
  58.7836510  64.9283853 122.8170422  58.9360943  64.0494188 123.4433643
  59.2829367  66.1784794 123.5588699  59.1303883  67.0579749 122.9333165
  58.7282632  66.2948542 124.4899418  60.3447461  66.0704133 123.7801884
  57.2826817  64.9610727 122.6419938  57.0150337  63.9381505 122.3772383
  56.8957179  65.1920524 123.6344690  56.6702000  65.9377376 121.6097871
  57.0563656  65.7070640 120.6169298  55.5851356  65.8341309 121.6101450
  56.9370520  66.9609663 121.8741595  60.8410131  65.4629378 121.3453399
  60.8176269  66.6176317 120.8672144  61.9537046  64.9445980 121.7831510
  61.8596820  64.0290535 122.1991285  63.2215204  65.6113060 121.8841541
  63.0812850  66.6589524 122.1503687  64.0719854  64.9251947 122.9942360
  63.4768385  64.8498952 123.9043071  64.3539735  63.9262781 122.6614473
  65.3442327  65.7502936 123.2789472  66.0164734  65.7217928 122.4214036
  65.0849306  66.7851429 123.5024453  66.0863624  65.0816445 124.5761534
  65.5281550  65.3099744 125.4841011  66.1515843  64.0006426 124.4525393
  67.5203030  65.6787154 124.6849172  67.9035282  65.2707838 125.6202411
  68.0548541  65.2302809 123.8475041  67.7160557  67.1206985 124.6686815
  67.2211614  67.5363770 125.4448198  68.7014479  67.3275794 124.7480695
  67.3614047  67.4988405 123.8018883  63.8423772  65.7228766 120.5797087
  64.0376873  66.8814010 120.1143216  64.0334398  64.5806516 119.8681203
  63.7540208  63.7079529 120.2928806  64.7956901  64.5316419 118.6008747
  65.5988060  65.2458279 118.7826501  65.4387402  63.1185089 118.2702406
  65.9494388  62.7841418 119.1732825  64.4737477  62.0903968 117.8429001
  63.9629494  62.4238722 116.9395838  65.0013312  61.1587584 117.6384350
  63.7420457  61.9268843 118.6340875  66.3201595  63.2121499 117.0503925
  67.1192794  63.9305464 117.2331923  66.7527669  62.2344438 116.8381629
  65.7264901  63.5392497 116.1967748  63.9304384  65.0926465 117.4838867
  64.4043920  65.8828504 116.6727327  62.5371216  64.9524271 117.5237108
  62.1468024  64.2579233 118.1445286  61.6590802  65.5434447 116.4937897
  62.2559891  65.4493684 115.5866246  60.3082433  64.8733198 116.2603108
  59.7548581  64.9778414 117.1935520  59.4674918  65.4287419 115.1023646
  60.0200693  65.3241374 114.1686532  58.5313384  64.8746309 115.0339665
  59.2531993  66.4824280 115.2810432  60.5384167  63.4241256 115.8398464
  61.0781102  62.8981238 116.6273457  59.5778969  62.9373736 115.6708086
  61.1238461  63.4005470 114.9207070  61.5279162  67.0476601 116.5387147
  61.2791869  67.7048409 115.5532529  61.7597330  67.6539773 117.7098310
  61.5774676  67.1260021 118.5513302  62.0880924  69.0650294 117.8386599
  61.3895850  69.6790368 117.2701692  61.9836210  69.4695485 119.3858037
  61.0847471  69.0003473 119.7857727  62.8602879  69.0622766 119.8894750
  61.9161299  71.0060170 119.6238025  62.2120108  71.1881164 120.6569507
  62.6372046  71.4721770 118.9523525  60.4621541  71.6335786 119.3657040
  59.6441218  71.3371434 120.3108112  60.1196682  72.3356631 118.3728019
  63.3663823  69.5246260 117.2167017  63.3298846  70.3526060 116.3018542
  64.5073203  68.9401518 117.6018309  64.4210403  68.3935232 118.4467286
  65.8348689  69.0716614 116.9909431  66.2450650  70.0588269 117.2038815
  66.7837770  68.0173837 117.5541791  66.3361407  67.0314811 117.4288109
  67.7270729  68.0594589 117.0096402  67.0391436  68.2729312 119.0282674
  66.1161727  68.4259440 119.5875639  67.4814790  67.3180890 119.3123711
  67.9857283  69.3636231 119.3336943  68.2555450  70.2645235 118.5191617
  68.4402164  69.5287326 120.4146598  65.7656611  68.9901645 115.5008456
  66.2490290  69.9085610 114.8218998  65.1741640  67.9678435 114.9456042
  64.8986975  67.2146974 115.5595982  64.9466623  67.8114352 113.5168364
  65.8642695  67.6661068 112.9467699  64.1067275  66.5206504 113.4361263
  64.7436098  65.7708209 113.9054193  63.1841496  66.6221528 114.0076570
  63.7692314  66.0774161 111.9790207  63.3924721  66.9126832 111.3886970
  65.0587471  65.5913643 111.3900520  65.4359122  64.7557399 111.9796087
  64.8897832  65.2644838 110.3640397  65.7897669  66.3998533 111.3975323
  62.6225202  65.0414255 112.1224291  61.7660560  65.5112710 112.6059720
  62.3303847  64.6830574 111.1353473  62.9646307  64.2013298 112.7268285
  64.2544702  69.0619037 112.8892022  64.6499083  69.5384028 111.8409435
  63.0807406  69.4658298 113.4298597  62.7856175  68.9727820 114.2604652
  62.1736980  70.4659350 112.8553717  62.2979438  70.5935274 111.7800195
  60.7301557  70.1441822 113.1381239  60.1271642  70.9490934 112.7178626
  60.2838695  68.8264883 112.5572381  60.8861387  68.0209888 112.9774071
  59.2343589  68.6589682 112.7992375  60.4079917  68.8454673 111.4744943
  60.3328455  70.1637860 114.5353387  59.4003667  69.9467577 114.6059236
  62.4640235  71.9271082 113.2811708  61.9345449  72.9002888 112.6924179
  63.4665773  72.1703642 114.1132605  63.8501503  71.3167609 114.4931716
  63.9004344  73.4769671 114.7164959  63.2419475  74.2825971 114.3917583
  63.8333165  73.3747938 116.2623658  62.8720851  72.9290507 116.5181907
  64.6372183  72.7109508 116.5804137  63.9763347  74.7367411 116.9790682
  64.9875662  75.1178656 116.8367449  63.2598757  75.4441410 116.5614872
  63.7033326  74.5579235 118.4806405  63.6291814  75.5429017 118.9415293
  62.7586290  74.0281156 118.6028626  64.7629480  73.7964404 119.1628226
  65.5994630  73.6661879 118.6120264  64.7771333  73.4289973 120.4034258
  63.7440433  73.3595329 121.1958391  62.8281285  73.6067586 120.8493143
  63.8645380  73.0588257 122.1524769  65.8502723  72.9315380 120.9186423
  66.6792370  72.8297895 120.3506944  65.8563226  72.6462093 121.8874816
  65.2102187  73.9596618 114.0417686  66.3119098  73.8219228 114.5970106
  65.0181634  74.3849301 112.8147480  64.0840531  74.1802891 112.4896951
  65.9028628  74.9939545 111.9345440  66.8575498  74.4692525 111.8976678
  65.3706969  75.2153200 110.4733453  64.5499160  75.9305108 110.5273936
  66.4111735  75.7243052 109.5381354  67.2321277  75.0093804 109.4832034
  65.9769342  75.8549862 108.5469445  66.7873551  76.6817446 109.8985470
  64.6680557  73.9375725 109.9141945  63.8109140  73.7804299 110.5689579
  64.3190070  74.2219539 108.9215255  65.4796161  72.6443524 109.8179002
  65.8286379  72.3590687 110.8103199  64.8525451  71.8506578 109.4117845
  66.3367326  72.8005936 109.1628889  66.3252622  76.3543420 112.5391717
  67.5531415  76.5839239 112.5763008  65.4090572  77.2641742 112.9273363
  64.4459720  77.0339893 112.7283863  65.7142468  78.6212570 113.5023674
  66.6790322  78.9536541 113.1192217  64.6462168  79.6794930 113.1375382
  63.7363464  79.6525992 113.7371313  65.1168982  80.6576771 113.2361025
  64.2246188  79.5520024 111.7201027  65.1079416  79.4691811 110.6149998
  64.3758761  79.3158019 109.4900087  64.8307753  79.1706964 108.5101566
  63.0495041  79.3845924 109.8728011  62.2625923  79.2972584 109.2457106
  62.9580311  79.5887481 111.2284571  61.9832223  79.7390368 111.6924206
  65.9341183  78.5422818 115.0040902  64.9665186  78.0848570 115.6935532
  66.9925687  78.9082701 115.4722797  72.7085809  61.9347853  40.8226026
  74.8658891  56.2821016  41.4022727  73.2552176  56.0313893  44.0732841
  68.1610161  55.7899561  46.0991177  66.4360155  54.8278609  44.4611036
  68.8747324  54.4641621  44.1174026  73.7252135  58.3278026  47.2524585
  71.5156441  58.1433366  48.1364999  73.2002190  58.3830094  45.9578517
  70.9883203  58.2136431  46.8513573  67.7886620  58.9871783  43.1848137
  67.3222458  57.8069675  44.0438925  71.2708401  58.3755722  44.4084699
  72.8901224  58.2364937  48.3411492  71.4102972  61.3418424  41.3784095
  71.8308380  58.3281198  45.7332370  73.7626111  57.2562214  41.8815733
  73.0357517  57.1687626  43.0629249  69.9415553  60.0851369  42.2797942
  70.0031155  58.8107130  44.3193588  70.2361622  61.9922306  41.4044485
  69.3455257  61.2455985  41.9479124  66.3648477  57.9116204  44.8107541
  68.0130480  56.6847402  43.8891437  73.2381671  58.6090457  40.9478576
  72.0962991  58.2187402  43.2564286  72.1000291  59.1020517  42.1583868
  69.2982124  58.8865925  43.0059225  67.8342607  55.4451993  44.6682191
  71.2373484  60.1380097  41.9659651  73.5885925  58.1628426  49.9407545
  73.9509262  56.9863109  50.3528667  75.0326037  46.8161685  54.8903027
  72.4795952  46.2720716  55.9435488  79.5339191  45.6005610  55.3173910
  75.7151415  44.2810118  52.6017985  72.0206736  46.0206979  53.7736661
  76.8709064  44.1271429  51.8420368  76.1601401  57.3395288  50.5351628
  77.3874563  45.2579671  53.6538055  75.1743131  56.6458698  50.7663343
  75.3010273  55.3654768  51.5328831  74.1823607  54.6254600  51.9007353
  74.3213279  53.4040814  52.5389519  76.5608495  54.8507154  51.8236849
  76.6959940  53.6292503  52.4603591  75.5797455  52.8789373  52.8292788
  75.7241382  51.5289990  53.4320841  76.9821915  50.9715834  53.6667745
  77.1149700  49.6845724  54.1599840  75.9924241  48.9105502  54.4362742
  76.1080128  47.5143741  54.9075410  75.1603740  45.3507559  54.8619858
  73.7712341  44.7124157  54.7754647  72.6633651  45.7252606  54.7459615
  71.4337155  47.2668188  56.0337236  76.0412636  44.9589355  53.6803998
  77.8574099  44.7104305  52.4763517  79.2663979  44.7763874  52.0154521
  77.9942984  45.9950220  54.6771459  77.3999851  47.0430887  55.3003487
  78.2324074  47.5568437  56.3586851  77.8566374  48.6985537  57.2551327
  79.4043728  46.8759563  56.4752332  80.5264276  47.0909920  57.4445203
  74.7358074  49.4611524  54.2094268  74.6067283  50.7481189  53.7167761
  73.2558461  56.4846742  50.5606584  73.2778499  54.9525939  51.7194765
  73.5150079  52.9063748  52.7855795  77.3647642  55.3518398  51.5789369
  77.5965206  53.2980445  52.6497754  77.7913334  51.4911231  53.4819478
  78.0148004  49.3285297  54.3090810  75.5997542  45.0657928  55.6886042
  73.5891524  44.1170848  55.5291711  73.6827091  44.1469971  53.9814740
  71.2941250  47.5315960  56.9664768  71.6461142  48.0436047  55.4767249
  70.6068427  46.8668336  55.6975836  79.7020281  45.5683984  52.3941948
  79.7732814  43.9968649  52.3199956  79.3215365  44.8536807  51.0426647
  78.5381772  48.8505191  57.9413834  77.7717822  49.5358406  56.7578399
  76.9992725  48.5203886  57.6933344  81.1942827  46.3787173  57.3651460
  80.9890808  47.9404032  57.2927614  80.1786867  47.0884734  58.3596569
  73.9306180  48.9383909  54.3982533  73.7049593  51.1013668  53.5713439
  72.5134727  62.9073986  40.4217570  73.0885911  61.2994487  40.0493299
  73.4309683  62.0116660  41.6082704  75.2436512  56.6084118  40.4555169
  74.4546693  55.2990964  41.3030910  75.6619527  56.2658717  42.1168896
  74.0096986  55.3674093  43.7051943  72.3412677  55.4924061  44.2077598
  73.5681838  56.4424077  45.0101480  69.1434366  56.2103698  46.1497448
  68.1212989  54.9037233  46.6978355  67.4505868  56.5007327  46.4656213
  65.6916679  55.4968389  44.8394567  66.3769350  53.8959977  44.9839471
  66.2700375  54.6628655  43.4171501  69.8551178  54.8718427  44.2502899
  68.6942197  54.3012549  43.0749932  68.8011172  53.5343872  44.6417902
  74.7475881  58.3552206  47.3920744  70.8840924  58.0210004  48.9435615
  73.8424743  58.4656235  45.1537198  69.9652912  58.1817159  46.7175067
  67.3086621  58.9501925  42.2292614  67.5363324  59.9104308  43.6618059
  69.4118534  57.9999155  42.4174239  72.8643790  58.5421376  50.6316575
  74.4893700  58.7383243  49.8874473  64.5594199  51.2147396  87.1451672
  56.3439233  75.7006133 119.6903788  33.9367305 112.3292955  86.2084452
  37.4430649  65.6745905  62.2108260  50.4454265  95.0249217  68.2979214
  77.4203941  58.8324017 102.2841247  67.8487535 104.2664956  98.5618683
  66.3601995  78.4108724  47.6702231  47.0764291 103.3783952 111.1770116
  86.9175732  90.6637158  67.3724795  72.4583940  32.6349731  65.5594269
  75.9590084  52.3786472 128.3215685  31.8880455  89.1220506 118.9933699
  69.3781695 109.7414569  79.8185209  12.2188359 110.6894777  81.2410488
  63.5308540  93.2247830  57.4699890  83.2602937  69.5437257 113.3706483
  68.4471627  47.8882648  92.3379091  84.9954178  94.5389444 112.4480209
   4.3585075  92.3305149  82.9798110  24.2854759  96.1084370 107.3792922
  93.8029283  64.3665381  68.2979220  57.6077868  55.5528609 132.1643174
  79.0972342  61.6171800 154.2358716  79.3497863  61.0953321 153.4742179
  78.1596901  61.4537945 154.3385400  84.1282887  62.1082578 155.5304795
  83.6129510  62.8787183 155.7693183  83.8560195  61.4347714 156.1537857
  80.5068222  63.9580104 152.0092503  79.5995284  63.7269357 152.2083652
  81.0039254  63.1617723 152.1966485  81.3832543  65.6001442 153.8704572
  80.9451973  64.8837301 153.4110209  82.1242984  65.8277557 153.3089663
  85.5043771  64.4585824 153.4636630  84.8872941  63.7332652 153.3669682
  85.0360259  65.2195184 153.1203704  81.8554708  61.6885659 152.4520159
  82.8013813  61.5591867 152.5208577  81.4768953  60.9500321 152.9289587
  80.0397626  59.6135635 152.3875044  79.1329081  59.3168748 152.4637758
  80.3173607  59.3165453 151.5209330  82.8350438  45.3752119 142.9298438
  82.1838418  45.9606200 142.5432452  83.6294801  45.9058314 142.9893476
  79.0972343  38.6233923 140.9604023  79.3497864  38.1015444 140.1987486
  78.1596902  38.4600068 141.0630706  84.3125703  43.0642551 143.4667423
  83.6771536  43.1377178 144.1788327  83.9823110  43.6536150 142.7886502
  78.5401773  50.2423375 146.4973233  78.4625802  51.1931200 146.5761714
  77.9363416  49.8969247 147.1548160  86.4779947  37.9441206 143.6763436
  87.3897803  38.1768593 143.5011134  85.9689594  38.5278250 143.1138515
  88.9638761  43.8621462 148.4221381  88.2789799  44.2420364 147.8718415
  89.0482610  44.4716789 149.1553329  80.8140142  45.6005527 145.2178773
  80.6785816  46.4457063 145.6463621  81.3549954  45.8024805 144.4544707
  84.1282888  39.1144700 142.2550102  83.6129511  39.8849305 142.4938489
  83.8560196  38.4409837 142.8783163  89.1017162  41.8677055 144.1903275
  88.3246605  41.5288215 143.7458437  89.7808643  41.8729678 143.5158240
  80.5068223  40.9642226 138.7337810  79.5995285  40.7331480 138.9328959
  81.0039255  40.1679845 138.9211791  83.4136302  49.6739733 141.6534496
  82.7398001  49.9771430 142.2619454  83.8002124  50.4768814 141.3039953
  81.6856457  41.0654821 143.2561800  80.7767676  40.7813854 143.3534270
  81.7151540  41.4853900 142.3965107  86.9175724  44.6761411 147.0252968
  86.4638051  43.8352320 147.0818158  86.2869691  45.3122809 147.3627748
  85.3608663  46.5137907 147.9602786  85.6531638  47.0742964 147.2415151
  85.8707284  46.8066468 148.7155945  81.3832544  42.6063565 140.5949879
  80.9451974  41.8899424 140.1355516  82.1242985  42.8339680 140.0334970
  89.5005659  40.8820762 146.6526197  89.3623558  41.0722358 145.7247386
  89.1441878  41.6440145 147.1094248  81.6127517  49.8419406 143.8681575
  81.7879273  49.3707449 144.6827198  80.9260305  50.4685172 144.0962836
  85.5043772  41.4647946 140.1881936  84.8872943  40.7394775 140.0914989
  85.0360260  42.2257307 139.8449010  80.4806244  48.0359661 146.5565761
  79.6973766  48.5781341 146.6503985  81.1798989  48.5533641 146.9560002
  86.3281457  44.7887118 144.3074576  86.6041301  44.6743713 145.2168450
  85.4585956  44.3904603 144.2686749  82.9635521  49.0373469 147.9507390
  83.1457916  48.2195125 148.4135142  83.7868507  49.2541161 147.5132280
  83.2977687  47.9641654 145.2122438  83.8265453  47.4534109 144.5992600
  83.5605906  47.6484184 146.0767971  86.3917870  47.9358452 145.8277421
  86.5654748  47.3704875 145.0751273  86.8846761  48.7359347 145.6456911
  92.2457261  40.6994875 147.4467721  92.6888407  39.9502201 147.0486844
  91.3683772  40.6905012 147.0641453  87.3793043  47.2525217 142.9274319
  88.0743947  47.8731910 143.1461634  87.7216193  46.4020568 143.2026697
  89.2784466  44.7024922 144.4561650  89.8035790  45.0412195 143.7310970
  89.1906818  43.7671938 144.2724785  77.9712506  44.8638838 144.3637665
  78.1200626  45.5474302 143.7104338  78.7778949  44.8443928 144.8787121
  81.4707911  47.3586969 141.8349413  80.8981878  47.9777156 141.3819885
  82.0440705  47.9086330 142.3689335  84.6905171  47.6424119 142.9657995
  85.6235844  47.5769680 143.1690871  84.6028384  48.4780386 142.5072528
  87.3193188  46.9589989 139.9261943  87.2406819  46.6249853 140.8197701
  88.1402854  47.4511757 139.9253415  81.8554710  38.6947781 139.1765465
  82.8013814  38.5653989 139.2453883  81.4768955  37.9562443 139.6534894
  80.0397627  36.6197758 139.1120351  79.1329082  36.3230870 139.1883064
  80.3173608  36.3227576 138.2454637  84.8897139  44.2757984 139.5471921
  85.5932990  44.4807987 140.1629577  84.1659788  44.8434746 139.8121005
  86.7983837  44.7140514 141.5970381  87.6329441  44.2821712 141.4147856
  86.6368180  44.5422527 142.5247276  86.4529729  41.2172627 142.9626720
  86.3978533  41.0516898 142.0215165  85.8275784  41.9248660 143.1188910
  95.4268112  55.2310165 151.6925558  96.0646522  55.1116912 150.9888898
  95.3088955  56.1791009 151.7513510  92.2357818  55.1837593 151.6287083
  91.8976330  55.0678658 150.7407617  93.1047586  54.7828758 151.6088089
  88.0944634  57.0373069 147.6183974  87.5309499  56.9463006 146.8500261
  87.9797029  56.2172974 148.0986466  85.6409066  58.5324261 150.4568194
  86.4330358  58.1915085 150.0414493  85.8805716  58.6419236 151.3770347
  93.6744193  60.7044037 142.9298438  93.0232172  61.2898117 142.5432452
  94.4688555  61.2350232 142.9893476  87.5999820  57.7933174 143.3285573
  88.3730696  57.2462161 143.1898449  87.9525219  58.6577423 143.5400034
  90.3641069  56.4986405 153.1253832  90.9604641  56.2742427 152.4110795
  90.4216041  55.7571150 153.7279280  89.9366098  53.9525840 140.9604023
  90.1891618  53.4307361 140.1987486  88.9990657  53.7891986 141.0630706
  94.9809380  52.9561619 148.7678766  95.7672470  52.5381042 148.4169183
  95.2448085  53.8607711 148.9360414  95.1519458  58.3934469 143.4667423
  94.5165291  58.4669095 144.1788327  94.8216864  58.9828068 142.7886502
 100.3817808  52.8936852 149.6711744 101.1142979  52.3236069 149.9049574
  99.6257163  52.5058452 150.1118250  89.6562386  55.8553946 143.1628398
  89.5398644  55.1798850 143.8309482  89.7664646  55.3686320 142.3460551
  91.9993927  55.3164093 146.8675087  91.6352135  54.7894714 147.5788008
  92.8561043  54.9262562 146.6941572  91.6399414  50.3453993 141.8636435
  91.8073817  51.2134229 142.2306906  91.4496583  50.5081275 140.9397725
  87.8487229  55.2584769 149.5638970  86.9237725  55.1260983 149.7716662
  88.0971642  56.0378988 150.0608913  97.7971891  51.3253512 151.2099703
  96.8888769  51.2568920 150.9158464  97.7459487  51.8025457 152.0381529
  91.6188635  52.8011650 142.8483102  91.4988260  53.2468701 143.6868582
  90.9241224  53.1496968 142.2896640  85.2096040  54.9018042 150.3982759
  85.3388421  55.1552521 151.3122171  84.5293491  55.4945750 150.0787414
  89.3795527  65.5715292 146.4973233  89.3019557  66.5223117 146.5761714
  88.7757171  65.2261165 147.1548160  97.3173701  53.2733124 143.6763436
  98.2291557  53.5060510 143.5011134  96.8083348  53.8570168 143.1138515
  95.9243284  58.2558942 151.0677018  95.2952146  58.4204656 150.3653086
  95.5368946  58.6700552 151.8387982  99.8032515  59.1913380 148.4221381
  99.1183554  59.5712281 147.8718415  99.8876365  59.8008707 149.1553329
  94.6609676  49.4491160 151.9253297  93.7994155  49.7472413 152.2170035
  94.6872111  49.6661559 150.9934330  91.4771245  57.9933350 148.3327103
  91.9409591  58.2721053 147.5431725  91.2128044  57.0916795 148.1500193
  88.3695327  57.5404832 151.2706866  88.9396684  57.9692100 150.6324351
  88.9603438  57.2587416 151.9691052  90.4140132  54.1156503 145.1416668
  91.1164175  54.5677546 145.6090594  90.0820760  53.4740321 145.7696561
  84.1565465  52.3740055 150.4433802  83.3664519  52.6297584 149.9673912
  84.6476713  53.1888393 150.5485842  86.1080211  52.7384634 147.4017278
  85.3111374  52.8503329 147.9200774  85.8805803  53.0771287 146.5358169
  91.6533896  60.9297445 145.2178773  91.5179571  61.7748981 145.6463621
  92.1943709  61.1316723 144.4544707  85.1063294  58.4472883 145.7906698
  85.6187814  59.2416133 145.9412263  85.7586006  57.7499174 145.7240300
  86.9158178  61.5638639 147.8729451  87.0924807  62.4856604 147.6850435
  87.7115012  61.2497059 148.3023831  88.0389494  63.0816813 153.8739794
  88.5896919  62.9533877 153.1016788  87.2000970  63.3811702 153.5234687
  83.0712210  56.7761538 146.5666269  83.9087432  57.1858546 146.3499977
  83.2490478  55.8360980 146.5366463  94.9676642  54.4436618 142.2550102
  94.4523266  55.2141223 142.4938489  94.6953951  53.7701754 142.8783163
  92.5523753  49.2886319 147.3135340  91.6965350  48.8993169 147.1340979
  92.9650705  49.3678280 146.4535126  94.0822900  46.8232662 151.7126900
  93.5787696  46.7862797 150.8994705  94.3753507  47.7325405 151.7723557
  99.9410917  57.1968973 144.1903275  99.1640359  56.8580132 143.7458437
 100.6202398  57.2021596 143.5158240  94.7562946  52.3163710 144.0809883
  94.4513081  52.6309859 144.9320026  95.7093388  52.3945130 144.1237216
  93.2009377  58.4753934 145.7302837  92.6730739  57.7406693 145.4176074
  92.6996880  59.2528610 145.4842805  98.1802223  56.6702954 150.8469883
  97.5225898  57.3602215 150.9350012  98.9842623  57.0599386 151.1903870
  87.9328105  49.1373600 148.0909448  88.5071857  48.9148781 147.3582641
  88.5199088  49.2062294 148.8438050  96.9907682  55.0247327 148.8973825
  97.5039564  55.6577319 149.3995535  97.6408906  54.4248522 148.5317185
  88.2597692  51.1678061 142.1105334  87.4235004  51.5052747 142.4314608
  88.1202462  51.0327041 141.1732471  90.2350773  46.0114849 146.8184518
  89.5815185  45.6963866 146.1941133  90.1931247  45.3890589 147.5444341
  91.3461978  56.2934144 138.7337810  90.4389039  56.0623397 138.9328959
  91.8433010  55.4971763 138.9211791  94.2530057  65.0031651 141.6534496
  93.5791755  65.3063348 142.2619454  94.6395878  65.8060731 141.3039953
  93.4688513  52.4996782 151.1432165  92.5511075  52.7211729 150.9853854
  93.8848657  52.5743093 150.2843873  94.2523561  53.8988198 146.2734846
  94.9995380  54.4109595 145.9641968  94.5215150  53.5772251 147.1339239
  92.5250211  56.3946739 143.2561800  91.6161430  56.1105772 143.3534270
  92.5545295  56.8145817 142.3965107  97.7569478  60.0053328 147.0252968
  97.3031806  59.1644238 147.0818158  97.1263445  60.6414727 147.3627748
  96.7002398  50.9345314 148.2553635  95.9625155  50.4222700 148.5863878
  96.9529172  50.4945696 147.4436912  96.2002418  61.8429825 147.9602786
  96.4925392  62.4034882 147.2415151  96.7101038  62.1358386 148.7155945
  83.0938381  54.1152253 147.2377002  82.8962781  53.5221614 146.5128069
  82.5385045  53.8104463 147.9552941  91.0735105  54.0075359 149.3571595
  91.1283715  53.0549196 149.2814072  90.2626307  54.1634798 149.8412894
  92.2226299  57.9355482 140.5949879  91.7845729  57.2191341 140.1355516
  92.9636740  58.1631597 140.0334970  89.0127465  52.6252419 147.1161974
  88.1995331  52.9246590 147.5227166  89.5086459  52.2308108 147.8336456
  91.1636043  62.6210176 149.0496239  91.1212222  62.8471022 148.1204771
  92.0798742  62.3873551 149.1982040 100.3399414  56.2112679 146.6526197
 100.2017312  56.4014275 145.7247386  99.9835632  56.9732062 147.1094248
  89.2801844  59.4973205 148.8458202  90.0742442  59.0023525 148.6440777
  88.5693536  58.9691068 148.4825907  85.5884607  53.6416287 144.9217954
  84.6582195  53.5800742 145.1387916  85.6842079  53.1192239 144.1254596
  85.5070156  50.1671100 147.5096196  85.7676974  51.0816433 147.4005356
  86.3287329  49.6995542 147.6592809  93.0584788  56.0451563 154.7557501
  93.9876848  56.1962722 154.5826468  92.6375818  56.1335583 153.9006148
  91.8573120  60.0702227 152.5256039  91.7184205  59.7021011 153.3981977
  91.0687716  60.5849866 152.3539997  92.4521272  65.1711323 143.8681575
  92.6273027  64.6999367 144.6827198  91.7654060  65.7977090 144.0962836
  93.4078335  59.4483830 149.9144877  93.0728167  59.4084600 150.8102526
  92.9082281  58.7828546 149.4415287  96.3437526  56.7939864 140.1881936
  95.7266697  56.0686692 140.0914989  95.8754015  57.5549224 139.8449010
  88.1336072  51.0125288 139.3103240  87.2565539  50.8914089 138.9465487
  88.6093825  50.2211367 139.0582129  79.6538213  55.8002448 149.4044748
  80.3409252  55.4864178 148.8165763  79.4986341  56.7043813 149.1311999
  91.3199998  63.3651579 146.5565761  90.5367520  63.9073259 146.6503985
  92.0192744  63.8825558 146.9560002  94.6296649  49.1746208 149.1999966
  95.1265348  48.4216170 148.8801037  93.8583630  49.2110525 148.6343176
  95.7126429  57.9317895 146.7738390  94.7782708  58.0519358 146.6043094
  95.8903098  57.0290362 146.5098400  91.2131617  51.3163591 148.9271651
  90.8429405  50.7634632 149.6152557  91.7090710  50.7121725 148.3746651
  99.0998981  53.7735215 147.3088424  99.5659433  54.6063206 147.2348727
  99.5506481  53.3080196 148.0133682  97.1675212  60.1179036 144.3074576
  97.4435056  60.0035631 145.2168450  96.2979710  59.7196521 144.2686749
  96.8422102  54.3305694 153.8479219  96.1893552  54.5781601 153.1931672
  97.2202482  53.5169832 153.5141697  93.8029276  64.3665387 147.9507390
  93.9851670  63.5487043 148.4135142  94.6262262  64.5833079 147.5132280
  94.1371441  63.2933572 145.2122438  94.6659208  62.7826026 144.5992600
  94.3999661  62.9776102 146.0767971  84.6388534  61.3097441 152.9557772
  85.2241971  60.5641129 153.0885676  84.4413372  61.6201398 153.8394435
  87.4927189  64.3448689 147.9720214  86.8237564  64.8294816 147.4884254
  87.3540059  64.5917909 148.8863593  82.8614766  52.6067144 144.7516146
  83.1568207  51.6977822 144.6983200  81.9602802  52.5854883 144.4297148
  86.3909013  50.6823140 150.7343695  85.6695599  51.2959108 150.5951168
  87.1802269  51.2180905 150.6560341  84.5902608  50.2881241 144.8755471
  84.2615314  49.4078620 144.6930577  84.9441979  50.2328910 145.7631861
  93.8382187  61.9236144 149.3850457  93.6907149  60.9952851 149.5658027
  94.6635680  61.9456235 148.9007532  87.7044431  50.5754211 145.2430949
  88.0440503  51.1040132 144.5209557  88.1516551  50.9134617 146.0189516
  89.6912578  49.0728833 143.4424242  90.4120941  49.4510085 142.9387959
  89.0677882  49.7917709 143.5459220  93.8343701  49.7773982 144.3782574
  94.0507315  50.6598619 144.0771402  93.3537768  49.3860195 143.6488216
  88.5742922  52.7359695 150.9553319  88.4287503  53.0499998 151.8477600
  88.0968126  53.3544595 150.4024217  90.4339305  49.7262243 151.0034208
  90.4200874  48.8303336 150.6666506  91.1511733  49.7332907 151.6372494
  97.2311625  63.2650370 145.8277421  97.4048502  62.6996793 145.0751273
  97.7240516  64.0651265 145.6456911  89.8376201  48.6076623 146.2721778
  89.9592112  47.6793269 146.4712666  89.5478244  48.6215309 145.3600094
  92.7067392  46.2931534 149.4088498  92.7289088  46.3570867 148.4540478
  93.1235451  45.4536042 149.6029004 103.0851016  56.0286793 147.4467721
 103.5282162  55.2794118 147.0486844 102.2077526  56.0196929 147.0641453
  98.2186797  62.5817135 142.9274319  98.9137702  63.2023827 143.1461634
  98.5609947  61.7312486 143.2026697 100.1178220  60.0316840 144.4561650
 100.6429544  60.3704113 143.7310970 100.0300573  59.0963855 144.2724785
  91.8018881  66.0988823 148.8156903  91.3623871  65.6065202 149.5089760
  92.5526998  65.5561791 148.5748978  84.2811220  62.2900364 148.8181531
  85.1069240  61.9904136 148.4380175  83.9305272  61.5207987 149.2671320
  89.2492753  61.6426832 150.8879205  88.6272763  60.9797537 150.5881433
  89.9197620  61.6687964 150.2052853  82.4819825  60.2086691 149.7770465
  81.6451733  59.7808865 149.5954466  82.4543471  60.4019134 150.7141256
  88.8106260  60.1930756 144.3637665  88.9594381  60.8766220 143.7104338
  89.6172704  60.1735846 144.8787121 102.6283881  57.4992031 149.8390168
 103.4630772  57.9381835 150.0027729 102.7643009  57.0230685 149.0198414
  86.5658893  56.2195933 145.3698734  86.3204935  55.3158263 145.5678945
  86.7354808  56.2213084 144.4278212  85.8354541  51.9524291 142.8684896
  85.1423786  52.0268646 142.2124932  85.5906293  51.1884635 143.3906413
  92.3101666  62.6878886 141.8349413  91.7375633  63.3069073 141.3819885
  92.8834459  63.2378248 142.3689335  95.5298925  62.9716036 142.9657995
  96.4629599  62.9061598 143.1690871  95.4422138  63.8072303 142.5072528
  98.1586942  62.2881907 139.9261943  98.0800574  61.9541770 140.8197701
  98.9796609  62.7803675 139.9253415  92.6948464  54.0239699 139.1765465
  93.6407569  53.8945907 139.2453883  92.3162709  53.2854361 139.6534894
  90.8791381  51.9489675 139.1120351  89.9722837  51.6522788 139.1883064
  91.1567362  51.6519493 138.2454637  81.7969322  53.2696039 149.5619397
  81.4772106  52.4161347 149.2693771  81.2502750  53.4844617 150.3177364
  85.5749229  55.9858480 153.2788904  85.7935239  56.9175588 153.2976937
  85.9875003  55.6266454 154.0643707  92.4953447  46.4926565 145.2664592
  91.6854175  46.1473650 145.6419838  93.1837864  46.1834109 145.8552203
  94.4243995  45.5704612 146.8888889  94.9775034  45.9900065 147.5478912
  94.6614082  44.6440360 146.9311845  89.6490166  48.8076611 139.2532330
  90.5109330  49.1331509 139.5128147  89.8340510  48.0208106 138.7405396
  81.6657582  56.8898950 151.5312519  80.9721053  56.4752903 151.0182473
  82.4130573  56.9319487 150.9345938  97.8022802  47.6805137 146.3967553
  97.2221471  48.3389941 146.0145605  97.5358735  46.8582482 145.9854970
  96.2526369  47.0810195 148.5988873  96.7526147  47.1926729 147.7903192
  96.8961977  46.7771248 149.2389682  83.5794324  56.8217204 149.4078533
  83.5565012  56.9204891 148.4560417  83.8894961  57.6682355 149.7295700
  86.2381702  58.8793359 153.5225148  87.1924956  58.8477301 153.4555079
  86.0394226  58.4183983 154.3375374  96.5847680  49.8405227 145.4523901
  95.6973535  50.1254878 145.2344096  97.0001670  49.6798991 144.6051178
  84.5931931  64.4212979 150.5395346  84.4586399  63.6613379 149.9733344
  84.1763993  65.1453878 150.0724135  95.7290894  59.6049902 139.5471921
  96.4326744  59.8099905 140.1629577  95.0053543  60.1726664 139.8121005
  96.5588704  55.3559763 145.6674191  96.5023906  55.8128315 144.8281824
  97.1117047  54.5950448 145.4897034 100.3693510  51.1449495 146.4924311
 100.1130444  50.7446131 147.3232518  99.7446378  51.8593289 146.3674450
  87.7501057  65.3182296 150.7513788  87.6333441  66.2627728 150.6492479
  86.9293503  65.0155857 151.1399588  97.6377591  60.0432431 141.5970381
  98.4723195  59.6113630 141.4147856  97.4761934  59.8714445 142.5247276
  97.2923484  56.5464545 142.9626720  97.2372287  56.3808816 142.0215165
  96.6669539  57.2540577 143.1188910  90.6019609  46.0472654 142.5412039
  90.5898279  46.9914494 142.6980310  91.4943031  45.8642799 142.2471500
  90.5309173  64.7241544 150.6279795  89.5804804  64.7243406 150.5144168
  90.8341659  63.9774279 150.1115830  94.4171728  42.6415430 146.7957976
  93.6504124  42.0873917 146.9414658  94.8282433  42.7137299 147.6572127
 100.7759852  69.2817758 140.9604023 101.0285373  68.7599279 140.1987486
  99.8384411  69.1183903 141.0630706 100.4956141  71.1845864 143.1628398
 100.3792399  70.5090767 143.8309482 100.6058401  70.6978238 142.3460551
 102.4793169  65.6745911 141.8636435 102.6467571  66.5426147 142.2306906
 102.2890338  65.8373192 140.9397725 102.4582390  68.1303568 142.8483102
 102.3382015  68.5760619 143.6868582 101.7634978  68.4788886 142.2896640
  96.9473965  68.0676552 147.4017278  96.1505129  68.1795246 147.9200774
  96.7199558  68.4063204 146.5358169 105.8070397  69.7728536 142.2550102
 105.2917020  70.5433140 142.4938489 105.5347705  69.0993672 142.8783163
  99.0991447  66.4969979 142.1105334  98.2628759  66.8344665 142.4314608
  98.9596216  66.3618958 141.1732471 101.0744527  61.3406766 146.8184518
 100.4208940  61.0255784 146.1941133 101.0325001  60.7182507 147.5444341
 102.1855732  71.6226062 138.7337810 101.2782794  71.3915315 138.9328959
 102.6826764  70.8263681 138.9211791  93.9332136  69.4444171 147.2377002
  93.7356536  68.8513531 146.5128069  93.3778800  69.1396381 147.9552941
 103.0620053  73.2647400 140.5949879 102.6239483  72.5483259 140.1355516
 103.8030494  73.4923515 140.0334970  96.4278362  68.9708204 144.9217954
  95.4975950  68.9092660 145.1387916  96.5235834  68.4484157 144.1254596
  96.3463911  65.4963017 147.5096196  96.6070728  66.4108350 147.4005356
  97.1681083  65.0287460 147.6592809 107.1831281  72.1231782 140.1881936
 106.5660452  71.3978610 140.0914989 106.7147769  72.8841142 139.8449010
  98.9729827  66.3417206 139.3103240  98.0959293  66.2206007 138.9465487
  99.4487580  65.5503284 139.0582129  93.7008521  67.9359061 144.7516146
  93.9961962  67.0269740 144.6983200  92.7996556  67.9146801 144.4297148
  95.4296362  65.6173159 144.8755471  95.1009068  64.7370538 144.6930577
  95.7835733  65.5620828 145.7631861  98.5438185  65.9046129 145.2430949
  98.8834258  66.4332050 144.5209557  98.9910306  66.2426535 146.0189516
 100.5306333  64.4020750 143.4424242 101.2514695  64.7802003 142.9387959
  99.9071637  65.1209627 143.5459220 104.6737455  65.1065899 144.3782574
 104.8901070  65.9890537 144.0771402 104.1931523  64.7152113 143.6488216
 100.6769956  63.9368541 146.2721778 100.7985867  63.0085187 146.4712666
 100.3871998  63.9507227 145.3600094  97.4052648  71.5487851 145.3698734
  97.1598690  70.6450181 145.5678945  97.5748562  71.5505002 144.4278212
  96.6748295  67.2816209 142.8684896  95.9817540  67.3560564 142.2124932
  96.4300047  66.5176552 143.3906413 103.5342219  69.3531617 139.1765465
 104.4801323  69.2237825 139.2453883 103.1556464  68.6146279 139.6534894
 101.7185136  67.2781593 139.1120351 100.8116591  66.9814706 139.1883064
 101.9961117  66.9811411 138.2454637 103.3347202  61.8218483 145.2664592
 102.5247930  61.4765568 145.6419838 104.0231618  61.5126026 145.8552203
 105.2637750  60.8996530 146.8888889 105.8168788  61.3191983 147.5478912
 105.5007836  59.9732278 146.9311845 100.4883920  64.1368528 139.2532330
 101.3503084  64.4623427 139.5128147 100.6734265  63.3500024 138.7405396
 101.4413363  61.3764571 142.5412039 101.4292033  62.3206411 142.6980310
 102.3336785  61.1934717 142.2471500 105.2565483  57.9707348 146.7957976
 104.4897879  57.4165835 146.9414658 105.6676188  58.0429217 147.6572127
  82.8350439  22.3814242 129.6543745  82.1838419  22.9668322 129.2677759
  83.6294802  22.9120437 129.7138783  79.0972344  15.6296045 127.6849329
  79.3497865  15.1077566 126.9232792  78.1596903  15.4662191 127.7876013
  84.3125705  20.0704674 130.1912729  83.6771538  20.1439300 130.9033634
  83.9823111  20.6598273 129.5131809  78.5401774  27.2485497 133.2218540
  78.4625804  28.1993322 133.3007021  77.9363418  26.9031370 133.8793466
  86.4779948  14.9503329 130.4008743  87.3897804  15.1830715 130.2256440
  85.9689595  15.5340373 129.8383821  88.9638762  20.8683585 135.1466688
  88.2789800  21.2482486 134.5963721  89.0482612  21.4778912 135.8798636
  80.8140143  22.6067650 131.9424080  80.6785818  23.4519186 132.3708928
  81.3549955  22.8086928 131.1790014  84.1282889  16.1206823 128.9795408
  83.6129513  16.8911428 129.2183796  83.8560198  15.4471959 129.6028470
  89.1017163  18.8739178 130.9148582  88.3246606  18.5350337 130.4703744
  89.7808644  18.8791801 130.2403547  80.5068224  17.9704349 125.4583117
  79.5995286  17.7393602 125.6574266  81.0039256  17.1741968 125.6457098
  83.4136303  26.6801856 128.3779803  82.7398002  26.9833553 128.9864761
  83.8002125  27.4830936 128.0285260  81.6856458  18.0716944 129.9807107
  80.7767677  17.7875976 130.0779576  81.7151542  18.4916022 129.1210414
  86.9175725  21.6823533 133.7498274  86.4638052  20.8414443 133.8063465
  86.2869692  22.3184931 134.0873054  85.3608665  23.5200030 134.6848092
  85.6531639  24.0805087 133.9660458  85.8707285  23.8128591 135.4401251
  81.3832546  19.6125687 127.3195185  80.9451976  18.8961546 126.8600823
  82.1242987  19.8401802 126.7580277  89.5005660  17.8882884 133.3771504
  89.3623559  18.0784480 132.4492693  89.1441879  18.6502267 133.8339555
  81.6127518  26.8481528 130.5926882  81.7879274  26.3769572 131.4072505
  80.9260306  27.4747295 130.8208143  85.5043773  18.4710069 126.9127243
  84.8872944  17.7456897 126.8160296  85.0360262  19.2319429 126.5694317
  80.4806245  25.0421784 133.2811068  79.6973767  25.5843464 133.3749292
  81.1798990  25.5595763 133.6805309  86.3281458  21.7949241 131.0319883
  86.6041302  21.6805835 131.9413757  85.4585957  21.3966726 130.9932056
  82.9635522  26.0435592 134.6752696  83.1457917  25.2257248 135.1380449
  83.7868508  26.2603284 134.2377586  83.2977688  24.9703777 131.9367745
  83.8265454  24.4596231 131.3237907  83.5605908  24.6546307 132.8013278
  86.3917872  24.9420575 132.5522728  86.5654749  24.3766998 131.7996580
  86.8846763  25.7421470 132.3702218  92.2457263  17.7056998 134.1713027
  92.6888409  16.9564323 133.7732151  91.3683773  17.6967134 133.7886759
  87.3793044  24.2587339 129.6519626  88.0743949  24.8794032 129.8706941
  87.7216194  23.4082691 129.9272004  89.2784467  21.7087045 131.1806957
  89.8035791  22.0474318 130.4556277  89.1906820  20.7734060 130.9970091
  77.9712507  21.8700961 131.0882972  78.1200627  22.5536425 130.4349645
  78.7778950  21.8506051 131.6032428  81.4707912  24.3649091 128.5594720
  80.8981880  24.9839278 128.1065191  82.0440706  24.9148453 129.0934641
  84.6905172  24.6486241 129.6903302  85.6235845  24.5831803 129.8936177
  84.6028385  25.4842508 129.2317834  87.3193189  23.9652112 126.6507249
  87.2406820  23.6311975 127.5443007  88.1402856  24.4573880 126.6498722
  81.8554711  15.7009904 125.9010772  82.8013816  15.5716112 125.9699190
  81.4768956  14.9624566 126.3780200  80.0397628  13.6259880 125.8365657
  79.1329084  13.3292993 125.9128371  80.3173609  13.3289698 124.9699943
  84.8897141  21.2820107 126.2717228  85.5932991  21.4870109 126.8874883
  84.1659789  21.8496869 126.5366311  86.7983838  21.7202636 128.3215688
  87.6329442  21.2883835 128.1393163  86.6368181  21.5484650 129.2492582
  86.4529730  18.2234750 129.6872027  86.3978534  18.0579021 128.7460471
  85.8275786  18.9310782 129.8434217  95.4268113  32.2372287 138.4170864
  96.0646523  32.1179035 137.7134205  95.3088956  33.1853131 138.4758817
  92.2357819  32.1899715 138.3532389  91.8976331  32.0740780 137.4652924
  93.1047588  31.7890881 138.3333395  88.0944635  34.0435192 134.3429280
  87.5309500  33.9525129 133.5745568  87.9797030  33.2235096 134.8231773
  85.6409067  35.5386383 137.1813501  86.4330359  35.1977208 136.7659800
  85.8805717  35.6481358 138.1015654  93.6744194  37.7106160 129.6543745
  93.0232174  38.2960240 129.2677759  94.4688557  38.2412354 129.7138783
  87.5999821  34.7995297 130.0530879  88.3730697  34.2524284 129.9143755
  87.9525220  35.6639546 130.2645341  89.4384864  36.1271679 143.2597779
  89.1474730  37.0317310 143.1444445  90.0741848  36.1688207 143.9741848
  90.3641070  33.5048527 139.8499138  90.9604643  33.2804550 139.1356101
  90.4216042  32.7633273 140.4524586  89.9366099  30.9587963 127.6849329
  90.1891620  30.4369484 126.9232792  88.9990658  30.7954108 127.7876013
  94.9809382  29.9623741 135.4924073  95.7672471  29.5443164 135.1414490
  95.2448086  30.8669833 135.6605721  95.1519459  35.3996591 130.1912729
  94.5165292  35.4731218 130.9033634  94.8216865  35.9890190 129.5131809
 100.3817809  29.8998974 136.3957051 101.1142981  29.3298191 136.6294881
  99.6257165  29.5120575 136.8363557  89.6562388  32.8616069 129.8873704
  89.5398646  32.1860972 130.5554789  89.7664647  32.3748443 129.0705857
  91.9993929  32.3226216 133.5920394  91.6352136  31.7956837 134.3033315
  92.8561044  31.9324685 133.4186879  91.6399416  27.3516116 128.5881742
  91.8073818  28.2196352 128.9552213  91.4496585  27.5143397 127.6643031
  94.3974749  35.8133094 140.2547572  94.0975472  36.7158133 140.1463380
  94.0525808  35.5465278 141.1068725  87.8487230  32.2646891 136.2884277
  86.9237727  32.1323105 136.4961969  88.0971643  33.0441111 136.7854219
  97.7971892  28.3315635 137.9345010  96.8888770  28.2631043 137.6403771
  97.7459488  28.8087580 138.7626835  91.6188636  29.8073773 129.5728409
  91.4988262  30.2530824 130.4113889  90.9241225  30.1559091 129.0141947
  85.2096041  31.9080165 137.1228066  85.3388422  32.1614644 138.0367478
  84.5293493  32.5007873 136.8032721  89.3795529  42.5777415 133.2218540
  89.3019558  43.5285240 133.3007021  88.7757172  42.2323287 133.8793466
  97.3173703  30.2795246 130.4008743  98.2291559  30.5122633 130.2256440
  96.8083350  30.8632290 129.8383821  95.6014470  34.7019874 144.0370035
  96.0097826  34.2602285 143.2924668  94.8791732  34.1272502 144.2904228
  95.9243285  35.2621065 137.7922324  95.2952147  35.4266779 137.0898392
  95.5368947  35.6762674 138.5633288  99.8032517  36.1975503 135.1466688
  99.1183555  36.5774404 134.5963721  99.8876366  36.8070829 135.8798636
  97.0583448  33.8435462 141.7462032  97.2700344  34.4867221 141.0696413
  97.0113197  33.0097778 141.2783962  94.6609677  26.4553282 138.6498604
  93.7994156  26.7534536 138.9415341  94.6872112  26.6723681 137.7179636
  91.4771247  34.9995473 135.0572409  91.9409592  35.2783176 134.2677032
  91.2128045  34.0978917 134.8745500  88.3695328  34.5466954 137.9952173
  88.9396685  34.9754223 137.3569657  88.9603440  34.2649539 138.6936358
  90.4140133  31.1218625 131.8661975  91.1164176  31.5739669 132.3335901
  90.0820761  30.4802444 132.4941868  84.1565467  29.3802178 137.1679108
  83.3664521  29.6359706 136.6919219  84.6476714  30.1950516 137.2731149
  98.1729276  36.7207417 139.9184389  98.9946720  36.3187604 139.6367071
  98.1691679  36.6175651 140.8700505  86.1080212  29.7446757 134.1262585
  85.3111375  29.8565451 134.6446081  85.8805804  30.0833409 133.2603475
  91.9385880  36.2691460 142.0745099  92.0030312  36.7311868 142.9103271
  91.2296804  35.6388825 142.2027409  91.6533897  37.9359568 131.9424080
  91.5179572  38.7811103 132.3708928  92.1943710  38.1378845 131.1790014
  85.1063295  35.4535006 132.5152005  85.6187815  36.2478256 132.6657570
  85.7586008  34.7561296 132.4485606  86.9158180  38.5700762 134.5974758
  87.0924808  39.4918727 134.4095742  87.7115013  38.2559181 135.0269138
  93.2802374  38.5583134 146.0724422  92.8366228  37.7719513 145.7545326
  93.9419587  38.7462285 145.4068313  88.0389495  40.0878936 140.5985100
  88.5896920  39.9595999 139.8262094  87.2000971  40.3873825 140.2479993
  95.3783612  38.8385934 144.1005823  95.3602087  39.6594815 143.6086092
  96.3003532  38.7140009 144.3255964  83.0712212  33.7823660 133.2911575
  83.9087434  34.1920668 133.0745283  83.2490479  32.8423102 133.2611769
  94.9676644  31.4498741 128.9795408  94.4523267  32.2203345 129.2183796
  94.6953952  30.7763877 129.6028470  92.5523755  26.2948442 134.0380647
  91.6965351  25.9055292 133.8586285  92.9650706  26.3740402 133.1780432
  94.0822901  23.8294785 138.4372207  93.5787697  23.7924920 137.6240012
  94.3753508  24.7387528 138.4968863  99.9410918  34.2031095 130.9148582
  99.1640361  33.8642255 130.4703744 100.6202399  34.2083719 130.2403547
  94.7562947  29.3225833 130.8055190  94.4513082  29.6371982 131.6565333
  95.7093389  29.4007253 130.8482523  93.2009379  35.4816056 132.4548144
  92.6730740  34.7468816 132.1421381  92.6996881  36.2590733 132.2088112
  98.1802225  33.6765077 137.5715190  97.5225899  34.3664338 137.6595318
  98.9842624  34.0661509 137.9149176  87.9328106  26.1435722 134.8154755
  88.5071858  25.9210904 134.0827948  88.5199089  26.2124417 135.5683356
  96.9907684  32.0309449 135.6219132  97.5039565  32.6639441 136.1240841
  97.6408907  31.4310645 135.2562492  88.2597693  28.1740183 128.8350640
  87.4235006  28.5114870 129.1559915  88.1202463  28.0389163 127.8977777
  90.2350774  23.0176971 133.5429824  89.5815186  22.7025989 132.9186439
  90.1931248  22.3952712 134.2689647  91.3461979  33.2996266 125.4583117
  90.4389041  33.0685520 125.6574266  91.8433011  32.5033886 125.6457098
  94.2530058  42.0093774 128.3779803  93.5791757  42.3125470 128.9864761
  94.6395880  42.8122854 128.0285260  93.4688514  29.5058905 137.8677472
  92.5511076  29.7273852 137.7099160  93.8848658  29.5805215 137.0089179
  94.2523562  30.9050321 132.9980152  94.9995381  31.4171718 132.6887274
  94.5215152  30.5834373 133.8584546  92.5250212  33.4008861 129.9807107
  91.6161432  33.1167894 130.0779576  92.5545296  33.8207940 129.1210414
  97.7569480  37.0115451 133.7498274  97.3031807  36.1706361 133.8063465
  97.1263446  37.6476849 134.0873054  96.7002399  27.9407437 134.9798942
  95.9625156  27.4284823 135.3109184  96.9529173  27.5007818 134.1682219
  96.2002419  38.8491947 134.6848092  96.4925393  39.4097005 133.9660458
  96.7101040  39.1420508 135.4401251  83.0938383  31.1214375 133.9622309
  82.8962783  30.5283736 133.2373375  82.5385047  30.8166586 134.6798248
  91.0735106  31.0137482 136.0816902  91.1283716  30.0611318 136.0059379
  90.2626308  31.1696921 136.5658200  92.2226300  34.9417605 127.3195185
  91.7845730  34.2253464 126.8600823  92.9636741  35.1693720 126.7580277
  89.0127466  29.6314542 133.8407281  88.1995332  29.9308712 134.2472473
  89.5086460  29.2370230 134.5581763  91.1636044  39.6272299 135.7741546
  91.1212223  39.8533145 134.8450078  92.0798743  39.3935673 135.9227347
 100.3399415  33.2174802 133.3771504 100.2017314  33.4076398 132.4492693
  99.9835634  33.9794185 133.8339555 100.3668795  35.2851329 138.3882775
 100.8005301  35.1926618 139.2365829 101.0800375  35.2608829 137.7502791
  89.2801845  36.5035328 135.5703508  90.0742443  36.0085648 135.3686083
  88.5693537  35.9753191 135.2071214  94.0996689  38.8853423 139.9215876
  94.1533712  39.4544359 140.6893592  93.2311471  39.0555308 139.5569913
  85.5884608  30.6478409 131.6463261  84.6582197  30.5862865 131.8633223
  85.6842080  30.1254362 130.8499902  85.5070157  27.1733222 134.2341503
  85.7676975  28.0878555 134.1250663  86.3287330  26.7057665 134.3838115
  93.0584789  33.0513685 141.4802808  93.9876849  33.2024845 141.3071775
  92.6375819  33.1397706 140.6251454  91.8573121  37.0764350 139.2501345
  91.7184207  36.7083134 140.1227284  91.0687717  37.5911989 139.0785303
  92.4521273  42.1773446 130.5926882  92.6273029  41.7061489 131.4072505
  91.7654061  42.8039212 130.8208143  93.4078336  36.4545952 136.6390183
  93.0728169  36.4146722 137.5347833  92.9082282  35.7890668 136.1660593
  96.3437528  33.8001987 126.9127243  95.7266698  33.0748815 126.8160296
  95.8754016  34.5611347 126.5694317  97.9991659  38.5100895 144.5733023
  97.9404206  37.8260115 143.9063606  98.4011178  39.2519885 144.1213649
  87.0182358  45.3262809 137.3666742  87.2578956  45.9581333 138.0445761
  86.1751555  44.9750849 137.6532101  88.1336074  28.0187411 126.0348547
  87.2565540  27.8976212 125.6710794  88.6093827  27.2273489 125.7827436
  79.6538214  32.8064571 136.1290054  80.3409254  32.4926301 135.5411070
  79.4986342  33.7105935 135.8557306  91.5310220  41.1341931 139.7708246
  91.4580392  41.9396903 140.2827551  91.0887613  41.3333897 138.9456267
  91.3200000  40.3713701 133.2811068  90.5367522  40.9135381 133.3749292
  92.0192745  40.8887681 133.6805309  94.6296650  26.1808331 135.9245273
  95.1265349  25.4278293 135.6046343  93.8583631  26.2172647 135.3588482
  93.9908904  41.0328765 141.9266405  94.7036876  41.6676230 141.8542306
  93.4998932  41.1292631 141.1106407  95.7126431  34.9380018 133.4983696
  94.7782709  35.0581480 133.3288401  95.8903099  34.0352485 133.2343706
  91.2131619  28.3225714 135.6516958  90.8429406  27.7696754 136.3397863
  91.7090711  27.7183847 135.0991958  99.0998982  30.7797337 134.0333731
  99.5659434  31.6125329 133.9594033  99.5506482  30.3142319 134.7378989
  89.0420817  38.7823209 142.7471976  89.7430277  39.4159692 142.9001370
  88.5715932  39.1237940 141.9867615  97.1675213  37.1241159 131.0319883
  97.4435057  37.0097753 131.9413757  96.2979712  36.7258643 130.9932056
  96.8422103  31.3367816 140.5724526  96.1893553  31.5843724 139.9176979
  97.2202483  30.5231954 140.2387003  93.8029277  41.3727509 134.6752696
  93.9851672  40.5549165 135.1380449  94.6262263  41.5895202 134.2377586
  94.1371442  40.2995695 131.9367745  94.6659209  39.7888149 131.3237907
  94.3999662  39.9838225 132.8013278  84.6388535  38.3159564 139.6803078
  85.2241972  37.5703252 139.8130982  84.4413374  38.6263521 140.5639742
  87.4927190  41.3510811 134.6965521  86.8237566  41.8356939 134.2129561
  87.3540060  41.5980032 135.6108899  91.6332459  43.3854555 141.2948179
  92.1850767  43.5486176 142.0597264  91.9738652  43.9758993 140.6228204
  82.8614768  29.6129266 131.4761453  83.1568209  28.7039945 131.4228506
  81.9602803  29.5917006 131.1542455  94.7700846  41.3336530 138.2811861
  94.6451986  40.5326270 137.7722807  95.4279937  41.8282724 137.7925831
  86.3909015  27.6885263 137.4589001  85.6695600  28.3021230 137.3196475
  87.1802270  28.2243028 137.3805647  96.8335755  39.1345550 139.9091411
  95.8866090  39.0150902 139.8369738  97.1818528  38.2468048 139.9917673
  84.5902609  27.2943364 131.6000778  84.2615315  26.4140743 131.4175884
  84.9441980  27.2391033 132.4877167  93.8382188  38.9298267 136.1095763
  93.6907150  38.0014974 136.2903333  94.6635681  38.9518357 135.6252839
  87.7044432  27.5816334 131.9676256  88.0440505  28.1102255 131.2454864
  88.1516553  27.9196740 132.7434822  97.4416310  39.7526825 137.1960636
  98.3662857  39.5469687 137.0585087  97.2731613  39.5043226 138.1049978
  89.6912579  26.0790955 130.1669548  90.4120942  26.4572208 129.6633265
  89.0677884  26.7979832 130.2704526  93.8343702  26.7836104 131.1027881
  94.0507317  27.6660742 130.8016709  93.3537769  26.3922318 130.3733523
  88.5742924  29.7421817 137.6798625  88.4287504  30.0562120 138.5722907
  88.0968127  30.3606718 137.1269524  90.4339307  26.7324365 137.7279515
  90.4200875  25.8365459 137.3911813  91.1511735  26.7395029 138.3617801
  97.2311626  40.2712493 132.5522728  97.4048504  39.7058915 131.7996580
  97.7240517  41.0713388 132.3702218  89.8376202  25.6138746 132.9967085
  89.9592114  24.6855392 133.1957972  89.5478245  25.6277432 132.0845400
  92.7067393  23.2993656 136.1333805  92.7289090  23.3632989 135.1785784
  93.1235452  22.4598165 136.3274311 103.0851017  33.0348916 134.1713027
 103.5282163  32.2856241 133.7732151 102.2077527  33.0259052 133.7886759
  98.2186799  39.5879257 129.6519626  98.9137703  40.2085950 129.8706941
  98.5609949  38.7374608 129.9272004 100.1178222  37.0378963 131.1806957
 100.6429546  37.3766235 130.4556277 100.0300574  36.1025978 130.9970091
  91.7798270  40.9513036 143.3096833  92.0885397  40.7062183 144.1819533
  92.5773752  41.1559675 142.8215704  91.8018882  43.1050946 135.5402210
  91.3623873  42.6127325 136.2335067  92.5526999  42.5623914 135.2994285
  84.2811221  39.2962487 135.5426838  85.1069241  38.9966259 135.1625482
  83.9305273  38.5270109 135.9916627  89.2492755  38.6488955 137.6124512
  88.6272764  37.9859660 137.3126739  89.9197621  38.6750087 136.9298159
  82.4819826  37.2148813 136.5015772  81.6451735  36.7870988 136.3199773
  82.4543472  37.4081257 137.4386563  88.8106261  37.1992878 131.0882972
  88.9594382  37.8828343 130.4349645  89.6172705  37.1797968 131.6032428
 102.6283882  34.5054154 136.5635475 103.4630773  34.9443958 136.7273035
 102.7643011  34.0292807 135.7443721  86.5658894  33.2258056 132.0944041
  86.3204936  32.3220386 132.2924251  86.7354809  33.2275206 131.1523519
  85.8354542  28.9586414 129.5930202  85.1423787  29.0330769 128.9370238
  85.5906294  28.1946757 130.1151719  92.3101667  39.6941009 128.5594720
  91.7375634  40.3131196 128.1065191  92.8834461  40.2440370 129.0934641
  95.5298927  39.9778159 129.6903302  96.4629600  39.9123721 129.8936177
  95.4422140  40.8134426 129.2317834  98.1586943  39.2944029 126.6507249
  98.0800575  38.9603893 127.5443007  98.9796610  39.7865797 126.6498722
  92.6948465  31.0301822 125.9010772  93.6407570  30.9008030 125.9699190
  92.3162710  30.2916483 126.3780200  90.8791383  28.9551798 125.8365657
  89.9722838  28.6584911 125.9128371  91.1567364  28.6581616 124.9699943
  81.7969323  30.2758161 136.2864704  81.4772107  29.4223470 135.9939078
  81.2502751  30.4906740 137.0422671  85.5749231  32.9920602 140.0034210
  85.7935240  33.9237710 140.0222244  85.9875004  32.6328577 140.7889014
  92.4953448  23.4988688 131.9909899  91.6854177  23.1535773 132.3665145
  93.1837865  23.1896231 132.5797510  94.4243997  22.5766734 133.6134195
  94.9775035  22.9962188 134.2724218  94.6614083  21.6502483 133.6557151
  89.6490167  25.8138733 125.9777636  90.5109331  26.1393631 126.2373454
  89.8340511  25.0270229 125.4650702  81.6657583  33.8961073 138.2557825
  80.9721054  33.4815026 137.7427780  82.4130574  33.9381609 137.6591244
  97.8022804  24.6867260 133.1212859  97.2221473  25.3452064 132.7390912
  97.5358736  23.8644604 132.7100277  96.2526370  24.0872317 135.3234180
  96.7526148  24.1988852 134.5148499  96.8961978  23.7833370 135.9634988
  83.5794326  33.8279327 136.1323840  83.5565014  33.9267014 135.1805723
  83.8894962  34.6744477 136.4541006  86.2381703  35.8855482 140.2470455
  87.1924957  35.8539424 140.1800386  86.0394227  35.4246105 141.0620680
  96.5847682  26.8467350 132.1769208  95.6973537  27.1317001 131.9589402
  97.0001671  26.6861113 131.3296485  84.5931932  41.4275101 137.2640652
  84.4586400  40.6675502 136.6978650  84.1763994  42.1516001 136.7969441
  95.7290895  36.6112025 126.2717228  96.4326745  36.8162027 126.8874883
  95.0053544  37.1788787 126.5366311  96.5588705  32.3621886 132.3919498
  96.5023907  32.8190437 131.5527130  97.1117048  31.6012571 132.2142341
 100.3693511  28.1511618 133.2169617 100.1130446  27.7508253 134.0477825
  99.7446379  28.8655412 133.0919757  87.7501058  42.3244418 137.4759095
  87.6333442  43.2689851 137.3737785  86.9293504  42.0217980 137.8644894
  97.6377593  37.0494554 128.3215688  98.4723197  36.6175752 128.1393163
  97.4761936  36.8776568 129.2492582  97.2923485  33.5526667 129.6872027
  97.2372289  33.3870939 128.7460471  96.6669540  34.2602700 129.8434217
  90.6019610  23.0534776 129.2657345  90.5898280  23.9976616 129.4225616
  91.4943032  22.8704922 128.9716807  88.7755572  42.9772680 140.6915023
  89.6782819  43.0096290 141.0081518  88.5492942  42.0473131 140.7061359
  90.5309174  41.7303667 137.3525102  89.5804805  41.7305528 137.2389474
  90.8341660  40.9836401 136.8361137  94.4171730  19.6477553 133.5203282
  93.6504126  19.0936040 133.6659965  94.8282435  19.7199422 134.3817434
 106.2661868  47.5664205 138.4170864 106.9040278  47.4470952 137.7134205
 106.1482711  48.5145049 138.4758817 103.0751574  47.5191633 138.3532389
 102.7370085  47.4032698 137.4652924 103.9441342  47.1182798 138.3333395
  98.9338390  49.3727110 134.3429280  98.3703255  49.2817046 133.5745568
  98.8190785  48.5527014 134.8231773 103.5571357  48.6726485 144.3118595
 103.5459998  48.2779283 143.4399098 103.7191996  47.9392557 144.9052366
  96.4802822  50.8678301 137.1813501  97.2724114  50.5269126 136.7659800
  96.7199472  50.9773276 138.1015654 104.5137948  53.0398077 129.6543745
 103.8625928  53.6252158 129.2677759 105.3082311  53.5704272 129.7138783
  98.4393576  50.1287214 130.0530879  99.2124452  49.5816201 129.9143755
  98.7918974  50.9931464 130.2645341 100.2778618  51.4563597 143.2597779
  99.9868484  52.3609227 143.1444445 100.9135602  51.4980124 143.9741848
 101.2034825  48.8340445 139.8499138 101.7998397  48.6096468 139.1356101
 101.2609796  48.0925191 140.4524586 100.7759853  46.2879880 127.6849329
 101.0285374  45.7661402 126.9232792  99.8384412  46.1246026 127.7876013
 105.8203136  45.2915659 135.4924073 106.6066225  44.8735082 135.1414490
 106.0841841  46.1961751 135.6605721 105.9913214  50.7288509 130.1912729
 105.3559047  50.8023136 130.9033634 105.6610620  51.3182108 129.5131809
 111.2211563  45.2290892 136.3957051 111.9536735  44.6590109 136.6294881
 110.4650919  44.8412492 136.8363557 100.4956142  48.1907986 129.8873704
 100.3792400  47.5152890 130.5554789 100.6058402  47.7040360 129.0705857
 102.8387683  47.6518134 133.5920394 102.4745890  47.1248755 134.3033315
 103.6954799  47.2616603 133.4186879 102.4793170  42.6808033 128.5881742
 102.6467572  43.5488270 128.9552213 102.2890339  42.8435315 127.6643031
 105.2368503  51.1425012 140.2547572 104.9369226  52.0450051 140.1463380
 104.8919563  50.8757195 141.1068725  98.6880985  47.5938809 136.2884277
  97.7631481  47.4615023 136.4961969  98.9365398  48.3733028 136.7854219
 108.6365647  43.6607552 137.9345010 107.7282524  43.5922961 137.6403771
 108.5853243  44.1379497 138.7626835 102.4582391  45.1365691 129.5728409
 102.3382016  45.5822741 130.4113889 101.7634979  45.4851008 129.0141947
  96.0489796  47.2372083 137.1228066  96.1782177  47.4906561 138.0367478
  95.3687247  47.8299791 136.8032721 100.2189283  57.9069332 133.2218540
 100.1413313  58.8577158 133.3007021  99.6150927  57.5615205 133.8793466
 108.1567457  45.6087164 130.4008743 109.0685313  45.8414551 130.2256440
 107.6477104  46.1924208 129.8383821 100.9652885  47.8882651 145.4397874
 101.7067569  48.4267695 145.1632698 100.2589871  48.5148940 145.5969426
 106.4408225  50.0311792 144.0370035 106.8491581  49.5894202 143.2924668
 105.7185486  49.4564419 144.2904228 102.7939295  44.9684399 141.4103592
 103.6400490  45.3923812 141.5538241 102.7337932  44.3118023 142.1042156
 106.7637039  50.5912982 137.7922324 106.1345902  50.7558696 137.0898392
 106.3762701  51.0054592 138.5633288 110.6426271  51.5267420 135.1466688
 109.9577309  51.9066322 134.5963721 110.7270121  52.1362747 135.8798636
 107.8977203  49.1727379 141.7462032 108.1094098  49.8159139 141.0696413
 107.8506951  48.3389696 141.2783962 105.5003432  41.7845200 138.6498604
 104.6387911  42.0826453 138.9415341 105.5265866  42.0015599 137.7179636
 102.3165001  50.3287390 135.0572409 102.7803347  50.6075093 134.2677032
 102.0521799  49.4270835 134.8745500  99.2089082  49.8758872 137.9952173
  99.7790439  50.3046140 137.3569657  99.7997194  49.5941457 138.6936358
 101.2533887  46.4510543 131.8661975 101.9557931  46.9031586 132.3335901
 100.9214516  45.8094362 132.4941868  99.7014249  45.0422299 146.2413184
  99.0712909  45.7238580 146.4748581  99.5950337  44.9305381 145.2966322
  94.9959221  44.7094095 137.1679108  94.2058275  44.9651624 136.6919219
  95.4870469  45.5242433 137.2731149 109.0123031  52.0499335 139.9184389
 109.8340475  51.6479522 139.6367071 109.0085434  51.9467569 140.8700505
  96.9473967  45.0738675 134.1262585  96.1505130  45.1857369 134.6446081
  96.7199559  45.4125327 133.2603475 102.7779634  51.5983378 142.0745099
 102.8424067  52.0603785 142.9103271 102.0690558  50.9680743 142.2027409
  93.2796924  44.9624586 139.5994099  93.5304963  45.8471596 139.8651675
  93.8156473  44.7829187 138.8269191 102.4927652  53.2651485 131.9424080
 102.3573327  54.1103021 132.3708928 103.0337464  53.4670763 131.1790014
  95.9457049  50.7826923 132.5152005  96.4581570  51.5770174 132.6657570
  96.5979762  50.0853214 132.4485606  97.7551934  53.8992680 134.5974758
  97.9318562  54.8210644 134.4095742  98.5508768  53.5851099 135.0269138
  97.0404291  45.9457312 144.4736921  96.9257806  45.0442569 144.7744020
  96.1848808  46.1921008 144.1221738 104.1196128  53.8875052 146.0724422
 103.6759982  53.1011431 145.7545326 104.7813342  54.0754202 145.4068313
  98.8783249  55.4170854 140.5985100  99.4290675  55.2887917 139.8262094
  98.0394725  55.7165743 140.2479993 106.2177366  54.1677852 144.1005823
 106.1995842  54.9886733 143.6086092 107.1397286  54.0431927 144.3255964
 102.6750421  51.6821981 144.9429332 103.2078757  50.9210270 144.7128640
 102.1464502  51.3895633 145.6853486  93.9105966  49.1115578 133.2911575
  94.7481188  49.5212586 133.0745283  94.0884234  48.1715020 133.2611769
 105.8070398  46.7790658 128.9795408 105.2917022  47.5495263 129.2183796
 105.5347707  46.1055795 129.6028470 103.3917509  41.6240359 134.0380647
 102.5359106  41.2347210 133.8586285 103.8044461  41.7032320 133.1780432
 104.9216656  39.1586702 138.4372207 104.4181451  39.1216838 137.6240012
 105.2147263  40.0679445 138.4968863 101.1659542  39.2425432 137.4438388
 102.0312539  39.0468241 137.0844278 101.2337051  39.0135784 138.3707745
 110.7804672  49.5323013 130.9148582 110.0034115  49.1934173 130.4703744
 111.4596153  49.5375636 130.2403547 105.5956701  44.6517751 130.8055190
 105.2906837  44.9663900 131.6565333 106.5487143  44.7299170 130.8482523
 104.0403133  50.8107974 132.4548144 103.5124495  50.0760733 132.1421381
 103.5390636  51.5882650 132.2088112 109.0195979  49.0056994 137.5715190
 108.3619654  49.6956256 137.6595318 109.8236378  49.3953426 137.9149176
  98.7721861  41.4727640 134.8154755  99.3465613  41.2502822 134.0827948
  99.3592843  41.5416335 135.5683356 107.8301438  47.3601367 135.6219132
 108.3433320  47.9931359 136.1240841 108.4802662  46.7602563 135.2562492
  99.0991448  43.5032101 128.8350640  98.2628760  43.8406788 129.1559915
  98.9596218  43.3681081 127.8977777 101.0744529  38.3468889 133.5429824
 100.4208941  38.0317906 132.9186439 101.0325003  37.7244629 134.2689647
 102.1855733  48.6288184 125.4583117 101.2782795  48.3977438 125.6574266
 102.6826765  47.8325803 125.6457098 105.0923812  57.3385691 128.3779803
 104.4185511  57.6417388 128.9864761 105.4789634  58.1414772 128.0285260
 104.3082269  44.8350823 137.8677472 103.3904830  45.0565770 137.7099160
 104.7242413  44.9097133 137.0089179 105.0917317  46.2342238 132.9980152
 105.8389136  46.7463635 132.6887274 105.3608906  45.9126291 133.8584546
 103.3643967  48.7300779 129.9807107 102.4555186  48.4459812 130.0779576
 103.3939051  49.1499858 129.1210414 108.5963234  52.3407368 133.7498274
 108.1425561  51.4998278 133.8063465 107.9657201  52.9768767 134.0873054
 107.5396154  43.2699355 134.9798942 106.8018911  42.7576741 135.3109184
 107.7922927  42.8299736 134.1682219 107.0396173  54.1783865 134.6848092
 107.3319148  54.7388922 133.9660458 107.5494794  54.4712426 135.4401251
  93.9332137  46.4506293 133.9622309  93.7356537  45.8575654 133.2373375
  93.3778801  46.1458503 134.6798248 101.9128861  46.3429400 136.0816902
 101.9677471  45.3903236 136.0059379 101.1020063  46.4988839 136.5658200
 103.0620055  50.2709523 127.3195185 102.6239485  49.5545382 126.8600823
 103.8030495  50.4985637 126.7580277  99.8521221  44.9606459 133.8407281
  99.0389086  45.2600630 134.2472473 100.3480215  44.5662148 134.5581763
 102.0029799  54.9564216 135.7741546 101.9605977  55.1825063 134.8450078
 102.9192498  54.7227591 135.9227347 111.1793169  48.5466720 133.3771504
 111.0411068  48.7368316 132.4492693 110.8229388  49.3086103 133.8339555
  99.3435296  42.5324815 139.4568516  99.9834675  42.3913574 138.7591479
  98.5112826  42.2459328 139.0807118 111.2062549  50.6143247 138.3882775
 111.6399056  50.5218536 139.2365829 111.9194130  50.5900747 137.7502791
 100.1195599  51.8327245 135.5703508 100.9136198  51.3377565 135.3686083
  99.4087292  51.3045108 135.2071214 104.9390444  54.2145341 139.9215876
 104.9927466  54.7836277 140.6893592 104.0705225  54.3847226 139.5569913
  96.4278363  45.9770327 131.6463261  95.4975951  45.9154782 131.8633223
  96.5235835  45.4546280 130.8499902  96.3463912  42.5025140 134.2341503
  96.6070729  43.4170473 134.1250663  97.1681084  42.0349582 134.3838115
  97.8188837  43.9162897 141.4040327  98.4911891  43.7080259 140.7552976
  96.9918624  43.7184983 140.9645559 103.8978544  48.3805603 141.4802808
 104.8270604  48.5316762 141.3071775 103.4769574  48.4689624 140.6251454
 102.6966875  52.4056267 139.2501345 102.5577961  52.0375052 140.1227284
 101.9081472  52.9203907 139.0785303 103.2915027  57.5065364 130.5926882
 103.4666783  57.0353407 131.4072505 102.6047815  58.1331130 130.8208143
 104.2472091  51.7837870 136.6390183 103.9121923  51.7438640 137.5347833
 103.7476036  51.1182586 136.1660593  98.2216335  47.1905500 142.1642764
  98.0836132  46.4585739 142.7654303  99.1321258  47.1014400 141.8826952
 107.1831282  49.1293904 126.9127243 106.5660453  48.4040732 126.8160296
 106.7147771  49.8903265 126.5694317 100.8498635  46.9025459 141.6526444
 101.5598254  46.2618651 141.6113062 100.8067943  47.1538354 142.5752625
 108.8385414  53.8392813 144.5733023 108.7797960  53.1552033 143.9063606
 109.2404932  54.5811803 144.1213649  99.5627569  43.8890677 143.4722083
  99.0264926  43.4381416 144.1243680  98.9744278  44.0236586 142.7292548
  97.8576113  60.6554726 137.3666742  98.0972711  61.2873251 138.0445761
  97.0145309  60.3042767 137.6532101  98.9729828  43.3479329 126.0348547
  98.0959294  43.2268129 125.6710794  99.4487581  42.5565407 125.7827436
  90.4931968  48.1356488 136.1290054  91.1803008  47.8218218 135.5411070
  90.3380097  49.0397853 135.8557306  95.2966690  43.0246685 140.5575078
  95.2124879  42.4172354 139.8225488  94.4749397  43.5155703 140.5584574
 102.3703975  56.4633849 139.7708246 102.2974146  57.2688820 140.2827551
 101.9281368  56.6625815 138.9456267 102.1593754  55.7005619 133.2811068
 101.3761276  56.2427299 133.3749292 102.8586499  56.2179599 133.6805309
 105.4690404  41.5100248 135.9245273 105.9659104  40.7570211 135.6046343
 104.6977386  41.5464565 135.3588482 104.8302658  56.3620683 141.9266405
 105.5430630  56.9968148 141.8542306 104.3392687  56.4584549 141.1106407
 106.5520185  50.2671936 133.4983696 105.6176464  50.3873398 133.3288401
 106.7296853  49.3644402 133.2343706 102.0525373  43.6517631 135.6516958
 101.6823161  43.0988672 136.3397863 102.5484466  43.0475765 135.0991958
 109.9392736  46.1089255 134.0333731 110.4053189  46.9417247 133.9594033
 110.3900237  45.6434236 134.7378989  99.8814572  54.1115126 142.7471976
 100.5824031  54.7451609 142.9001370  99.4109687  54.4529858 141.9867615
 108.0068967  52.4533076 131.0319883 108.2828811  52.3389671 131.9413757
 107.1373466  52.0550561 130.9932056 107.6815858  46.6659734 140.5724526
 107.0287308  46.9135641 139.9176979 108.0596237  45.8523872 140.2387003
 104.6423031  56.7019427 134.6752696 104.8245426  55.8841083 135.1380449
 105.4656017  56.9187119 134.2377586 104.9765197  55.6287612 131.9367745
 105.5052963  55.1180067 131.3237907 105.2393417  55.3130142 132.8013278
  95.4782290  53.6451481 139.6803078  96.0635726  52.8995169 139.8130982
  95.2807128  53.9555438 140.5639742  98.3320945  56.6802729 134.6965521
  97.6631320  57.1648856 134.2129561  98.1933815  56.9271949 135.6108899
  90.0699944  46.2157082 138.4007521  90.1084044  45.6820672 139.1944639
  89.5640237  45.6892287 137.7818499 102.4726213  58.7146472 141.2948179
 103.0244522  58.8778094 142.0597264 102.8132407  59.3050910 140.6228204
  97.4490707  41.0621622 141.8970064  97.5132033  41.9236453 141.4847461
  97.3857827  40.4495624 141.1642422  96.9242979  43.1344755 145.5443098
  97.5515018  42.7521832 146.1580622  96.0670898  42.9158957 145.9098790
  93.7008522  44.9421184 131.4761453  93.9961963  44.0331862 131.4228506
  92.7996558  44.9208923 131.1542455 105.6094601  56.6628448 138.2811861
 105.4845740  55.8618188 137.7722807 106.2673692  57.1574641 137.7925831
  97.2302769  43.0177180 137.4589001  96.5089355  43.6313148 137.3196475
  98.0196025  43.5534945 137.3805647 107.6729509  54.4637468 139.9091411
 106.7259845  54.3442819 139.8369738 108.0212282  53.5759966 139.9917673
  95.4296364  42.6235281 131.6000778  95.1009070  41.7432660 131.4175884
  95.7835734  42.5682950 132.4877167 104.6775942  54.2590184 136.1095763
 104.5300905  53.3306892 136.2903333 105.5029436  54.2810275 135.6252839
  98.5438187  42.9108251 131.9676256  98.8834259  43.4394173 131.2454864
  98.9910307  43.2488657 132.7434822 108.2810064  55.0818743 137.1960636
 109.2056612  54.8761604 137.0585087 108.1125368  54.8335144 138.1049978
 101.2381628  41.2945302 141.4179324 100.8978448  40.4953115 141.8200004
 100.5320634  41.5947013 140.8456157 101.8898099  38.3794614 139.8706647
 102.7124169  37.9055093 139.7485537 102.1336163  39.1585098 140.3705333
 100.5306334  41.4082873 130.1669548 101.2514696  41.7864126 129.6633265
  99.9071638  42.1271750 130.2704526 104.6737457  42.1128022 131.1027881
 104.8901071  42.9952660 130.8016709 104.1931524  41.7214235 130.3733523
  99.4136678  45.0713735 137.6798625  99.2681259  45.3854038 138.5722907
  98.9361882  45.6898635 137.1269524 101.2733061  42.0616283 137.7279515
 101.2594630  41.1657376 137.3911813 101.9905489  42.0686947 138.3617801
 103.1259192  42.4953623 139.7732642 102.8676970  43.4170694 139.7716973
 102.5944232  42.0984058 140.4633106 108.0705381  55.6004410 132.5522728
 108.2442258  55.0350833 131.7996580 108.5634272  56.4005305 132.3702218
  93.8882340  47.6119079 140.6186286  93.3435808  48.3878887 140.7506561
  94.7661690  47.9589884 140.4605408 100.6769957  40.9430663 132.9967085
 100.7985868  40.0147310 133.1957972 100.3871999  40.9569349 132.0845400
 103.5461147  38.6285574 136.1333805 103.5682844  38.6924907 135.1785784
 103.9629206  37.7890082 136.3274311 113.9244772  48.3640833 134.1713027
 114.3675918  47.6148159 133.7732151 113.0471282  48.3550970 133.7886759
 109.0580553  54.9171175 129.6519626 109.7531458  55.5377867 129.8706941
 109.4003703  54.0666526 129.9272004  94.6748362  46.7388976 143.5116443
  93.9330098  46.8871611 144.0981074  94.3541106  46.9997241 142.6483193
 110.9571976  52.3670880 131.1806957 111.4823300  52.7058153 130.4556277
 110.8694329  51.4317896 130.9970091 102.6192025  56.2804954 143.3096833
 102.9279151  56.0354101 144.1819533 103.4167507  56.4851592 142.8215704
 102.6412637  58.4342864 135.5402210 102.2017627  57.9419242 136.2335067
 103.3920754  57.8915831 135.2994285  95.1204976  54.6254404 135.5426838
  95.9462996  54.3258176 135.1625482  94.7699028  53.8562027 135.9916627
 100.0886509  53.9780873 137.6124512  99.4666518  53.3151578 137.3126739
 100.7591376  54.0042005 136.9298159  93.3213581  52.5440731 136.5015772
  92.4845489  52.1162905 136.3199773  93.2937226  52.7373174 137.4386563
  99.6500016  52.5284796 131.0882972  99.7988136  53.2120260 130.4349645
 100.4566459  52.5089886 131.6032428 113.4677636  49.8346072 136.5635475
 114.3024528  50.2735876 136.7273035 113.6036765  49.3584725 135.7443721
  97.4052649  48.5549974 132.0944041  97.1598691  47.6512304 132.2924251
  97.5748563  48.5567124 131.1523519  96.6748296  44.2878331 129.5930202
  95.9817541  44.3622686 128.9370238  96.4300048  43.5238675 130.1151719
 103.1495421  55.0232926 128.5594720 102.5769389  55.6423114 128.1065191
 103.7228215  55.5732288 129.0934641 106.3692681  55.3070077 129.6903302
 107.3023354  55.2415638 129.8936177 106.2815894  56.1426343 129.2317834
 108.9980698  54.6235947 126.6507249 108.9194329  54.2895811 127.5443007
 109.8190365  55.1157715 126.6498722 103.5342220  46.3593739 125.9010772
 104.4801325  46.2299947 125.9699190 103.1556465  45.6208401 126.3780200
 101.7185137  44.2843716 125.8365657 100.8116592  43.9876828 125.9128371
 101.9961118  43.9873534 124.9699943  92.6363077  45.6050079 136.2864704
  92.3165862  44.7515387 135.9939078  92.0896506  45.8198657 137.0422671
  96.4142985  48.3212520 140.0034210  96.6328995  49.2529628 140.0222244
  96.8268759  47.9620494 140.7889014 103.3347203  38.8280605 131.9909899
 102.5247931  38.4827690 132.3665145 104.0231620  38.5188149 132.5797510
 105.2637751  37.9058652 133.6134195 105.8168790  38.3254106 134.2724218
 105.5007837  36.9794400 133.6557151 100.4883922  41.1430651 125.9777636
 101.3503086  41.4685549 126.2373454 100.6734266  40.3562147 125.4650702
  92.5051337  49.2252991 138.2557825  91.8114809  48.8106943 137.7427780
  93.2524328  49.2673527 137.6591244 108.6416558  40.0159177 133.1212859
 108.0615227  40.6743981 132.7390912 108.3752491  39.1936522 132.7100277
 107.0920125  39.4164235 135.3234180 107.5919903  39.5280770 134.5148499
 107.7355732  39.1125288 135.9634988  94.4188080  49.1571244 136.1323840
  94.3958768  49.2558932 135.1805723  94.7288716  50.0036395 136.4541006
  97.0775458  51.2147399 140.2470455  98.0318711  51.1831342 140.1800386
  96.8787981  50.7538023 141.0620680  97.6674840  49.7848515 142.8141252
  98.4867729  50.2792594 142.8376089  97.9411648  48.8680484 142.7858820
 107.4241436  42.1759268 132.1769208 106.5367291  42.4608918 131.9589402
 107.8395425  42.0153031 131.3296485  95.4325687  56.7567019 137.2640652
  95.2980155  55.9967420 136.6978650  95.0157749  57.4807919 136.7969441
 106.5684650  51.9403942 126.2717228 107.2720500  52.1453945 126.8874883
 105.8447298  52.5080704 126.5366311 107.3982460  47.6913804 132.3919498
 107.3417661  48.1482355 131.5527130 107.9510802  46.9304488 132.2142341
 111.2087266  43.4803535 133.2169617 110.9524200  43.0800171 134.0477825
 110.5840134  44.1947329 133.0919757  98.5894813  57.6536336 137.4759095
  98.4727197  58.5981768 137.3737785  97.7687259  57.3509897 137.8644894
 108.4771347  52.3786472 128.3215688 109.3116951  51.9467670 128.1393163
 108.3155690  52.2068485 129.2492582 108.1317239  48.8818585 129.6872027
 108.0766043  48.7162856 128.7460471 107.5063295  49.5894618 129.8434217
  92.9209754  44.1186649 143.5133449  93.5668618  43.6085603 144.0020674
  92.7126905  44.8555331 144.0876875 101.4413365  38.3826694 129.2657345
 101.4292035  39.3268534 129.4225616 102.3336787  38.1996839 128.9716807
  99.6149327  58.3064598 140.6915023 100.5176573  58.3388208 141.0081518
  99.3886697  57.3765049 140.7061359 101.3702929  57.0595584 137.3525102
 100.4198560  57.0597446 137.2389474 101.6735415  56.3128319 136.8361137
 105.2565484  34.9769471 133.5203282 104.4897880  34.4227957 133.6659965
 105.6676189  35.0491339 134.3817434 117.1055622  62.8956123 138.4170864
 117.7434032  62.7762870 137.7134205 116.9876465  63.8436967 138.4758817
 113.9145328  62.8483551 138.3532389 113.5763840  62.7324615 137.4652924
 114.7835097  62.4474716 138.3333395 109.7732144  64.7019027 134.3429280
 109.2097009  64.6108964 133.5745568 109.6584539  63.8818932 134.8231773
 107.3196576  66.1970219 137.1813501 108.1117868  65.8561043 136.7659800
 107.5593226  66.3065194 138.1015654 115.3531703  68.3689995 129.6543745
 114.7019683  68.9544075 129.2677759 116.1476066  68.8996190 129.7138783
 109.2787330  65.4579132 130.0530879 110.0518206  64.9108119 129.9143755
 109.6312729  66.3223381 130.2645341 112.0428579  64.1632363 139.8499138
 112.6392152  63.9388385 139.1356101 112.1003551  63.4217108 140.4524586
 111.6153608  61.6171798 127.6849329 111.8679129  61.0953319 126.9232792
 110.6778167  61.4537944 127.7876013 116.6596891  60.6207577 135.4924073
 117.4459980  60.2027000 135.1414490 116.9235595  61.5253669 135.6605721
 116.8306968  66.0580427 130.1912729 116.1952801  66.1315053 130.9033634
 116.5004374  66.6474026 129.5131809 122.0605318  60.5582810 136.3957051
 122.7930490  59.9882027 136.6294881 121.3044673  60.1704410 136.8363557
 111.3349897  63.5199904 129.8873704 111.2186155  62.8444807 130.5554789
 111.4452156  63.0332278 129.0705857 113.6781438  62.9810051 133.5920394
 113.3139645  62.4540672 134.3033315 114.5348553  62.5908520 133.4186879
 113.3186924  58.0099951 128.5881742 113.4861327  58.8780187 128.9552213
 113.1284094  58.1727233 127.6643031 109.5274739  62.9230727 136.2884277
 108.6025236  62.7906941 136.4961969 109.7759152  63.7024946 136.7854219
 119.4759401  58.9899470 137.9345010 118.5676279  58.9214878 137.6403771
 119.4246997  59.4671415 138.7626835 113.2976145  60.4657608 129.5728409
 113.1775771  60.9114659 130.4113889 112.6028734  60.8142926 129.0141947
 106.8883550  62.5664000 137.1228066 107.0175931  62.8198479 138.0367478
 106.2081002  63.1591708 136.8032721 111.0583037  73.2361250 133.2218540
 110.9807067  74.1869075 133.3007021 110.4544681  72.8907123 133.8793466
 118.9961212  60.9379082 130.4008743 119.9079068  61.1706468 130.2256440
 118.4870859  61.5216126 129.8383821 113.6333049  60.2976316 141.4103592
 114.4794244  60.7215730 141.5538241 113.5731687  59.6409940 142.1042156
 117.6030794  65.9204900 137.7922324 116.9739656  66.0850614 137.0898392
 117.2156456  66.3346510 138.5633288 121.4820026  66.8559338 135.1466688
 120.7971064  67.2358239 134.5963721 121.5663875  67.4654665 135.8798636
 116.3397186  57.1137118 138.6498604 115.4781665  57.4118371 138.9415341
 116.3659621  57.3307516 137.7179636 113.1558756  65.6579308 135.0572409
 113.6197101  65.9367011 134.2677032 112.8915554  64.7562753 134.8745500
 110.0482837  65.2050790 137.9952173 110.6184194  65.6338058 137.3569657
 110.6390949  64.9233374 138.6936358 112.0927642  61.7802461 131.8661975
 112.7951685  62.2323504 132.3335901 111.7608270  61.1386279 132.4941868
 105.8352976  60.0386013 137.1679108 105.0452030  60.2943542 136.6919219
 106.3264223  60.8534351 137.2731149 107.7867721  60.4030592 134.1262585
 106.9898884  60.5149287 134.6446081 107.5593313  60.7417245 133.2603475
 104.1190679  60.2916504 139.5994099 104.3698717  61.1763514 139.8651675
 104.6550227  60.1121105 138.8269191 113.3321406  68.5943403 131.9424080
 113.1967081  69.4394939 132.3708928 113.8731219  68.7962681 131.1790014
 106.7850804  66.1118841 132.5152005 107.2975324  66.9062091 132.6657570
 107.4373517  65.4145132 132.4485606 108.5945688  69.2284597 134.5974758
 108.7712317  70.1502562 134.4095742 109.3902522  68.9143017 135.0269138
 107.8798045  61.2749229 144.4736921 107.7651560  60.3734487 144.7744020
 107.0242563  61.5212926 144.1221738 109.7177004  70.7462771 140.5985100
 110.2684429  70.6179835 139.8262094 108.8788480  71.0457660 140.2479993
 104.7499721  64.4407495 133.2911575 105.5874943  64.8504504 133.0745283
 104.9277988  63.5006938 133.2611769 116.6464153  62.1082576 128.9795408
 116.1310776  62.8787181 129.2183796 116.3741461  61.4347712 129.6028470
 114.2311264  56.9532277 134.0380647 113.3752860  56.5639127 133.8586285
 114.6438215  57.0324238 133.1780432 115.7610410  54.4878620 138.4372207
 115.2575206  54.4508755 137.6240012 116.0541017  55.3971363 138.4968863
 112.0053296  54.5717350 137.4438388 112.8706293  54.3760159 137.0844278
 112.0730805  54.3427702 138.3707745 121.6198427  64.8614931 130.9148582
 120.8427870  64.5226090 130.4703744 122.2989908  64.8667554 130.2403547
 116.4350456  59.9809668 130.8055190 116.1300591  60.2955817 131.6565333
 117.3880898  60.0591088 130.8482523 114.8796888  66.1399892 132.4548144
 114.3518249  65.4052651 132.1421381 114.3784390  66.9174568 132.2088112
 119.8589734  64.3348912 137.5715190 119.2013408  65.0248173 137.6595318
 120.6630133  64.7245344 137.9149176 109.6115615  56.8019558 134.8154755
 110.1859367  56.5794739 134.0827948 110.1986598  56.8708252 135.5683356
 118.6695193  62.6893285 135.6219132 119.1827074  63.3223277 136.1240841
 119.3196416  62.0894480 135.2562492 109.9385202  58.8324019 128.8350640
 109.1022515  59.1698705 129.1559915 109.7989972  58.6972999 127.8977777
 111.9138283  53.6760807 133.5429824 111.2602695  53.3609824 132.9186439
 111.8718757  53.0536547 134.2689647 113.0249488  63.9580102 125.4583117
 112.1176550  63.7269355 125.6574266 113.5220520  63.1617721 125.6457098
 115.9317567  72.6677609 128.3779803 115.2579266  72.9709306 128.9864761
 116.3183389  73.4706689 128.0285260 115.1476023  60.1642740 137.8677472
 114.2298585  60.3857687 137.7099160 115.5636167  60.2389051 137.0089179
 115.9311071  61.5634156 132.9980152 116.6782890  62.0755553 132.6887274
 116.2002661  61.2418209 133.8584546 114.2037721  64.0592697 129.9807107
 113.2948941  63.7751729 130.0779576 114.2332805  64.4791775 129.1210414
 119.4356989  67.6699286 133.7498274 118.9819316  66.8290196 133.8063465
 118.8050955  68.3060685 134.0873054 118.3789908  58.5991272 134.9798942
 117.6412665  58.0868658 135.3109184 118.6316682  58.1591654 134.1682219
 117.8789928  69.5075783 134.6848092 118.1712902  70.0680840 133.9660458
 118.3888549  69.8004344 135.4401251 104.7725892  61.7798211 133.9622309
 104.5750292  61.1867571 133.2373375 104.2172556  61.4750421 134.6798248
 112.7522615  61.6721317 136.0816902 112.8071225  60.7195154 136.0059379
 111.9413817  61.8280756 136.5658200 113.9013809  65.6001440 127.3195185
 113.4633239  64.8837299 126.8600823 114.6424250  65.8277555 126.7580277
 110.6914975  60.2898377 133.8407281 109.8782841  60.5892548 134.2472473
 111.1873969  59.8954066 134.5581763 112.8423553  70.2856134 135.7741546
 112.7999732  70.5116980 134.8450078 113.7586252  70.0519509 135.9227347
 122.0186924  63.8758637 133.3771504 121.8804822  64.0660233 132.4492693
 121.6623143  64.6378020 133.8339555 110.1829050  57.8616733 139.4568516
 110.8228429  57.7205492 138.7591479 109.3506581  57.5751246 139.0807118
 110.9589354  67.1619163 135.5703508 111.7529952  66.6669483 135.3686083
 110.2481046  66.6337026 135.2071214 107.2672117  61.3062245 131.6463261
 106.3369706  61.2446700 131.8633223 107.3629589  60.7838197 130.8499902
 107.1857666  57.8317058 134.2341503 107.4464484  58.7462391 134.1250663
 108.0074839  57.3641500 134.3838115 108.6582592  59.2454815 141.4040327
 109.3305645  59.0372177 140.7552976 107.8312378  59.0476901 140.9645559
 114.7372298  63.7097521 141.4802808 115.6664358  63.8608680 141.3071775
 114.3163328  63.7981541 140.6251454 113.5360630  67.7348185 139.2501345
 113.3971716  67.3666969 140.1227284 112.7475226  68.2495824 139.0785303
 114.1308782  72.8357281 130.5926882 114.3060538  72.3645325 131.4072505
 113.4441570  73.4623048 130.8208143 115.0865845  67.1129788 136.6390183
 114.7515678  67.0730558 137.5347833 114.5869791  66.4474504 136.1660593
 109.0610089  62.5197418 142.1642764 108.9229887  61.7877656 142.7654303
 109.9715013  62.4306318 141.8826952 118.0225037  64.4585822 126.9127243
 117.4054207  63.7332650 126.8160296 117.5541525  65.2195182 126.5694317
 111.6892390  62.2317377 141.6526444 112.3992008  61.5910569 141.6113062
 111.6461698  62.4830272 142.5752625 110.4021324  59.2182595 143.4722083
 109.8658681  58.7673333 144.1243680 109.8138032  59.3528504 142.7292548
 109.8123583  58.6771246 126.0348547 108.9353049  58.5560047 125.6710794
 110.2881336  57.8857325 125.7827436 101.3325723  63.4648406 136.1290054
 102.0196763  63.1510136 135.5411070 101.1773851  64.3689771 135.8557306
 106.1360445  58.3538603 140.5575078 106.0518634  57.7464272 139.8225488
 105.3143151  58.8447621 140.5584574 112.9987509  71.0297537 133.2811068
 112.2155031  71.5719217 133.3749292 113.6980254  71.5471516 133.6805309
 116.3084159  56.8392166 135.9245273 116.8052858  56.0862128 135.6046343
 115.5371140  56.8756483 135.3588482 117.3913939  65.5963853 133.4983696
 116.4570218  65.7165316 133.3288401 117.5690608  64.6936320 133.2343706
 112.8919128  58.9809549 135.6516958 112.5216915  58.4280589 136.3397863
 113.3878220  58.3767683 135.0991958 120.7786491  61.4381173 134.0333731
 121.2446943  62.2709164 133.9594033 121.2293991  60.9726154 134.7378989
 118.8462722  67.7824994 131.0319883 119.1222566  67.6681588 131.9413757
 117.9767221  67.3842479 130.9932056 118.5209612  61.9951652 140.5724526
 117.8681062  62.2427559 139.9176979 118.8989992  61.1815790 140.2387003
 115.4816786  72.0311345 134.6752696 115.6639180  71.2133001 135.1380449
 116.3049772  72.2479037 134.2377586 115.8158951  70.9579530 131.9367745
 116.3446718  70.4471984 131.3237907 116.0787171  70.6422060 132.8013278
 106.3176044  68.9743399 139.6803078 106.9029481  68.2287087 139.8130982
 106.1200883  69.2847356 140.5639742 109.1714699  72.0094647 134.6965521
 108.5025075  72.4940774 134.2129561 109.0327569  72.2563867 135.6108899
 100.9093699  61.5448999 138.4007521 100.9477798  61.0112590 139.1944639
 100.4033992  61.0184205 137.7818499 108.2884461  56.3913540 141.8970064
 108.3525788  57.2528371 141.4847461 108.2251581  55.7787542 141.1642422
 107.7636734  58.4636672 145.5443098 108.3908773  58.0813750 146.1580622
 106.9064653  58.2450874 145.9098790 104.5402276  60.2713102 131.4761453
 104.8355718  59.3623780 131.4228506 103.6390312  60.2500841 131.1542455
 108.0696523  58.3469098 137.4589001 107.3483109  58.9605066 137.3196475
 108.8589779  58.8826863 137.3805647 106.2690118  57.9527199 131.6000778
 105.9402824  57.0724578 131.4175884 106.6229489  57.8974868 132.4877167
 115.5169697  69.5882102 136.1095763 115.3694659  68.6598809 136.2903333
 116.3423190  69.6102193 135.6252839 109.3831941  58.2400169 131.9676256
 109.7228014  58.7686090 131.2454864 109.8304062  58.5780575 132.7434822
 112.0775382  56.6237220 141.4179324 111.7372202  55.8245033 141.8200004
 111.3714388  56.9238931 140.8456157 112.7291854  53.7086532 139.8706647
 113.5517923  53.2347010 139.7485537 112.9729917  54.4877016 140.3705333
 111.3700088  56.7374791 130.1669548 112.0908451  57.1156043 129.6633265
 110.7465392  57.4563667 130.2704526 115.5131211  57.4419940 131.1027881
 115.7294826  58.3244577 130.8016709 115.0325278  57.0506153 130.3733523
 110.2530433  60.4005653 137.6798625 110.1075013  60.7145956 138.5722907
 109.7755636  61.0190553 137.1269524 112.1126816  57.3908201 137.7279515
 112.0988384  56.4949294 137.3911813 112.8299244  57.3978864 138.3617801
 113.9652946  57.8245541 139.7732642 113.7070724  58.7462612 139.7716973
 113.4337987  57.4275975 140.4633106 118.9099135  70.9296328 132.5522728
 119.0836013  70.3642751 131.7996580 119.4028026  71.7297223 132.3702218
 104.7276095  62.9410997 140.6186286 104.1829563  63.7170805 140.7506561
 105.6055445  63.2881802 140.4605408 111.5163711  56.2722581 132.9967085
 111.6379623  55.3439227 133.1957972 111.2265754  56.2861267 132.0845400
 114.3854902  53.9577491 136.1333805 114.4076599  54.0216825 135.1785784
 114.8022961  53.1182000 136.3274311 124.7638526  63.6932751 134.1713027
 125.2069672  62.9440076 133.7732151 123.8865036  63.6842887 133.7886759
 119.8974307  70.2463092 129.6519626 120.5925212  70.8669785 129.8706941
 120.2397458  69.3958444 129.9272004 105.5142117  62.0680893 143.5116443
 104.7723853  62.2163529 144.0981074 105.1934861  62.3289159 142.6483193
 121.7965731  67.6962798 131.1806957 122.3217055  68.0350071 130.4556277
 121.7088083  66.7609813 130.9970091 113.4806391  73.7634781 135.5402210
 113.0411382  73.2711160 136.2335067 114.2314508  73.2207749 135.2994285
 105.9598730  69.9546322 135.5426838 106.7856750  69.6550094 135.1625482
 105.6092782  69.1853945 135.9916627 110.9280264  69.3072790 137.6124512
 110.3060273  68.6443495 137.3126739 111.5985130  69.3333922 136.9298159
 104.1607335  67.8732649 136.5015772 103.3239244  67.4454823 136.3199773
 104.1330981  68.0665092 137.4386563 110.4893770  67.8576714 131.0882972
 110.6381891  68.5412178 130.4349645 111.2960214  67.8381804 131.6032428
 124.3071391  65.1637989 136.5635475 125.1418282  65.6027793 136.7273035
 124.4430520  64.6876643 135.7443721 108.2446403  63.8841891 132.0944041
 107.9992445  62.9804221 132.2924251 108.4142318  63.8859042 131.1523519
 107.5142051  59.6170249 129.5930202 106.8211296  59.6914604 128.9370238
 107.2693803  58.8530593 130.1151719 113.9889176  70.3524844 128.5594720
 113.4163143  70.9715031 128.1065191 114.5621970  70.9024206 129.0934641
 117.2086436  70.6361994 129.6903302 118.1417109  70.5707556 129.8936177
 117.1209649  71.4718261 129.2317834 119.8374452  69.9527865 126.6507249
 119.7588084  69.6187728 127.5443007 120.6584119  70.4449633 126.6498722
 114.3735974  61.6885657 125.9010772 115.3195079  61.5591865 125.9699190
 113.9950219  60.9500319 126.3780200 112.5578892  59.6135633 125.8365657
 111.6510347  59.3168746 125.9128371 112.8354873  59.3165451 124.9699943
 103.4756832  60.9341997 136.2864704 103.1559616  60.0807305 135.9939078
 102.9290260  61.1490575 137.0422671 107.2536740  63.6504438 140.0034210
 107.4722749  64.5821546 140.0222244 107.6662513  63.2912412 140.7889014
 114.1740957  54.1572523 131.9909899 113.3641686  53.8119608 132.3665145
 114.8625374  53.8480067 132.5797510 116.1031506  53.2350570 133.6134195
 116.6562544  53.6546023 134.2724218 116.3401592  52.3086318 133.6557151
 111.3277676  56.4722569 125.9777636 112.1896840  56.7977467 126.2373454
 111.5128020  55.6854064 125.4650702 103.3445092  64.5544908 138.2557825
 102.6508563  64.1398861 137.7427780 104.0918083  64.5965445 137.6591244
 119.4810313  55.3451095 133.1212859 118.9008982  56.0035899 132.7390912
 119.2146245  54.5228440 132.7100277 117.9313879  54.7456153 135.3234180
 118.4313657  54.8572687 134.5148499 118.5749487  54.4417206 135.9634988
 105.2581834  64.4863162 136.1323840 105.2352523  64.5850849 135.1805723
 105.5682471  65.3328313 136.4541006 107.9169212  66.5439317 140.2470455
 108.8712466  66.5123259 140.1800386 107.7181736  66.0829941 141.0620680
 108.5068594  65.1140433 142.8141252 109.3261483  65.6084512 142.8376089
 108.7805402  64.1972401 142.7858820 118.2635191  57.5051185 132.1769208
 117.3761046  57.7900836 131.9589402 118.6789180  57.3444949 131.3296485
 106.2719441  72.0858937 137.2640652 106.1373909  71.3259337 136.6978650
 105.8551503  72.8099836 136.7969441 117.4078404  67.2695860 126.2717228
 118.1114254  67.4745863 126.8874883 116.6841053  67.8372622 126.5366311
 118.2376214  63.0205721 132.3919498 118.1811416  63.4774273 131.5527130
 118.7904557  62.2596406 132.2142341 122.0481020  58.8095453 133.2169617
 121.7917955  58.4092089 134.0477825 121.4233888  59.5239247 133.0919757
 109.4288567  72.9828254 137.4759095 109.3120951  73.9273686 137.3737785
 108.6081013  72.6801815 137.8644894 119.3165102  67.7078389 128.3215688
 120.1510706  67.2759588 128.1393163 119.1549444  67.5360403 129.2492582
 118.9710994  64.2110503 129.6872027 118.9159798  64.0454774 128.7460471
 118.3457049  64.9186535 129.8434217 103.7603509  59.4478567 143.5133449
 104.4062372  58.9377521 144.0020674 103.5520660  60.1847249 144.0876875
 112.2807119  53.7118612 129.2657345 112.2685789  54.6560451 129.4225616
 113.1730541  53.5288757 128.9716807 112.2096683  72.3887502 137.3525102
 111.2592314  72.3889364 137.2389474 112.5129169  71.6420237 136.8361137
 116.0959239  50.3061388 133.5203282 115.3291634  49.7519875 133.6659965
 116.5069944  50.3783257 134.3817434 122.4547362  76.9463716 127.6849329
 122.7072883  76.4245237 126.9232792 121.5171921  76.7829861 127.7876013
 122.1743651  78.8491822 129.8873704 122.0579909  78.1736725 130.5554789
 122.2845911  78.3624196 129.0705857 124.1580679  73.3391869 128.5881742
 124.3255081  74.2072105 128.9552213 123.9677848  73.5019150 127.6643031
 124.1369900  75.7949526 129.5728409 124.0169525  76.2406577 130.4113889
 123.4422488  76.1434844 129.0141947 118.6261476  75.7322510 134.1262585
 117.8292639  75.8441204 134.6446081 118.3987068  76.0709162 133.2603475
 127.4857907  77.4374494 128.9795408 126.9704531  78.2079098 129.2183796
 127.2135216  76.7639630 129.6028470 120.7778957  74.1615937 128.8350640
 119.9416269  74.4990623 129.1559915 120.6383727  74.0264916 127.8977777
 122.7532038  69.0052724 133.5429824 122.0996450  68.6901742 132.9186439
 122.7112512  68.3828465 134.2689647 123.8643242  79.2872019 125.4583117
 122.9570304  79.0561273 125.6574266 124.3614274  78.4909639 125.6457098
 115.6119646  77.1090128 133.9622309 115.4144046  76.5159489 133.2373375
 115.0566310  76.8042339 134.6798248 124.7407564  80.9293358 127.3195185
 124.3026994  80.2129217 126.8600823 125.4818004  81.1569473 126.7580277
 118.1065872  76.6354162 131.6463261 117.1763460  76.5738618 131.8633223
 118.2023344  76.1130115 130.8499902 118.0251421  73.1608975 134.2341503
 118.2858238  74.0754308 134.1250663 118.8468593  72.6933418 134.3838115
 128.8618791  79.7877740 126.9127243 128.2447962  79.0624568 126.8160296
 128.3935280  80.5487100 126.5694317 120.6517337  74.0063164 126.0348547
 119.7746803  73.8851965 125.6710794 121.1275090  73.2149242 125.7827436
 115.3796031  75.6005019 131.4761453 115.6749472  74.6915698 131.4228506
 114.4784067  75.5792759 131.1542455 117.1083873  73.2819117 131.6000778
 116.7796579  72.4016496 131.4175884 117.4623243  73.2266786 132.4877167
 120.2225696  73.5692087 131.9676256 120.5621768  74.0978008 131.2454864
 120.6697816  73.9072493 132.7434822 122.2093843  72.0666708 130.1669548
 122.9302205  72.4447961 129.6633265 121.5859147  72.7855585 130.2704526
 126.3524966  72.7711857 131.1027881 126.5688580  73.6536495 130.8016709
 125.8719033  72.3798071 130.3733523 122.3557466  71.6014499 132.9967085
 122.4773377  70.6731145 133.1957972 122.0659508  71.6153185 132.0845400
 119.0840158  79.2133809 132.0944041 118.8386200  78.3096139 132.2924251
 119.2536072  79.2150959 131.1523519 118.3535805  74.9462167 129.5930202
 117.6605050  75.0206522 128.9370238 118.1087557  74.1822510 130.1151719
 125.2129729  77.0177575 125.9010772 126.1588834  76.8883783 125.9699190
 124.8343974  76.2792236 126.3780200 123.3972646  74.9427551 125.8365657
 122.4904101  74.6460664 125.9128371 123.6748627  74.6457369 124.9699943
 125.0134712  69.4864441 131.9909899 124.2035440  69.1411526 132.3665145
 125.7019129  69.1771984 132.5797510 126.9425260  68.5642488 133.6134195
 127.4956299  68.9837941 134.2724218 127.1795346  67.6378236 133.6557151
 122.1671431  71.8014486 125.9777636 123.0290595  72.1269385 126.2373454
 122.3521775  71.0145982 125.4650702 123.1200874  69.0410529 129.2657345
 123.1079544  69.9852369 129.4225616 124.0124296  68.8580675 128.9716807
 126.9352993  65.6353306 133.5203282 126.1685389  65.0811793 133.6659965
 127.3463698  65.7075175 134.3817434  78.5401775   4.2547620 119.9463847
  78.4625805   5.2055445 120.0252327  77.9363419   3.9093492 120.6038773
  80.8140144  -0.3870227 118.6669386  80.6785819   0.4581308 119.0954234
  81.3549957  -0.1850950 117.9035320  83.4136305   3.6863979 115.1025109
  82.7398003   3.9895675 115.7110067  83.8002127   4.4893059 114.7530566
  81.6127520   3.8543651 117.3172189  81.7879275   3.3831694 118.1317811
  80.9260308   4.4809417 117.5453449  80.4806246   2.0483906 120.0056374
  79.6973768   2.5905586 120.0994599  81.1798992   2.5657886 120.4050615
  82.9635524   3.0497714 121.3998003  83.1457918   2.2319370 121.8625755
  83.7868510   3.2665407 120.9622893  83.2977689   1.9765899 118.6613051
  83.8265456   1.4658354 118.0483213  83.5605909   1.6608430 119.5258584
  81.4707914   1.3711214 115.2840026  80.8981881   1.9901401 114.8310498
  82.0440707   1.9210575 115.8179948  84.6905174   1.6548364 116.4148608
  85.6235847   1.5893926 116.6181484  84.6028386   2.4904631 115.9563141
  95.4268114   9.2434410 125.1416171  96.0646524   9.1241157 124.4379511
  95.3088957  10.1915254 125.2004123  92.2357821   9.1961838 125.0777696
  91.8976332   9.0802903 124.1898231  93.1047589   8.7953003 125.0578702
  88.0944636  11.0497314 121.0674587  87.5309502  10.9587251 120.2990875
  87.9797031  10.2297219 121.5477079  85.6409068  12.5448506 123.9058807
  86.4330360  12.2039331 123.4905107  85.8805719  12.6543481 124.8260961
  93.6744195  14.7168282 116.3789052  93.0232175  15.3022363 115.9923065
  94.4688558  15.2474477 116.4384089  87.5999822  11.8057419 116.7776186
  88.3730698  11.2586406 116.6389062  87.9525221  12.6701669 116.9890647
  89.4384865  13.1333802 129.9843085  89.1474731  14.0379432 129.8689752
  90.0741849  13.1750329 130.6987155  90.3641072  10.5110650 126.5744445
  90.9604644  10.2866672 125.8601408  90.4216043   9.7695396 127.1769893
  89.9366100   7.9650085 114.4094636  90.1891621   7.4431607 113.6478099
  88.9990659   7.8016231 114.5121320  94.9809383   6.9685864 122.2169379
  95.7672472   6.5505287 121.8659796  95.2448087   7.8731956 122.3851028
  95.1519460  12.4058714 116.9158036  94.5165293  12.4793341 117.6278941
  94.8216867  12.9952313 116.2377115  89.6562389   9.8678191 116.6119011
  89.5398647   9.1923095 117.2800095  89.7664649   9.3810565 115.7951164
  91.9993930   9.3288338 120.3165700  91.6352137   8.8018959 121.0278622
  92.8561046   8.9386808 120.1432186  91.6399417   4.3578238 115.3127049
  91.8073819   5.2258475 115.6797520  91.4496586   4.5205520 114.3888338
  94.3974750  12.8195217 126.9792879  94.0975473  13.7220256 126.8708686
  94.0525809  12.5527400 127.8314032  87.8487231   9.2709014 123.0129583
  86.9237728   9.1385228 123.2207275  88.0971645  10.0503233 123.5099526
  91.6188638   6.8135896 116.2973715  91.4988263   7.2592946 117.1359196
  90.9241226   7.1621213 115.7387254  85.2096042   8.9142287 123.8473373
  85.3388424   9.1676766 124.7612784  84.5293494   9.5069995 123.5278028
  89.3795530  19.5839537 119.9463847  89.3019559  20.5347362 120.0252327
  88.7757173  19.2385410 120.6038773  97.3173704   7.2857369 117.1254050
  98.2291560   7.5184756 116.9501747  96.8083351   7.8694413 116.5629128
  95.6014471  11.7081997 130.7615342  96.0097828  11.2664407 130.0169974
  94.8791733  11.1334624 131.0149535  95.9243286  12.2683187 124.5167631
  95.2952149  12.4328901 123.8143699  95.5368948  12.6824797 125.2878595
  99.8032518  13.2037625 121.8711995  99.1183556  13.5836526 121.3209028
  99.8876367  13.8132952 122.6043943  97.0583450  10.8497584 128.4707338
  97.2700345  11.4929344 127.7941719  97.0113198  10.0159901 128.0029268
  91.4771248  12.0057595 121.7817716  91.9409594  12.2845298 120.9922339
  91.2128046  11.1041040 121.5990807  88.3695329  11.5529077 124.7197479
  88.9396686  11.9816345 124.0814964  88.9603441  11.2711662 125.4181665
  90.4140134   8.1280748 118.5907281  91.1164177   8.5801791 119.0581208
  90.0820763   7.4864567 119.2187174  84.1565468   6.3864300 123.8924415
  83.3664522   6.6421829 123.4164525  84.6476715   7.2012638 123.9976455
  98.1729278  13.7269540 126.6429696  98.9946721  13.3249727 126.3612377
  98.1691680  13.6237774 127.5945811  86.1080213   6.7508880 120.8507891
  85.3111377   6.8627574 121.3691387  85.8805806   7.0895532 119.9848782
  91.9385881  13.2753583 128.7990406  92.0030314  13.7373990 129.6348578
  91.2296805  12.6450948 128.9272716  91.6533899  14.9421690 118.6669386
  91.5179573  15.7873226 119.0954234  92.1943711  15.1440968 117.9035320
  85.1063296  12.4597128 119.2397312  85.6187817  13.2540379 119.3902876
  85.7586009  11.7623419 119.1730913  86.9158181  15.5762885 121.3220065
  87.0924809  16.4980849 121.1341049  87.7115014  15.2621304 121.7514444
  93.2802375  15.5645257 132.7969729  92.8366229  14.7781635 132.4790633
  93.9419589  15.7524407 132.1313619  88.0389496  17.0941058 127.3230407
  88.5896921  16.9658122 126.5507401  87.2000972  17.3935947 126.9725300
  95.3783613  15.8448057 130.8251130  95.3602088  16.6656938 130.3331399
  96.3003533  15.7202132 131.0501271  83.0712213  10.7885783 120.0156882
  83.9087435  11.1982791 119.7990590  83.2490481   9.8485225 119.9857076
  94.9676645   8.4560863 115.7040715  94.4523268   9.2265468 115.9429102
  94.6953953   7.7826000 116.3273776  99.9410919  11.2093218 117.6393889
  99.1640362  10.8704377 117.1949051 100.6202400  11.2145841 116.9648854
  94.7562948   6.3287955 117.5300496  94.4513084   6.6434105 118.3810639
  95.7093390   6.4069375 117.5727829  93.2009380  12.4878179 119.1793450
  92.6730742  11.7530938 118.8666688  92.6996883  13.2652855 118.9333419
  98.1802226  10.6827199 124.2960496  97.5225900  11.3726461 124.3840625
  98.9842625  11.0723631 124.6394483  87.9328108   3.1497845 121.5400062
  88.5071859   2.9273027 120.8073255  88.5199090   3.2186540 122.2928663
  96.9907685   9.0371572 122.3464438  97.5039567   9.6701564 122.8486148
  97.6408909   8.4372767 121.9807798  88.2597695   5.1802306 115.5595947
  87.4235007   5.5176993 115.8805222  88.1202464   5.0451286 114.6223084
  91.3461980  10.3058389 112.1828423  90.4389042  10.0747642 112.3819572
  91.8433012   9.5096008 112.3702405  94.2530059  19.0155896 115.1025109
  93.5791758  19.3187593 115.7110067  94.6395881  19.8184977 114.7530566
  93.4688516   6.5121027 124.5922779  92.5511077   6.7335974 124.4344467
  93.8848659   6.5867338 123.7334486  94.2523563   7.9112443 119.7225459
  94.9995382   8.4233840 119.4132581  94.5215153   7.5896496 120.5829853
  92.5250214  10.4070984 116.7052413  91.6161433  10.1230017 116.8024883
  92.5545297  10.8270062 115.8455720  97.7569481  14.0177573 120.4743581
  97.3031808  13.1768483 120.5308771  97.1263448  14.6538972 120.8118361
  96.2002420  15.8554070 121.4093399  96.4925395  16.4159127 120.6905765
  96.7101041  16.1482631 122.1646558  83.0938384   8.1276498 120.6867616
  82.8962784   7.5345859 119.9618682  82.5385048   7.8228708 121.4043554
  91.0735108   8.0199604 122.8062209  91.1283717   7.0673441 122.7304685
  90.2626310   8.1759044 123.2903507  92.2226301  11.9479728 114.0440492
  91.7845731  11.2315586 113.5846129  92.9636742  12.1755842 113.4825583
  89.0127468   6.6376664 120.5652588  88.1995333   6.9370835 120.9717780
  89.5086462   6.2432353 121.2827070  91.1636045  16.6334421 122.4986852
  91.1212224  16.8595267 121.5695384  92.0798744  16.3997796 122.6472653
 100.3399416  10.2236925 120.1016810 100.2017315  10.4138521 119.1738000
  99.9835635  10.9856307 120.5584862 100.3668796  12.2913452 125.1128082
 100.8005302  12.1988741 125.9611136 101.0800376  12.2670952 124.4748098
  89.2801846  13.5097450 122.2948815  90.0742445  13.0147770 122.0931390
  88.5693539  12.9815313 121.9316521  94.0996691  15.8915546 126.6461183
  94.1533713  16.4606482 127.4138898  93.2311472  16.0617431 126.2815220
  85.5884610   7.6540532 118.3708568  84.6582198   7.5924987 118.5878530
  85.6842082   7.1316485 117.5745209  85.5070159   4.1795345 120.9586809
  85.7676976   5.0940678 120.8495970  86.3287331   3.7119787 121.1083422
  93.0584790  10.0575808 128.2048114  93.9876850  10.2086967 128.0317082
  92.6375820  10.1459829 127.3496761  91.8573122  14.0826472 125.9746652
  91.7184208  13.7145257 126.8472590  91.0687718  14.5974112 125.8030610
  92.4521274  19.1835569 117.3172189  92.6273030  18.7123612 118.1317811
  91.7654062  19.8101335 117.5453449  93.4078337  13.4608075 123.3635490
  93.0728170  13.4208845 124.2593140  92.9082283  12.7952791 122.8905900
  96.3437529  10.8064109 113.6372549  95.7266700  10.0810937 113.5405602
  95.8754017  11.5673469 113.2939624  97.9991661  15.5163018 131.2978330
  97.9404207  14.8322238 130.6308913  98.4011179  16.2582008 130.8458956
  87.0182359  22.3324931 124.0912049  87.2578958  22.9643456 124.7691067
  86.1751556  21.9812971 124.3777408  88.1336075   5.0249534 112.7593854
  87.2565541   4.9038334 112.3956100  88.6093828   4.2335612 112.5072742
  79.6538215   9.8126693 122.8535361  80.3409255   9.4988423 122.2656376
  79.4986344  10.7168058 122.5802612  91.5310221  18.1404054 126.4953553
  91.4580393  18.9459025 127.0072857  91.0887614  18.3396020 125.6701574
  91.3200001  17.3775824 120.0056374  90.5367523  17.9197504 120.0994599
  92.0192746  17.8949804 120.4050615  93.9908905  18.0390888 128.6511711
  94.7036877  18.6738353 128.5787613  93.4998933  18.1354754 127.8351713
  95.7126432  11.9442141 120.2229003  94.7782710  12.0643603 120.0533707
  95.8903100  11.0414607 119.9589013  91.2131620   5.3287836 122.3762264
  90.8429407   4.7758877 123.0643170  91.7090712   4.7245970 121.8237264
  99.0998983   7.7859460 120.7579037  99.5659435   8.6187451 120.6839340
  99.5506484   7.3204441 121.4624296  89.0420818  15.7885331 129.4717282
  89.7430278  16.4221814 129.6246676  88.5715933  16.1300063 128.7112921
  97.1675214  14.1303281 117.7565189  97.4435058  14.0159876 118.6659063
  96.2979713  13.7320766 117.7177362  96.8422104   8.3429939 127.2969833
  96.1893555   8.5905846 126.6422285  97.2202484   7.5294077 126.9632310
  93.8029278  18.3789632 121.3998003  93.9851673  17.5611288 121.8625755
  94.6262264  18.5957324 120.9622893  94.1371444  17.3057817 118.6613051
  94.6659210  16.7950272 118.0483213  94.3999663  16.9900347 119.5258584
  84.6388536  15.3221686 126.4048385  85.2241973  14.5765374 126.5376289
  84.4413375  15.6325643 127.2885049  87.4927192  18.3572934 121.4210827
  86.8237567  18.8419061 120.9374867  87.3540061  18.6042154 122.3354206
  91.6332460  20.3916677 128.0193486  92.1850768  20.5548299 128.7842571
  91.9738654  20.9821115 127.3473510  82.8614769   6.6191389 118.2006759
  83.1568210   5.7102067 118.1473813  81.9602805   6.5979128 117.8787762
  94.7700848  18.3398653 125.0057168  94.6451987  17.5388393 124.4968113
  95.4279939  18.8344846 124.5171138  86.3909016   4.6947385 124.1834308
  85.6695602   5.3083353 124.0441781  87.1802272   5.2305150 124.1050954
  96.8335756  16.1407673 126.6336718  95.8866091  16.0213024 126.5615045
  97.1818529  15.2530171 126.7162979  84.5902610   4.3005486 118.3246085
  84.2615317   3.4202865 118.1421190  84.9441981   4.2453155 119.2122474
  93.8382189  15.9360389 122.8341070  93.6907152  15.0077097 123.0148640
  94.6635683  15.9580480 122.3498145  87.7044434   4.5878456 118.6921562
  88.0440506   5.1164377 117.9700171  88.1516554   4.9258862 119.4680129
  97.4416311  16.7588948 123.9205943  98.3662859  16.5531809 123.7830394
  97.2731614  16.5105349 124.8295284  89.6912581   3.0853078 116.8914855
  90.4120943   3.4634331 116.3878572  89.0677885   3.8041955 116.9949833
  88.5742925   6.7483940 124.4043932  88.4287506   7.0624243 125.2968213
  88.0968129   7.3668840 123.8514831  97.2311627  17.2774615 119.2768034
  97.4048505  16.7121038 118.5241887  97.7240519  18.0775510 119.0947524
 103.0851018  10.0411038 120.8958334 103.5282164   9.2918363 120.4977457
 102.2077529  10.0321175 120.5132066  98.2186800  16.5941380 116.3764933
  98.9137704  17.2148072 116.5952247  98.5609950  15.7436731 116.6517310
 100.1178223  14.0441085 117.9052263 100.6429547  14.3828358 117.1801583
 100.0300575  13.1088101 117.7215398  91.7798272  17.9575159 130.0342140
  92.0885398  17.7124306 130.9064840  92.5773754  18.1621797 129.5461010
  91.8018884  20.1113069 122.2647517  91.3623874  19.6189447 122.9580373
  92.5527001  19.5686036 122.0239592  84.2811223  16.3024609 122.2672145
  85.1069243  16.0028381 121.8870788  83.9305275  15.5332232 122.7161933
  89.2492756  15.6551078 124.3369818  88.6272765  14.9921783 124.0372046
  89.9197623  15.6812210 123.6543466  82.4819828  14.2210936 123.2261078
  81.6451736  13.7933110 123.0445079  82.4543473  14.4143379 124.1631869
  88.8106263  14.2055001 117.8128279  88.9594383  14.8890465 117.1594951
  89.6172706  14.1860091 118.3277734 102.6283883  11.5116277 123.2880782
 103.4630775  11.9506081 123.4518342 102.7643012  11.0354930 122.4689027
  86.5658896  10.2320179 118.8189348  86.3204938   9.3282509 119.0169558
  86.7354810  10.2337329 117.8768826  85.8354543   5.9648536 116.3175509
  85.1423788   6.0392891 115.6615545  85.5906295   5.2008880 116.8397026
  92.3101668  16.7003131 115.2840026  91.7375635  17.3193319 114.8310498
  92.8834462  17.2502493 115.8179948  95.5298928  16.9840282 116.4148608
  96.4629601  16.9185843 116.6181484  95.4422141  17.8196548 115.9563141
  98.1586945  16.3006152 113.3752556  98.0800576  15.9666015 114.2688314
  98.9796611  16.7927920 113.3744028  92.6948467   8.0363944 112.6256079
  93.6407571   7.9070152 112.6944497  92.3162712   7.2978606 113.1025507
  90.8791384   5.9613921 112.5610964  89.9722839   5.6647033 112.6373677
  91.1567365   5.6643739 111.6945250  81.7969324   7.2820284 123.0110010
  81.4772109   6.4285592 122.7184384  81.2502752   7.4968862 123.7667978
  85.5749232   9.9982725 126.7279517  85.7935242  10.9299833 126.7467551
  85.9875006   9.6390699 127.5134321  81.6657584  10.9023195 124.9803132
  80.9721056  10.4877148 124.4673086  82.4130575  10.9443732 124.3836551
  83.5794327  10.8341449 122.8569147  83.5565015  10.9329136 121.9051030
  83.8894963  11.6806600 123.1786313  86.2381705  12.8917604 126.9715761
  87.1924958  12.8601547 126.9045693  86.0394228  12.4308228 127.7865987
  84.5931933  18.4337224 123.9885959  84.4586401  17.6737625 123.4223957
  84.1763996  19.1578124 123.5214748  95.7290896  13.6174147 112.9962534
  96.4326747  13.8224150 113.6120190  95.0053545  14.1850909 113.2611618
  96.5588707   9.3684009 119.1164804  96.5023908   9.8252560 118.2772437
  97.1117049   8.6074693 118.9387647  87.7501059  19.3306541 124.2004402
  87.6333443  20.2751973 124.0983092  86.9293506  19.0280102 124.5890201
  97.6377594  14.0556676 115.0460994  98.4723198  13.6237875 114.8638469
  97.4761937  13.8838690 115.9737889  97.2923486  10.5588790 116.4117334
  97.2372290  10.3933061 115.4705778  96.6669541  11.2664823 116.5679523
  88.7755573  19.9834803 127.4160330  89.6782820  20.0158413 127.7326825
  88.5492944  19.0535254 127.4306666  90.5309175  18.7365789 124.0770409
  89.5804806  18.7367651 123.9634781  90.8341662  17.9898524 123.5606443
 106.2661869  24.5726328 125.1416171 106.9040279  24.4533075 124.4379511
 106.1482712  25.5207172 125.2004123 103.0751575  24.5253756 125.0777696
 102.7370087  24.4094820 124.1898231 103.9441343  24.1244921 125.0578702
  98.9338391  26.3789232 121.0674587  98.3703256  26.2879169 120.2990875
  98.8190786  25.5589137 121.5477079 103.5571358  25.6788607 131.0363901
 103.5459999  25.2841406 130.1644405 103.7191998  24.9454680 131.6297673
  96.4802823  27.8740424 123.9058807  97.2724115  27.5331248 123.4905107
  96.7199473  27.9835399 124.8260961 104.5137950  30.0460200 116.3789052
 103.8625929  30.6314280 115.9923065 105.3082312  30.5766395 116.4384089
  98.4393577  27.1349337 116.7776186  99.2124453  26.5878324 116.6389062
  98.7918976  27.9993586 116.9890647 100.2778619  28.4625719 129.9843085
  99.9868485  29.3671350 129.8689752 100.9135604  28.5042247 130.6987155
 101.2034826  25.8402568 126.5744445 101.7998398  25.6158590 125.8601408
 101.2609798  25.0987313 127.1769893 100.7759855  23.2942003 114.4094636
 101.0285375  22.7723524 113.6478099  99.8384414  23.1308149 114.5121320
 105.8203137  22.2977781 122.2169379 106.6066227  21.8797205 121.8659796
 106.0841842  23.2023874 122.3851028 105.9913215  27.7350632 116.9158036
 105.3559048  27.8085258 117.6278941 105.6610621  28.3244231 116.2377115
 111.2211565  22.2353015 123.1202358 111.9536737  21.6652231 123.3540187
 110.4650920  21.8474615 123.5608863 100.4956143  25.1970109 116.6119011
 100.3792401  24.5215012 117.2800095 100.6058403  24.7102483 115.7951164
 102.8387684  24.6580256 120.3165700 102.4745892  24.1310877 121.0278622
 103.6954800  24.2678725 120.1432186 102.4793171  19.6870156 115.3127049
 102.6467574  20.5550392 115.6797520 102.2890340  19.8497438 114.3888338
 105.2368504  28.1487135 126.9792879 104.9369228  29.0512174 126.8708686
 104.8919564  27.8819318 127.8314032  98.6880986  24.6000932 123.0129583
  97.7631482  24.4677146 123.2207275  98.9365399  25.3795151 123.5099526
 108.6365648  20.6669675 124.6590316 107.7282526  20.5985083 124.3649077
 108.5853244  21.1441620 125.4872142 102.4582392  22.1427813 116.2973715
 102.3382017  22.5884864 117.1359196 101.7634981  22.4913131 115.7387254
  96.0489797  24.2434205 123.8473373  96.1782178  24.4968684 124.7612784
  95.3687248  24.8361913 123.5278028 100.2189284  34.9131455 119.9463847
 100.1413314  35.8639280 120.0252327  99.6150928  34.5677328 120.6038773
 108.1567458  22.6149287 117.1254050 109.0685314  22.8476673 116.9501747
 107.6477105  23.1986331 116.5629128 100.9652886  24.8944774 132.1643181
 101.7067571  25.4329818 131.8878004 100.2589872  25.5211063 132.3214732
 106.4408226  27.0373914 130.7615342 106.8491582  26.5956325 130.0169974
 105.7185487  26.4626542 131.0149535 102.7939296  21.9746521 128.1348899
 103.6400491  22.3985935 128.2783548 102.7337934  21.3180145 128.8287462
 106.7637041  27.5975105 124.5167631 106.1345903  27.7620819 123.8143699
 106.3762703  28.0116715 125.2878595 110.6426273  28.5329543 121.8711995
 109.9577311  28.9128444 121.3209028 110.7270122  29.1424869 122.6043943
 107.8977204  26.1789502 128.4707338 108.1094099  26.8221262 127.7941719
 107.8506952  25.3451818 128.0029268 105.5003433  18.7907322 125.3743910
 104.6387912  19.0888576 125.6660648 105.5265868  19.0077721 124.4424943
 102.3165002  27.3349513 121.7817716 102.7803348  27.6137216 120.9922339
 102.0521801  26.4332958 121.5990807  99.2089084  26.8820995 124.7197479
  99.7790441  27.3108263 124.0814964  99.7997195  26.6003579 125.4181665
 101.2533889  23.4572665 118.5907281 101.9557932  23.9093709 119.0581208
 100.9214517  22.8156484 119.2187174  99.7014250  22.0484422 132.9658491
  99.0712911  22.7300703 133.1993887  99.5950338  21.9367504 132.0211629
  94.9959222  21.7156218 123.8924415  94.2058276  21.9713747 123.4164525
  95.4870470  22.5304556 123.9976455 109.0123032  29.0561457 126.6429696
 109.8340476  28.6541645 126.3612377 109.0085435  28.9529691 127.5945811
  96.9473968  22.0800797 120.8507891  96.1505131  22.1919492 121.3691387
  96.7199560  22.4187450 119.9848782 102.7779635  28.6045501 128.7990406
 102.8424068  29.0665908 129.6348578 102.0690559  27.9742865 128.9272716
  93.2796925  21.9686709 126.3239406  93.5304964  22.8533718 126.5896982
  93.8156474  21.7891310 125.5514497 102.4927653  30.2713608 118.6669386
 102.3573328  31.1165144 119.0954234 103.0337466  30.4732886 117.9035320
  95.9457051  27.7889046 119.2397312  96.4581571  28.5832296 119.3902876
  96.5979763  27.0915337 119.1730913  97.7551935  30.9054802 121.3220065
  97.9318564  31.8272767 121.1341049  98.5508769  30.5913222 121.7514444
  97.0404292  22.9519434 131.1982228  96.9257807  22.0504691 131.4989327
  96.1848810  23.1983131 130.8467044 104.1196130  30.8937175 132.7969729
 103.6759984  30.1073553 132.4790633 104.7813343  31.0816325 132.1313619
  98.8783251  32.4232976 127.3230407  99.4290676  32.2950040 126.5507401
  98.0394727  32.7227865 126.9725300 106.2177368  31.1739974 130.8251130
 106.1995843  31.9948856 130.3331399 107.1397288  31.0494050 131.0501271
 102.6750422  28.6884104 131.6674638 103.2078759  27.9272392 131.4373946
 102.1464503  28.3957756 132.4098793  93.9105967  26.1177700 120.0156882
  94.7481189  26.5274709 119.7990590  94.0884235  25.1777143 119.9857076
 105.8070399  23.7852781 115.7040715 105.2917023  24.5557386 115.9429102
 105.5347708  23.1117917 116.3273776 103.3917510  18.6302482 120.7625953
 102.5359107  18.2409332 120.5831592 103.8044462  18.7094443 119.9025739
 104.9216657  16.1648825 125.1617513 104.4181453  16.1278960 124.3485318
 105.2147264  17.0741568 125.2214170 101.1659543  16.2487555 124.1683695
 102.0312540  16.0530363 123.8089584 101.2337052  16.0197907 125.0953052
 110.7804674  26.5385136 117.6393889 110.0034116  26.1996295 117.1949051
 111.4596155  26.5437759 116.9648854 105.5956703  21.6579873 117.5300496
 105.2906838  21.9726022 118.3810639 106.5487145  21.7361293 117.5727829
 104.0403134  27.8170096 119.1793450 103.5124496  27.0822856 118.8666688
 103.5390637  28.5944773 118.9333419 109.0195980  26.0119117 124.2960496
 108.3619655  26.7018378 124.3840625 109.8236380  26.4015549 124.6394483
  98.7721862  18.4789763 121.5400062  99.3465614  18.2564944 120.8073255
  99.3592845  18.5478457 122.2928663 107.8301439  24.3663490 122.3464438
 108.3433321  24.9993481 122.8486148 108.4802663  23.7664685 121.9807798
  99.0991449  20.5094224 115.5595947  98.2628761  20.8468910 115.8805222
  98.9596219  20.3743204 114.6223084 101.0744530  15.3531012 120.2675131
 100.4208942  15.0380029 119.6431746 101.0325004  14.7306752 120.9934954
 102.1855735  25.6350307 112.1828423 101.2782796  25.4039560 112.3819572
 102.6826767  24.8387926 112.3702405 105.0923814  34.3447814 115.1025109
 104.4185512  34.6479511 115.7110067 105.4789635  35.1476894 114.7530566
 104.3082270  21.8412945 124.5922779 103.3904832  22.0627892 124.4344467
 104.7242414  21.9159256 123.7334486 105.0917318  23.2404361 119.7225459
 105.8389137  23.7525758 119.4132581 105.3608907  22.9188414 120.5829853
 103.3643968  25.7362902 116.7052413 102.4555187  25.4521934 116.8024883
 103.3939052  26.1561980 115.8455720 108.5963235  29.3469491 120.4743581
 108.1425563  28.5060401 120.5308771 107.9657202  29.9830889 120.8118361
 107.5396155  20.2761477 121.7044248 106.8018912  19.7638863 122.0354491
 107.7922929  19.8361859 120.8927525 107.0396175  31.1845988 121.4093399
 107.3319149  31.7451045 120.6905765 107.5494795  31.4774549 122.1646558
  93.9332138  23.4568416 120.6867616  93.7356538  22.8637776 119.9618682
  93.3778802  23.1520626 121.4043554 101.9128862  23.3491522 122.8062209
 101.9677472  22.3965359 122.7304685 101.1020064  23.5050961 123.2903507
 103.0620056  27.2771645 114.0440492 102.6239486  26.5607504 113.5846129
 103.8030497  27.5047760 113.4825583  99.8521222  21.9668582 120.5652588
  99.0389088  22.2662752 120.9717780 100.3480216  21.5724271 121.2827070
 102.0029800  31.9626339 122.4986852 101.9605979  32.1887185 121.5695384
 102.9192499  31.7289713 122.6472653 111.1793171  25.5528842 120.1016810
 111.0411069  25.7430438 119.1738000 110.8229389  26.3148225 120.5584862
  99.3435297  19.5386937 126.1813822  99.9834676  19.3975697 125.4836786
  98.5112827  19.2521451 125.8052424 111.2062550  27.6205369 125.1128082
 111.6399057  27.5280658 125.9611136 111.9194131  27.5962870 124.4748098
 100.1195601  28.8389368 122.2948815 100.9136199  28.3439688 122.0931390
  99.4087293  28.3107231 121.9316521 104.9390445  31.2207463 126.6461183
 104.9927467  31.7898400 127.4138898 104.0705227  31.3909348 126.2815220
  96.4278364  22.9832450 118.3708568  95.4975952  22.9216905 118.5878530
  96.5235836  22.4608402 117.5745209  96.3463913  19.5087262 120.9586809
  96.6070731  20.4232596 120.8495970  97.1681086  19.0411705 121.1083422
  97.8188839  20.9225020 128.1285634  98.4911892  20.7142382 127.4798283
  96.9918625  20.7247106 127.6890866 103.8978545  25.3867725 128.2048114
 104.8270605  25.5378885 128.0317082 103.4769575  25.4751746 127.3496761
 102.6966877  29.4118390 125.9746652 102.5577962  29.0437174 126.8472590
 101.9081473  29.9266029 125.8030610 103.2915029  34.5127486 117.3172189
 103.4666784  34.0415530 118.1317811 102.6047817  35.1393253 117.5453449
 104.2472092  28.7899993 123.3635490 103.9121924  28.7500763 124.2593140
 103.7476038  28.1244708 122.8905900  98.2216336  24.1967623 128.8888071
  98.0836134  23.4647861 129.4899610  99.1321259  24.1076523 128.6072259
 107.1831283  26.1356027 113.6372549 106.5660454  25.4102855 113.5405602
 106.7147772  26.8965387 113.2939624 100.8498636  23.9087582 128.3771751
 101.5598255  23.2680774 128.3358369 100.8067945  24.1600477 129.2997931
 108.8385415  30.8454935 131.2978330 108.7797961  30.1614155 130.6308913
 109.2404934  31.5873925 130.8458956  99.5627570  20.8952800 130.1967390
  99.0264927  20.4443538 130.8488986  98.9744279  21.0298709 129.4537854
  97.8576114  37.6616849 124.0912049  98.0972712  38.2935373 124.7691067
  97.0145310  37.3104889 124.3777408  98.9729829  20.3541451 112.7593854
  98.0959296  20.2330252 112.3956100  99.4487582  19.5627529 112.5072742
  90.4931970  25.1418611 122.8535361  91.1803009  24.8280341 122.2656376
  90.3380098  26.0459976 122.5802612  95.2966692  20.0308807 127.2820385
  95.2124880  19.4234477 126.5470795  94.4749398  20.5217826 127.2829881
 102.3703976  33.4695972 126.4953553 102.2974147  34.2750943 127.0072857
 101.9281369  33.6687937 125.6701574 102.1593755  32.7067742 120.0056374
 101.3761277  33.2489422 120.0994599 102.8586501  33.2241721 120.4050615
 105.4690406  18.5162371 122.6490580 105.9659105  17.7632333 122.3291650
 104.6977387  18.5526688 122.0833789 104.8302659  33.3682806 128.6511711
 105.5430632  34.0030270 128.5787613 104.3392688  33.4646672 127.8351713
 106.5520186  27.2734058 120.2229003 105.6176465  27.3935521 120.0533707
 106.7296855  26.3706525 119.9589013 102.0525374  20.6579754 122.3762264
 101.6823162  20.1050794 123.0643170 102.5484467  20.0537887 121.8237264
 109.9392738  23.1151378 120.7579037 110.4053190  23.9479369 120.6839340
 110.3900238  22.6496359 121.4624296  99.8814573  31.1177249 129.4717282
 100.5824032  31.7513732 129.6246676  99.4109688  31.4591981 128.7112921
 108.0068969  29.4595199 117.7565189 108.2828813  29.3451793 118.6659063
 107.1373467  29.0612684 117.7177362 107.6815859  23.6721856 127.2969833
 107.0287309  23.9197764 126.6422285 108.0596239  22.8585995 126.9632310
 104.6423033  33.7081550 121.3998003 104.8245427  32.8903206 121.8625755
 105.4656019  33.9249242 120.9622893 104.9765198  32.6349735 118.6613051
 105.5052965  32.1242189 118.0483213 105.2393418  32.3192265 119.5258584
  95.4782291  30.6513604 126.4048385  96.0635728  29.9057292 126.5376289
  95.2807129  30.9617561 127.2885049  98.3320946  33.6864851 121.4210827
  97.6631321  34.1710979 120.9374867  98.1933816  33.9334072 122.3354206
  90.0699946  23.2219204 125.1252828  90.1084045  22.6882795 125.9189946
  89.5640238  22.6954410 124.5063805 102.4726215  35.7208595 128.0193486
 103.0244523  35.8840216 128.7842571 102.8132408  36.3113033 127.3473510
  97.4490708  18.0683745 128.6215370  97.5132034  18.9298576 128.2092768
  97.3857828  17.4557746 127.8887729  96.9242980  20.1406877 132.2688405
  97.5515019  19.7583955 132.8825929  96.0670899  19.9221079 132.6344097
  93.7008523  21.9483306 118.2006759  93.9961964  21.0393985 118.1473813
  92.7996559  21.9271046 117.8787762 105.6094602  33.6690571 125.0057168
 105.4845741  32.8680310 124.4968113 106.2673693  34.1636764 124.5171138
  97.2302770  20.0239303 124.1834308  96.5089356  20.6375271 124.0441781
  98.0196026  20.5597068 124.1050954 107.6729510  31.4699591 126.6336718
 106.7259846  31.3504942 126.5615045 108.0212284  30.5822089 126.7162979
  95.4296365  19.6297404 118.3246085  95.1009071  18.7494783 118.1421190
  95.7835736  19.5745073 119.2122474 104.6775944  31.2652307 122.8341070
 104.5300906  30.3369014 123.0148640 105.5029437  31.2872398 122.3498145
  98.5438188  19.9170374 118.6921562  98.8834260  20.4456295 117.9700171
  98.9910308  20.2550780 119.4680129 108.2810066  32.0880866 123.9205943
 109.2056613  31.8823727 123.7830394 108.1125369  31.8397267 124.8295284
 101.2381629  18.3007425 128.1424630 100.8978449  17.5015238 128.5445310
 100.5320635  18.6009135 127.5701463 101.8898101  15.3856737 126.5951953
 102.7124170  14.9117215 126.4730844 102.1336164  16.1647221 127.0950640
 100.5306335  18.4144995 116.8914855 101.2514698  18.7926248 116.3878572
  99.9071639  19.1333872 116.9949833 104.6737458  19.1190144 117.8273187
 104.8901072  20.0014782 117.5262015 104.1931525  18.7276358 117.0978829
  99.4136679  22.0775858 124.4043932  99.2681260  22.3916161 125.2968213
  98.9361883  22.6960758 123.8514831 101.2733062  19.0678406 124.4524821
 101.2594631  18.1719499 124.1157119 101.9905490  19.0749069 125.0863108
 103.1259193  19.5015746 126.4977949 102.8676971  20.4232817 126.4962279
 102.5944233  19.1046180 127.1878413 108.0705382  32.6066533 119.2768034
 108.2442259  32.0412955 118.5241887 108.5634273  33.4067428 119.0947524
  93.8882342  24.6181202 127.3431593  93.3435810  25.3941010 127.4751867
  94.7661691  24.9652007 127.1850715 100.6769958  17.9492786 119.7212392
 100.7985869  17.0209432 119.9203279 100.3872001  17.9631472 118.8090707
 103.5461149  15.6347696 122.8579111 103.5682845  15.6987029 121.9031091
 103.9629208  14.7952205 123.0519618 113.9244773  25.3702956 120.8958334
 114.3675919  24.6210281 120.4977457 113.0471283  25.3613092 120.5132066
 109.0580554  31.9233297 116.3764933 109.7531459  32.5439990 116.5952247
 109.4003704  31.0728649 116.6517310  94.6748363  23.7451098 130.2361750
  93.9330099  23.8933734 130.8226380  94.3541108  24.0059364 129.3728499
 110.9571977  29.3733003 117.9052263 111.4823301  29.7120276 117.1801583
 110.8694330  28.4380018 117.7215398 102.6192026  33.2867077 130.0342140
 102.9279153  33.0416223 130.9064840 103.4167508  33.4913715 129.5461010
 102.6412638  35.4404986 122.2647517 102.2017628  34.9481365 122.9580373
 103.3920755  34.8977954 122.0239592  95.1204977  31.6316527 122.2672145
  95.9462997  31.3320299 121.8870788  94.7699029  30.8624149 122.7161933
 100.0886510  30.9842995 124.3369818  99.4666520  30.3213700 124.0372046
 100.7591377  31.0104127 123.6543466  93.3213582  29.5502854 123.2261078
  92.4845490  29.1225028 123.0445079  93.2937228  29.7435297 124.1631869
  99.6500017  29.5346919 117.8128279  99.7988138  30.2182383 117.1594951
 100.4566461  29.5152009 118.3277734 113.4677638  26.8408194 123.2880782
 114.3024529  27.2797998 123.4518342 113.6036766  26.3646847 122.4689027
  97.4052650  25.5612096 118.8189348  97.1598692  24.6574426 119.0169558
  97.5748565  25.5629247 117.8768826  96.6748298  21.2940454 116.3175509
  95.9817543  21.3684809 115.6615545  96.4300050  20.5300797 116.8397026
 103.1495423  32.0295049 115.2840026 102.5769390  32.6485236 114.8310498
 103.7228216  32.5794411 115.8179948 106.3692682  32.3132199 116.4148608
 107.3023356  32.2477761 116.6181484 106.2815895  33.1488466 115.9563141
 108.9980699  31.6298070 113.3752556 108.9194331  31.2957933 114.2688314
 109.8190366  32.1219837 113.3744028 103.5342221  23.3655862 112.6256079
 104.4801326  23.2362070 112.6944497 103.1556466  22.6270524 113.1025507
 101.7185138  21.2905838 112.5610964 100.8116594  20.9938951 112.6373677
 101.9961119  20.9935656 111.6945250  92.6363079  22.6112202 123.0110010
  92.3165863  21.7577510 122.7184384  92.0896507  22.8260780 123.7667978
  96.4142986  25.3274643 126.7279517  96.6328996  26.2591750 126.7467551
  96.8268760  24.9682617 127.5134321 103.3347204  15.8342728 118.7155205
 102.5247932  15.4889813 119.0910451 104.0231621  15.5250272 119.3042817
 105.2637752  14.9120775 120.3379502 105.8168791  15.3316228 120.9969525
 105.5007839  13.9856523 120.3802458 100.4883923  18.1492773 112.7022943
 101.3503087  18.4747672 112.9618760 100.6734267  17.3624269 112.1896009
  92.5051339  26.2315113 124.9803132  91.8114810  25.8169066 124.4673086
  93.2524330  26.2735650 124.3836551 108.6416559  17.0221300 119.8458166
 108.0615229  17.6806104 119.4636218 108.3752492  16.1998644 119.4345584
 107.0920126  16.4226358 122.0479486 107.5919904  16.5342892 121.2393805
 107.7355734  16.1187410 122.6880295  94.4188081  26.1633367 122.8569147
  94.3958769  26.2621054 121.9051030  94.7288718  27.0098518 123.1786313
  97.0775459  28.2209522 126.9715761  98.0318713  28.1893464 126.9045693
  96.8787983  27.7600146 127.7865987  97.6674841  26.7910638 129.5386559
  98.4867730  27.2854717 129.5621396  97.9411649  25.8742606 129.5104126
 107.4241437  19.1821390 118.9014514 106.5367292  19.4671041 118.6834709
 107.8395427  19.0215154 118.0541791  95.4325688  33.7629141 123.9885959
  95.2980156  33.0029542 123.4223957  95.0157750  34.4870041 123.5214748
 106.5684651  28.9466065 112.9962534 107.2720501  29.1516067 113.6120190
 105.8447300  29.5142827 113.2611618 107.3982461  24.6975926 119.1164804
 107.3417663  25.1544478 118.2772437 107.9510804  23.9366611 118.9387647
 111.2087267  20.4865658 119.9414924 110.9524201  20.0862294 120.7723132
 110.5840135  21.2009452 119.8165063  98.5894814  34.6598458 124.2004402
  98.4727198  35.6043891 124.0983092  97.7687260  34.3572020 124.5890201
 108.4771348  29.3848594 115.0460994 109.3116952  28.9529793 114.8638469
 108.3155691  29.2130608 115.9737889 108.1317241  25.8880707 116.4117334
 108.0766044  25.7224979 115.4705778 107.5063296  26.5956740 116.5679523
  92.9209756  21.1248772 130.2378756  93.5668619  20.6147726 130.7265981
  92.7126907  21.8617453 130.8122181 101.4413366  15.3888816 115.9902652
 101.4292036  16.3330656 116.1470923 102.3336788  15.2058962 115.6962113
  99.6149328  35.3126720 127.4160330 100.5176575  35.3450331 127.7326825
  99.3886698  34.3827171 127.4306666 101.3702930  34.0657707 124.0770409
 100.4198561  34.0659568 123.9634781 101.6735416  33.3190441 123.5606443
 105.2565485  11.9831593 120.2448589 104.4897881  11.4290080 120.3905271
 105.6676190  12.0553462 121.1062740 117.1055623  39.9018245 125.1416171
 117.7434033  39.7824993 124.4379511 116.9876466  40.8499089 125.2004123
 113.9145330  39.8545673 125.0777696 113.5763841  39.7386738 124.1898231
 114.7835098  39.4536838 125.0578702 109.7732145  41.7081150 121.0674587
 109.2097011  41.6171087 120.2990875 109.6584540  40.8881054 121.5477079
 114.3965113  41.0080525 131.0363901 114.3853753  40.6133323 130.1644405
 114.5585752  40.2746598 131.6297673 107.3196577  43.2032341 123.9058807
 108.1117869  42.8623166 123.4905107 107.5593228  43.3127316 124.8260961
 115.3531704  45.3752117 116.3789052 114.7019684  45.9606198 115.9923065
 116.1476067  45.9058312 116.4384089 109.2787331  42.4641255 116.7776186
 110.0518207  41.9170242 116.6389062 109.6312730  43.3285504 116.9890647
 111.1172374  43.7917637 129.9843085 110.8262240  44.6963268 129.8689752
 111.7529358  43.8334165 130.6987155 112.0428581  41.1694485 126.5744445
 112.6392153  40.9450508 125.8601408 112.1003552  40.4279231 127.1769893
 111.6153609  38.6233921 114.4094636 111.8679130  38.1015442 113.6478099
 110.6778168  38.4600066 114.5121320 116.6596892  37.6269699 122.2169379
 117.4459981  37.2089122 121.8659796 116.9235596  38.5315791 122.3851028
 116.8306969  43.0642549 116.9158036 116.1952802  43.1377176 117.6278941
 116.5004376  43.6536148 116.2377115 122.0605319  37.5644932 123.1202358
 122.7930491  36.9944149 123.3540187 121.3044675  37.1766533 123.5608863
 111.3349898  40.5262027 116.6119011 111.2186156  39.8506930 117.2800095
 111.4452158  40.0394401 115.7951164 113.6781439  39.9872174 120.3165700
 113.3139646  39.4602795 121.0278622 114.5348555  39.5970643 120.1432186
 113.3186926  35.0162073 115.3127049 113.4861328  35.8842310 115.6797520
 113.1284095  35.1789355 114.3888338 116.0762259  43.4779052 126.9792879
 115.7762982  44.3804091 126.8708686 115.7313318  43.2111236 127.8314032
 109.5274740  39.9292849 123.0129583 108.6025237  39.7969063 123.2207275
 109.7759154  40.7087068 123.5099526 119.4759403  35.9961593 124.6590316
 118.5676280  35.9277001 124.3649077 119.4246999  36.4733538 125.4872142
 113.2976147  37.4719731 116.2973715 113.1775772  37.9176782 117.1359196
 112.6028735  37.8205049 115.7387254 106.8883551  39.5726123 123.8473373
 107.0175933  39.8260602 124.7612784 106.2081003  40.1653831 123.5278028
 111.0583039  50.2423373 119.9463847 110.9807068  51.1931198 120.0252327
 110.4544682  49.8969245 120.6038773 118.9961213  37.9441204 117.1254050
 119.9079069  38.1768591 116.9501747 118.4870860  38.5278248 116.5629128
 111.8046641  40.2236692 132.1643181 112.5461325  40.7621736 131.8878004
 111.0983626  40.8502980 132.3214732 117.2801980  42.3665832 130.7615342
 117.6885336  41.9248243 130.0169974 116.5579242  41.7918460 131.0149535
 113.6333050  37.3038439 128.1348899 114.4794246  37.7277852 128.2783548
 113.5731688  36.6472063 128.8287462 117.6030795  42.9267023 124.5167631
 116.9739658  43.0912737 123.8143699 117.2156457  43.3408632 125.2878595
 121.4820027  43.8621460 121.8711995 120.7971065  44.2420362 121.3209028
 121.5663876  44.4716787 122.6043943 118.7370959  41.5081420 128.4707338
 118.9487854  42.1513179 127.7941719 118.6900707  40.6743736 128.0029268
 116.3397188  34.1199240 125.3743910 115.4781667  34.4180494 125.6660648
 116.3659622  34.3369639 124.4424943 113.1558757  42.6641431 121.7817716
 113.6197103  42.9429134 120.9922339 112.8915555  41.7624875 121.5990807
 110.0482838  42.2112912 124.7197479 110.6184195  42.6400181 124.0814964
 110.6390950  41.9295497 125.4181665 112.0927643  38.7864583 118.5907281
 112.7951686  39.2385627 119.0581208 111.7608272  38.1448402 119.2187174
 110.5408005  37.3776340 132.9658491 109.9106665  38.0592621 133.1993887
 110.4344092  37.2659421 132.0211629 105.8352977  37.0448136 123.8924415
 105.0452031  37.3005664 123.4164525 106.3264224  37.8596474 123.9976455
 119.8516787  44.3853375 126.6429696 120.6734230  43.9833562 126.3612377
 119.8479189  44.2821609 127.5945811 107.7867722  37.4092715 120.8507891
 106.9898886  37.5211409 121.3691387 107.5593315  37.7479367 119.9848782
 113.6173390  43.9337418 128.7990406 113.6817823  44.3957825 129.6348578
 112.9084314  43.3034783 128.9272716 104.1190680  37.2978626 126.3239406
 104.3698718  38.1825636 126.5896982 104.6550228  37.1183228 125.5514497
 113.3321408  45.6005526 118.6669386 113.1967082  46.4457061 119.0954234
 113.8731220  45.8024803 117.9035320 106.7850805  43.1180964 119.2397312
 107.2975326  43.9124214 119.3902876 107.4373518  42.4207254 119.1730913
 108.5945690  46.2346720 121.3220065 108.7712318  47.1564685 121.1341049
 109.3902523  45.9205139 121.7514444 107.8798046  38.2811352 131.1982228
 107.7651561  37.3796609 131.4989327 107.0242564  38.5275049 130.8467044
 114.9589884  46.2229092 132.7969729 114.5153738  45.4365471 132.4790633
 115.6207098  46.4108243 132.1313619 109.7177005  47.7524894 127.3230407
 110.2684430  47.6241957 126.5507401 108.8788481  48.0519783 126.9725300
 117.0571122  46.5031892 130.8251130 117.0389597  47.3240773 130.3331399
 117.9791042  46.3785967 131.0501271 113.5144176  44.0176022 131.6674638
 114.0472513  43.2564310 131.4373946 112.9858257  43.7249673 132.4098793
 104.7499722  41.4469618 120.0156882 105.5874944  41.8566626 119.7990590
 104.9277990  40.5069060 119.9857076 116.6464154  39.1144699 115.7040715
 116.1310777  39.8849303 115.9429102 116.3741462  38.4409835 116.3273776
 114.2311265  33.9594399 120.7625953 113.3752861  33.5701250 120.5831592
 114.6438217  34.0386360 119.9025739 115.7610412  31.4940743 125.1617513
 115.2575207  31.4570878 124.3485318 116.0541018  32.4033485 125.2214170
 112.0053297  31.5779472 124.1683695 112.8706294  31.3822281 123.8089584
 112.0730806  31.3489824 125.0953052 121.6198428  41.8677053 117.6393889
 120.8427871  41.5288213 117.1949051 122.2989909  41.8729677 116.9648854
 116.4350457  36.9871791 117.5300496 116.1300593  37.3017940 118.3810639
 117.3880899  37.0653211 117.5727829 114.8796889  43.1462014 119.1793450
 114.3518251  42.4114774 118.8666688 114.3784392  43.9236690 118.9333419
 119.8589735  41.3411035 124.2960496 119.2013409  42.0310296 124.3840625
 120.6630134  41.7307467 124.6394483 109.6115617  33.8081680 121.5400062
 110.1859368  33.5856862 120.8073255 110.1986599  33.8770375 122.2928663
 118.6695194  39.6955407 122.3464438 119.1827076  40.3285399 122.8486148
 119.3196418  39.0956603 121.9807798 109.9385204  35.8386141 115.5595947
 109.1022516  36.1760828 115.8805222 109.7989973  35.7035121 114.6223084
 111.9138284  30.6822929 120.2675131 111.2602697  30.3671946 119.6431746
 111.8718758  30.0598670 120.9934954 113.0249489  40.9642224 112.1828423
 112.1176551  40.7331478 112.3819572 113.5220521  40.1679844 112.3702405
 115.9317568  49.6739732 115.1025109 115.2579267  49.9771428 115.7110067
 116.3183390  50.4768812 114.7530566 115.1476025  37.1704863 124.5922779
 114.2298586  37.3919810 124.4344467 115.5636168  37.2451173 123.7334486
 115.9311072  38.5696279 119.7225459 116.6782891  39.0817676 119.4132581
 116.2002662  38.2480331 120.5829853 114.2037723  41.0654819 116.7052413
 113.2948942  40.7813852 116.8024883 114.2332806  41.4853898 115.8455720
 119.4356990  44.6761409 120.4743581 118.9819317  43.8352319 120.5308771
 118.8050957  45.3122807 120.8118361 118.3789910  35.6053395 121.7044248
 117.6412666  35.0930781 122.0354491 118.6316683  35.1653776 120.8927525
 117.8789929  46.5137905 121.4093399 118.1712904  47.0742963 120.6905765
 118.3888550  46.8066466 122.1646558 104.7725893  38.7860333 120.6867616
 104.5750293  38.1929694 119.9618682 104.2172557  38.4812544 121.4043554
 112.7522617  38.6783440 122.8062209 112.8071226  37.7257276 122.7304685
 111.9413819  38.8342879 123.2903507 113.9013810  42.6063563 114.0440492
 113.4633240  41.8899422 113.5846129 114.6424251  42.8339678 113.4825583
 110.6914977  37.2960500 120.5652588 109.8782842  37.5954670 120.9717780
 111.1873971  36.9016188 121.2827070 112.8423554  47.2918257 122.4986852
 112.7999733  47.5179103 121.5695384 113.7586253  47.0581631 122.6472653
 122.0186925  40.8820760 120.1016810 121.8804824  41.0722356 119.1738000
 121.6623144  41.6440143 120.5584862 110.1829051  34.8678855 126.1813822
 110.8228431  34.7267614 125.4836786 109.3506582  34.5813369 125.8052424
 122.0456305  42.9497287 125.1128082 122.4792811  42.8572576 125.9611136
 122.7587885  42.9254787 124.4748098 110.9589355  44.1681286 122.2948815
 111.7529954  43.6731606 122.0931390 110.2481048  43.6399149 121.9316521
 115.7784200  46.5499381 126.6461183 115.8321222  47.1190317 127.4138898
 114.9098981  46.7201266 126.2815220 107.2672119  38.3124367 118.3708568
 106.3369707  38.2508823 118.5878530 107.3629591  37.7900320 117.5745209
 107.1857668  34.8379180 120.9586809 107.4464485  35.7524513 120.8495970
 108.0074840  34.3703623 121.1083422 108.6582593  36.2516937 128.1285634
 109.3305646  36.0434299 127.4798283 107.8312380  36.0539023 127.6890866
 114.7372299  40.7159643 128.2048114 115.6664359  40.8670803 128.0317082
 114.3163329  40.8043664 127.3496761 113.5360631  44.7410308 125.9746652
 113.3971717  44.3729092 126.8472590 112.7475227  45.2557947 125.8030610
 114.1308783  49.8419404 117.3172189 114.3060539  49.3707447 118.1317811
 113.4441571  50.4685170 117.5453449 115.0865846  44.1191910 123.3635490
 114.7515679  44.0792680 124.2593140 114.5869792  43.4536626 122.8905900
 109.0610090  39.5259540 128.8888071 108.9229888  38.7939779 129.4899610
 109.9715014  39.4368440 128.6072259 118.0225038  41.4647945 113.6372549
 117.4054209  40.7394773 113.5405602 117.5541526  42.2257305 113.2939624
 111.6892391  39.2379500 128.3771751 112.3992009  38.5972692 128.3358369
 111.6461699  39.4892394 129.2997931 119.6779170  46.1746853 131.2978330
 119.6191716  45.4906073 130.6308913 120.0798688  46.9165843 130.8458956
 110.4021325  36.2244717 130.1967390 109.8658682  35.7735456 130.8488986
 109.8138033  36.3590626 129.4537854 108.6969868  52.9908767 124.0912049
 108.9366467  53.6227291 124.7691067 107.8539065  52.6396807 124.3777408
 109.8123584  35.6833369 112.7593854 108.9353050  35.5622170 112.3956100
 110.2881337  34.8919447 112.5072742 101.3325724  40.4710529 122.8535361
 102.0196764  40.1572259 122.2656376 101.1773853  41.3751893 122.5802612
 106.1360446  35.3600725 127.2820385 106.0518635  34.7526395 126.5470795
 105.3143153  35.8509743 127.2829881 113.2097730  48.7987889 126.4953553
 113.1367902  49.6042861 127.0072857 112.7675123  48.9979855 125.6701574
 112.9987510  48.0359659 120.0056374 112.2155032  48.5781339 120.0994599
 113.6980255  48.5533639 120.4050615 116.3084160  33.8454289 122.6490580
 116.8052860  33.0924251 122.3291650 115.5371142  33.8818605 122.0833789
 115.6696414  48.6974723 128.6511711 116.3824386  49.3322188 128.5787613
 115.1786442  48.7938589 127.8351713 117.3913941  42.6025976 120.2229003
 116.4570219  42.7227438 120.0533707 117.5690609  41.6998443 119.9589013
 112.8919129  35.9871672 122.3762264 112.5216916  35.4342712 123.0643170
 113.3878221  35.3829805 121.8237264 120.7786492  38.4443295 120.7579037
 121.2446944  39.2771287 120.6839340 121.2293993  37.9788277 121.4624296
 110.7208327  46.4469167 129.4717282 111.4217787  47.0805650 129.6246676
 110.2503442  46.7883898 128.7112921 118.8462723  44.7887116 117.7565189
 119.1222567  44.6743711 118.6659063 117.9767222  44.3904601 117.7177362
 118.5209613  39.0013774 127.2969833 117.8681064  39.2489682 126.6422285
 118.8989993  38.1877912 126.9632310 115.4816787  49.0373467 121.3998003
 115.6639182  48.2195123 121.8625755 116.3049773  49.2541160 120.9622893
 115.8158953  47.9641652 118.6613051 116.3446719  47.4534107 118.0483213
 116.0787172  47.6484183 119.5258584 106.3176045  45.9805522 126.4048385
 106.9029482  45.2349210 126.5376289 106.1200884  46.2909478 127.2885049
 109.1714701  49.0156769 121.4210827 108.5025076  49.5002897 120.9374867
 109.0327570  49.2625990 122.3354206 100.9093700  38.5511122 125.1252828
 100.9477800  38.0174713 125.9189946 100.4033993  38.0246327 124.5063805
 113.3119969  51.0500513 128.0193486 113.8638277  51.2132134 128.7842571
 113.6526163  51.6404950 127.3473510 108.2884462  33.3975662 128.6215370
 108.3525789  34.2590493 128.2092768 108.2251583  32.7849664 127.8887729
 107.7636735  35.4698795 132.2688405 108.3908774  35.0875872 132.8825929
 106.9064654  35.2512997 132.6344097 104.5402278  37.2775224 118.2006759
 104.8355719  36.3685903 118.1473813 103.6390314  37.2562964 117.8787762
 116.4488357  48.9982488 125.0057168 116.3239496  48.1972228 124.4968113
 117.1067448  49.4928682 124.5171138 108.0696525  35.3531221 124.1834308
 107.3483110  35.9667188 124.0441781 108.8589781  35.8888986 124.1050954
 118.5123265  46.7991508 126.6336718 117.5653600  46.6796859 126.5615045
 118.8606038  45.9114006 126.7162979 106.2690119  34.9589322 118.3246085
 105.9402825  34.0786701 118.1421190 106.6229490  34.9036990 119.2122474
 115.5169698  46.5944224 122.8341070 115.3694661  45.6660932 123.0148640
 116.3423192  46.6164315 122.3498145 109.3831942  35.2462292 118.6921562
 109.7228015  35.7748213 117.9700171 109.8304063  35.5842698 119.4680129
 119.1203820  47.4172783 123.9205943 120.0450368  47.2115645 123.7830394
 118.9519123  47.1689184 124.8295284 112.0775383  33.6299342 128.1424630
 111.7372204  32.8307155 128.5445310 111.3714390  33.9301053 127.5701463
 112.7291855  30.7148655 126.5951953 113.5517924  30.2409133 126.4730844
 112.9729919  31.4939138 127.0950640 111.3700090  33.7436913 116.8914855
 112.0908452  34.1218166 116.3878572 110.7465394  34.4625790 116.9949833
 115.5131213  34.4482062 117.8273187 115.7294827  35.3306700 117.5262015
 115.0325280  34.0568276 117.0978829 110.2530434  37.4067775 124.4043932
 110.1075015  37.7208078 125.2968213 109.7755638  38.0252676 123.8514831
 112.1126817  34.3970323 124.4524821 112.0988386  33.5011417 124.1157119
 112.8299245  34.4040987 125.0863108 113.9652947  34.8307664 126.4977949
 113.7070725  35.7524734 126.4962279 113.4337988  34.4338098 127.1878413
 118.9099136  47.9358451 119.2768034 119.0836014  47.3704873 118.5241887
 119.4028027  48.7359346 119.0947524 104.7276096  39.9473120 127.3431593
 104.1829564  40.7232928 127.4751867 105.6055446  40.2943924 127.1850715
 111.5163713  33.2784704 119.7212392 111.6379624  32.3501350 119.9203279
 111.2265755  33.2923390 118.8090707 114.3854903  30.9639614 122.8579111
 114.4076600  31.0278947 121.9031091 114.8022962  30.1244123 123.0519618
 124.7638527  40.6994874 120.8958334 125.2069673  39.9502199 120.4977457
 123.8865038  40.6905010 120.5132066 119.8974309  47.2525215 116.3764933
 120.5925213  47.8731908 116.5952247 120.2397459  46.4020566 116.6517310
 105.5142118  39.0743016 130.2361750 104.7723854  39.2225651 130.8226380
 105.1934862  39.3351282 129.3728499 121.7965732  44.7024921 117.9052263
 122.3217056  45.0412193 117.1801583 121.7088084  43.7671936 117.7215398
 113.4585781  48.6158994 130.0342140 113.7672907  48.3708141 130.9064840
 114.2561263  48.8205633 129.5461010 113.4806393  50.7696904 122.2647517
 113.0411383  50.2773283 122.9580373 114.2314510  50.2269872 122.0239592
 105.9598732  46.9608445 122.2672145 106.7856751  46.6612217 121.8870788
 105.6092784  46.1916067 122.7161933 110.9280265  46.3134913 124.3369818
 110.3060274  45.6505618 124.0372046 111.5985132  46.3396045 123.6543466
 104.1607337  44.8794771 123.2261078 103.3239245  44.4516946 123.0445079
 104.1330982  45.0727215 124.1631869 110.4893772  44.8638836 117.8128279
 110.6381892  45.5474301 117.1594951 111.2960215  44.8443926 118.3277734
 124.3071392  42.1700112 123.2880782 125.1418284  42.6089916 123.4518342
 124.4430521  41.6938765 122.4689027 108.2446405  40.8904014 118.8189348
 107.9992447  39.9866344 119.0169558 108.4142319  40.8921164 117.8768826
 107.5142052  36.6232372 116.3175509 106.8211297  36.6976727 115.6615545
 107.2693804  35.8592715 116.8397026 113.9889177  47.3586967 115.2840026
 113.4163144  47.9777154 114.8310498 114.5621971  47.9086328 115.8179948
 117.2086437  47.6424117 116.4148608 118.1417110  47.5769679 116.6181484
 117.1209650  48.4780384 115.9563141 119.8374454  46.9589987 113.3752556
 119.7588085  46.6249851 114.2688314 120.6584120  47.4511755 113.3744028
 114.3735976  38.6947780 112.6256079 115.3195080  38.5653988 112.6944497
 113.9950221  37.9562441 113.1025507 112.5578893  36.6197756 112.5610964
 111.6510348  36.3230869 112.6373677 112.8354874  36.3227574 111.6945250
 103.4756833  37.9404119 123.0110010 103.1559618  37.0869427 122.7184384
 102.9290261  38.1552697 123.7667978 107.2536741  40.6566560 126.7279517
 107.4722751  41.5883668 126.7467551 107.6662515  40.2974535 127.5134321
 114.1740959  31.1634646 118.7155205 113.3641687  30.8181731 119.0910451
 114.8625375  30.8542189 119.3042817 116.1031507  30.2412692 120.3379502
 116.6562545  30.6608146 120.9969525 116.3401593  29.3148441 120.3802458
 111.3277677  33.4784691 112.7022943 112.1896841  33.8039589 112.9618760
 111.5128022  32.6916187 112.1896009 103.3445093  41.5607031 124.9803132
 102.6508565  41.1460984 124.4673086 104.0918084  41.6027567 124.3836551
 119.4810314  32.3513218 119.8458166 118.9008983  33.0098022 119.4636218
 119.2146247  31.5290562 119.4345584 117.9313880  31.7518275 122.0479486
 118.4313659  31.8634810 121.2393805 118.5749488  31.4479328 122.6880295
 105.2581836  41.4925285 122.8569147 105.2352524  41.5912972 121.9051030
 105.5682472  42.3390435 123.1786313 107.9169214  43.5501440 126.9715761
 108.8712467  43.5185382 126.9045693 107.7181737  43.0892063 127.7865987
 108.5068596  42.1202556 129.5386559 109.3261485  42.6146634 129.5621396
 108.7805403  41.2034524 129.5104126 118.2635192  34.5113308 118.9014514
 117.3761047  34.7962959 118.6834709 118.6789181  34.3507071 118.0541791
 106.2719442  49.0921059 123.9885959 106.1373910  48.3321460 123.4223957
 105.8551505  49.8161959 123.5214748 117.4078405  44.2757983 112.9962534
 118.1114256  44.4807985 113.6120190 116.6841054  44.8434745 113.2611618
 118.2376216  40.0267844 119.1164804 118.1811417  40.4836395 118.2772437
 118.7904558  39.2658528 118.9387647 122.0481022  35.8157576 119.9414924
 121.7917956  35.4154211 120.7723132 121.4233890  36.5301370 119.8165063
 109.4288568  49.9890376 124.2004402 109.3120952  50.9335809 124.0983092
 108.6081015  49.6863938 124.5890201 119.3165103  44.7140512 115.0460994
 120.1510707  44.2821710 114.8638469 119.1549446  44.5422526 115.9737889
 118.9710995  41.2172625 116.4117334 118.9159799  41.0516897 115.4705778
 118.3457050  41.9248658 116.5679523 103.7603510  36.4540690 130.2378756
 104.4062374  35.9439643 130.7265981 103.5520661  37.1909371 130.8122181
 112.2807120  30.7180734 115.9902652 112.2685790  31.6622574 116.1470923
 113.1730542  30.5350880 115.6962113 110.4543082  50.6418638 127.4160330
 111.3570329  50.6742248 127.7326825 110.2280452  49.7119089 127.4306666
 112.2096684  49.3949625 124.0770409 111.2592315  49.3951486 123.9634781
 112.5129171  48.6482359 123.5606443 116.0959240  27.3123511 120.2448589
 115.3291636  26.7581997 120.3905271 116.5069945  27.3845380 121.1062740
 127.9449378  55.2310163 125.1416171 128.5827788  55.1116910 124.4379511
 127.8270221  56.1791007 125.2004123 124.7539084  55.1837591 125.0777696
 124.4157596  55.0678656 124.1898231 125.6228852  54.7828756 125.0578702
 120.6125900  57.0373067 121.0674587 120.0490765  56.9463004 120.2990875
 120.4978295  56.2172972 121.5477079 125.2358867  56.3372443 131.0363901
 125.2247508  55.9425241 130.1644405 125.3979507  55.6038515 131.6297673
 118.1590332  58.5324259 123.9058807 118.9511624  58.1915084 123.4905107
 118.3986982  58.6419234 124.8260961 126.1925459  60.7044035 116.3789052
 125.5413438  61.2898116 115.9923065 126.9869821  61.2350230 116.4384089
 120.1181086  57.7933172 116.7776186 120.8911962  57.2462159 116.6389062
 120.4706485  58.6577422 116.9890647 121.9566128  59.1209555 129.9843085
 121.6655994  60.0255185 129.8689752 122.5923113  59.1626082 130.6987155
 122.8822335  56.4986403 126.5744445 123.4785907  56.2742425 125.8601408
 122.9397307  55.7571149 127.1769893 122.4547364  53.9525838 114.4094636
 122.7072884  53.4307360 113.6478099 121.5171923  53.7891984 114.5121320
 127.4990646  52.9561617 122.2169379 128.2853736  52.5381040 121.8659796
 127.7629351  53.8607709 122.3851028 127.6700724  58.3934467 116.9158036
 127.0346557  58.4669094 117.6278941 127.3398130  58.9828066 116.2377115
 132.8999074  52.8936850 123.1202358 133.6324245  52.3236067 123.3540187
 132.1438429  52.5058450 123.5608863 122.1743652  55.8553944 116.6119011
 122.0579910  55.1798848 117.2800095 122.2845912  55.3686318 115.7951164
 124.5175193  55.3164091 120.3165700 124.1533400  54.7894712 121.0278622
 125.3742309  54.9262561 120.1432186 124.1580680  50.3453991 115.3127049
 124.3255083  51.2134228 115.6797520 123.9677849  50.5081273 114.3888338
 126.9156013  58.8070970 126.9792879 126.6156737  59.7096009 126.8708686
 126.5707073  58.5403153 127.8314032 120.3668495  55.2584767 123.0129583
 119.4418991  55.1260981 123.2207275 120.6152908  56.0378986 123.5099526
 130.3153157  51.3253510 124.6590316 129.4070035  51.2568919 124.3649077
 130.2640753  51.8025455 125.4872142 124.1369901  52.8011649 116.2973715
 124.0169526  53.2468699 117.1359196 123.4422489  53.1496966 115.7387254
 117.7277306  54.9018040 123.8473373 117.8569687  55.1552519 124.7612784
 117.0474757  55.4945748 123.5278028 121.8976793  65.5715290 119.9463847
 121.8200823  66.5223116 120.0252327 121.2938437  65.2261163 120.6038773
 129.8354967  53.2733122 117.1254050 130.7472823  53.5060509 116.9501747
 129.3264614  53.8570166 116.5629128 122.6440395  55.5528609 132.1643181
 123.3855080  56.0913653 131.8878004 121.9377381  56.1794898 132.3214732
 128.1195735  57.6957750 130.7615342 128.5279091  57.2540160 130.0169974
 127.3972996  57.1210377 131.0149535 124.4726805  52.6330356 128.1348899
 125.3188000  53.0569770 128.2783548 124.4125443  51.9763981 128.8287462
 128.4424550  58.2558940 124.5167631 127.8133412  58.4204654 123.8143699
 128.0550212  58.6700550 125.2878595 132.3213781  59.1913378 121.8711995
 131.6364820  59.5712280 121.3209028 132.4057631  59.8008705 122.6043943
 129.5764713  56.8373337 128.4707338 129.7881608  57.4805097 127.7941719
 129.5294461  56.0035654 128.0029268 127.1790942  49.4491158 125.3743910
 126.3175421  49.7472411 125.6660648 127.2053377  49.6661557 124.4424943
 123.9952511  57.9933348 121.7817716 124.4590857  58.2721051 120.9922339
 123.7309310  57.0916793 121.5990807 120.8876593  57.5404830 124.7197479
 121.4577950  57.9692098 124.0814964 121.4784704  57.2587415 125.4181665
 122.9321398  54.1156501 118.5907281 123.6345441  54.5677544 119.0581208
 122.6002026  53.4740320 119.2187174 121.3801759  52.7068257 132.9658491
 120.7500420  53.3884538 133.1993887 121.2737847  52.5951339 132.0211629
 116.6746731  52.3740053 123.8924415 115.8845785  52.6297582 123.4164525
 117.1657979  53.1888391 123.9976455 130.6910541  59.7145293 126.6429696
 131.5127985  59.3125480 126.3612377 130.6872944  59.6113527 127.5945811
 118.6261477  52.7384633 120.8507891 117.8292640  52.8503327 121.3691387
 118.3987069  53.0771285 119.9848782 124.4567144  59.2629336 128.7990406
 124.5211577  59.7249743 129.6348578 123.7478068  58.6326701 128.9272716
 114.9584434  52.6270544 126.3239406 115.2092473  53.5117554 126.5896982
 115.4943983  52.4475145 125.5514497 124.1715162  60.9297443 118.6669386
 124.0360837  61.7748979 119.0954234 124.7124975  61.1316721 117.9035320
 117.6244560  58.4472881 119.2397312 118.1369080  59.2416132 119.3902876
 118.2767272  57.7499172 119.1730913 119.4339444  61.5638638 121.3220065
 119.6106073  62.4856602 121.1341049 120.2296278  61.2497057 121.7514444
 118.7191801  53.6103270 131.1982228 118.6045316  52.7088527 131.4989327
 117.8636319  53.8566966 130.8467044 125.7983639  61.5521010 132.7969729
 125.3547493  60.7657388 132.4790633 126.4600852  61.7400160 132.1313619
 120.5570760  63.0816811 127.3230407 121.1078185  62.9533875 126.5507401
 119.7182236  63.3811701 126.9725300 127.8964877  61.8323810 130.8251130
 127.8783352  62.6532691 130.3331399 128.8184797  61.7077885 131.0501271
 124.3537931  59.3467939 131.6674638 124.8866268  58.5856227 131.4373946
 123.8252012  59.0541591 132.4098793 115.5893476  56.7761536 120.0156882
 116.4268698  57.1858544 119.7990590 115.7671744  55.8360978 119.9857076
 127.4857908  54.4436616 115.7040715 126.9704532  55.2141221 115.9429102
 127.2135217  53.7701753 116.3273776 125.0705019  49.2886317 120.7625953
 124.2146616  48.8993168 120.5831592 125.4831971  49.3678278 119.9025739
 126.6004166  46.8232660 125.1617513 126.0968962  46.7862796 124.3485318
 126.8934773  47.7325403 125.2214170 122.8447052  46.9071390 124.1683695
 123.7100049  46.7114199 123.8089584 122.9124561  46.6781742 125.0953052
 132.4592183  57.1968971 117.6393889 131.6821625  56.8580131 117.1949051
 133.1383664  57.2021594 116.9648854 127.2744212  52.3163708 117.5300496
 126.9694347  52.6309858 118.3810639 128.2274654  52.3945128 117.5727829
 125.7190643  58.4753932 119.1793450 125.1912005  57.7406691 118.8666688
 125.2178146  59.2528608 118.9333419 130.6983489  56.6702952 124.2960496
 130.0407164  57.3602214 124.3840625 131.5023889  57.0599384 124.6394483
 120.4509371  49.1373598 121.5400062 121.0253123  48.9148780 120.8073255
 121.0380353  49.2062293 122.2928663 129.5088948  55.0247325 122.3464438
 130.0220830  55.6577317 122.8486148 130.1590172  54.4248520 121.9807798
 120.7778958  51.1678059 115.5595947 119.9416270  51.5052746 115.8805222
 120.6383728  51.0327039 114.6223084 122.7532039  46.0114847 120.2675131
 122.0996451  45.6963864 119.6431746 122.7112513  45.3890587 120.9934954
 123.8643244  56.2934142 112.1828423 122.9570305  56.0623396 112.3819572
 124.3614276  55.4971761 112.3702405 126.7711323  65.0031649 115.1025109
 126.0973021  65.3063346 115.7110067 127.1577144  65.8060730 114.7530566
 125.9869779  52.4996781 124.5922779 125.0692341  52.7211728 124.4344467
 126.4029923  52.5743091 123.7334486 126.7704827  53.8988196 119.7225459
 127.5176646  54.4109593 119.4132581 127.0396416  53.5772249 120.5829853
 125.0431477  56.3946737 116.7052413 124.1342696  56.1105770 116.8024883
 125.0726561  56.8145815 115.8455720 130.2750744  60.0053326 120.4743581
 129.8213072  59.1644236 120.5308771 129.6444711  60.6414725 120.8118361
 129.2183664  50.9345312 121.7044248 128.4806421  50.4222699 122.0354491
 129.4710438  50.4945694 120.8927525 128.7183684  61.8429823 121.4093399
 129.0106658  62.4034880 120.6905765 129.2282304  62.1358384 122.1646558
 115.6119647  54.1152251 120.6867616 115.4144047  53.5221612 119.9618682
 115.0566311  53.8104461 121.4043554 123.5916371  54.0075358 122.8062209
 123.6464981  53.0549194 122.7304685 122.7807573  54.1634797 123.2903507
 124.7407565  57.9355481 114.0440492 124.3026995  57.2191340 113.5846129
 125.4818006  58.1631595 113.4825583 121.5308731  52.6252417 120.5652588
 120.7176597  52.9246588 120.9717780 122.0267725  52.2308106 121.2827070
 123.6817309  62.6210174 122.4986852 123.6393488  62.8471021 121.5695384
 124.5980008  62.3873549 122.6472653 132.8580680  56.2112678 120.1016810
 132.7198578  56.4014274 119.1738000 132.5016898  56.9732060 120.5584862
 121.0222806  50.1970773 126.1813822 121.6622185  50.0559532 125.4836786
 120.1900336  49.9105286 125.8052424 132.8850059  58.2789205 125.1128082
 133.3186566  58.1864494 125.9611136 133.5981640  58.2546705 124.4748098
 121.7983110  59.4973203 122.2948815 122.5923708  59.0023523 122.0931390
 121.0874802  58.9691066 121.9316521 126.6177954  61.8791299 126.6461183
 126.6714976  62.4482235 127.4138898 125.7492736  62.0493184 126.2815220
 118.1065873  53.6416285 118.3708568 117.1763461  53.5800740 118.5878530
 118.2023345  53.1192238 117.5745209 118.0251422  50.1671098 120.9586809
 118.2858240  51.0816431 120.8495970 118.8468595  49.6995540 121.1083422
 119.4976348  51.5808855 128.1285634 120.1699401  51.3726217 127.4798283
 118.6706134  51.3830941 127.6890866 125.5766054  56.0451561 128.2048114
 126.5058114  56.1962720 128.0317082 125.1557084  56.1335582 127.3496761
 124.3754386  60.0702225 125.9746652 124.2365471  59.7021010 126.8472590
 123.5868982  60.5849865 125.8030610 124.9702538  65.1711322 117.3172189
 125.1454293  64.6999365 118.1317811 124.2835326  65.7977088 117.5453449
 125.9259601  59.4483828 123.3635490 125.5909433  59.4084598 124.2593140
 125.4263547  58.7828544 122.8905900 119.9003845  54.8551458 128.8888071
 119.7623643  54.1231697 129.4899610 120.8108768  54.7660358 128.6072259
 128.8618792  56.7939862 113.6372549 128.2447963  56.0686690 113.5405602
 128.3935281  57.5549223 113.2939624 122.5286145  54.5671417 128.3771751
 123.2385764  53.9264609 128.3358369 122.4855454  54.8184312 129.2997931
 130.5172924  61.5038771 131.2978330 130.4585470  60.8197991 130.6308913
 130.9192443  62.2457761 130.8458956 121.2415079  51.5536635 130.1967390
 120.7052436  51.1027374 130.8488986 120.6531788  51.6882544 129.4537854
 119.5363623  68.3200684 124.0912049 119.7760221  68.9519209 124.7691067
 118.6932819  67.9688724 124.3777408 120.6517338  51.0125287 112.7593854
 119.7746805  50.8914087 112.3956100 121.1275091  50.2211365 112.5072742
 112.1719479  55.8002446 122.8535361 112.8590518  55.4864176 122.2656376
 112.0167607  56.7043811 122.5802612 116.9754201  50.6892643 127.2820385
 116.8912389  50.0818312 126.5470795 116.1536907  51.1801661 127.2829881
 124.0491485  64.1279807 126.4953553 123.9761656  64.9334778 127.0072857
 123.6068878  64.3271773 125.6701574 123.8381264  63.3651577 120.0056374
 123.0548786  63.9073257 120.0994599 124.5374010  63.8825557 120.4050615
 127.1477915  49.1746206 122.6490580 127.6446614  48.4216169 122.3291650
 126.3764896  49.2110523 122.0833789 126.5090168  64.0266641 128.6511711
 127.2218141  64.6614106 128.5787613 126.0180197  64.1230507 127.8351713
 128.2307695  57.9317894 120.2229003 127.2963974  58.0519356 120.0533707
 128.4084364  57.0290360 119.9589013 123.7312883  51.3163589 122.3762264
 123.3610671  50.7634630 123.0643170 124.2271976  50.7121723 121.8237264
 131.6180247  53.7735213 120.7579037 132.0840699  54.6063204 120.6839340
 132.0687747  53.3080194 121.4624296 121.5602082  61.7761084 129.4717282
 122.2611541  62.4097567 129.6246676 121.0897197  62.1175816 128.7112921
 129.6856478  60.1179034 117.7565189 129.9616322  60.0035629 118.6659063
 128.8160976  59.7196519 117.7177362 129.3603368  54.3305692 127.2969833
 128.7074818  54.5781599 126.6422285 129.7383748  53.5169830 126.9632310
 126.3210542  64.3665385 121.3998003 126.5032936  63.5487041 121.8625755
 127.1443528  64.5833077 120.9622893 126.6552707  63.2933570 118.6613051
 127.1840474  62.7826025 118.0483213 126.9180927  62.9776100 119.5258584
 117.1569800  61.3097439 126.4048385 117.7423237  60.5641127 126.5376289
 116.9594638  61.6201396 127.2885049 120.0108455  64.3448687 121.4210827
 119.3418830  64.8294814 120.9374867 119.8721325  64.5917907 122.3354206
 111.7487455  53.8803040 125.1252828 111.7871554  53.3466630 125.9189946
 111.2427747  53.3538245 124.5063805 124.1513724  66.3792430 128.0193486
 124.7032032  66.5424052 128.7842571 124.4919917  66.9696868 127.3473510
 119.1278217  48.7267580 128.6215370 119.1919543  49.5882411 128.2092768
 119.0645337  48.1141582 127.8887729 118.6030489  50.7990713 132.2688405
 119.2302528  50.4167790 132.8825929 117.7458408  50.5804915 132.6344097
 115.3796032  52.6067142 118.2006759 115.6749473  51.6977820 118.1473813
 114.4784068  52.5854881 117.8787762 127.2882111  64.3274406 125.0057168
 127.1633250  63.5264146 124.4968113 127.9461202  64.8220599 124.5171138
 118.9090279  50.6823138 124.1834308 118.1876865  51.2959106 124.0441781
 119.6983535  51.2180903 124.1050954 129.3517019  62.1283426 126.6336718
 128.4047355  62.0088777 126.5615045 129.6999792  61.2405924 126.7162979
 117.1083874  50.2881239 118.3246085 116.7796580  49.4078618 118.1421190
 117.4623245  50.2328908 119.2122474 126.3563453  61.9236142 122.8341070
 126.2088415  60.9952850 123.0148640 127.1816946  61.9456233 122.3498145
 120.2225697  50.5754209 118.6921562 120.5621769  51.1040130 117.9700171
 120.6697817  50.9134615 119.4680129 129.9597575  62.7464701 123.9205943
 130.8844122  62.5407562 123.7830394 129.7912878  62.4981102 124.8295284
 122.9169138  48.9591260 128.1424630 122.5765958  48.1599073 128.5445310
 122.2108144  49.2592971 127.5701463 123.5685610  46.0440572 126.5951953
 124.3911679  45.5701051 126.4730844 123.8123673  46.8231056 127.0950640
 122.2093844  49.0728831 116.8914855 122.9302207  49.4510084 116.3878572
 121.5859148  49.7917708 116.9949833 126.3524967  49.7773980 117.8273187
 126.5688581  50.6598618 117.5262015 125.8719034  49.3860193 117.0978829
 121.0924188  52.7359693 124.4043932 120.9468769  53.0499996 125.2968213
 120.6149392  53.3544593 123.8514831 122.9520571  49.7262241 124.4524821
 122.9382140  48.8303334 124.1157119 123.6692999  49.7332905 125.0863108
 124.8046702  50.1599581 126.4977949 124.5464480  51.0816652 126.4962279
 124.2731742  49.7630016 127.1878413 129.7492891  63.2650368 119.2768034
 129.9229768  62.6996791 118.5241887 130.2421782  64.0651263 119.0947524
 115.5669851  55.2765037 127.3431593 115.0223319  56.0524845 127.4751867
 116.4449200  55.6235842 127.1850715 122.3557467  48.6076621 119.7212392
 122.4773378  47.6793267 119.9203279 122.0659510  48.6215307 118.8090707
 125.2248658  46.2931532 122.8579111 125.2470354  46.3570865 121.9031091
 125.6416717  45.4536040 123.0519618 135.6032282  56.0286791 120.8958334
 136.0463428  55.2794116 120.4977457 134.7258792  56.0196928 120.5132066
 130.7368063  62.5817133 116.3764933 131.4318968  63.2023825 116.5952247
 131.0791213  61.7312484 116.6517310 116.3535872  54.4034934 130.2361750
 115.6117608  54.5517569 130.8226380 116.0328617  54.6643199 129.3728499
 132.6359486  60.0316838 117.9052263 133.1610810  60.3704111 117.1801583
 132.5481839  59.0963854 117.7215398 124.2979535  63.9450912 130.0342140
 124.6066661  63.7000059 130.9064840 125.0955017  64.1497550 129.5461010
 124.3200147  66.0988822 122.2647517 123.8805137  65.6065200 122.9580373
 125.0708264  65.5561789 122.0239592 116.7992486  62.2900362 122.2672145
 117.6250506  61.9904134 121.8870788 116.4486538  61.5207985 122.7161933
 121.7674019  61.6426831 124.3369818 121.1454029  60.9797536 124.0372046
 122.4378886  61.6687963 123.6543466 115.0001091  60.2086689 123.2261078
 114.1632999  59.7808863 123.0445079 114.9724737  60.4019132 124.1631869
 121.3287526  60.1930754 117.8128279 121.4775647  60.8766218 117.1594951
 122.1353970  60.1735844 118.3277734 135.1465147  57.4992030 123.2880782
 135.9812038  57.9381834 123.4518342 135.2824275  57.0230683 122.4689027
 119.0840159  56.2195932 118.8189348 118.8386201  55.3158262 119.0169558
 119.2536074  56.2213082 117.8768826 118.3535807  51.9524289 116.3175509
 117.6605052  52.0268644 115.6615545 118.1087559  51.1884633 116.8397026
 124.8282932  62.6878884 115.2840026 124.2556899  63.3069072 114.8310498
 125.4015725  63.2378246 115.8179948 128.0480191  62.9716035 116.4148608
 128.9810865  62.9061596 116.6181484 127.9603404  63.8072301 115.9563141
 130.6768208  62.2881905 113.3752556 130.5981840  61.9541769 114.2688314
 131.4977875  62.7803673 113.3744028 125.2129730  54.0239697 112.6256079
 126.1588835  53.8945905 112.6944497 124.8343975  53.2854359 113.1025507
 123.3972647  51.9489674 112.5610964 122.4904103  51.6522786 112.6373677
 123.6748628  51.6519492 111.6945250 114.3150588  53.2696037 123.0110010
 113.9953372  52.4161345 122.7184384 113.7684016  53.4844615 123.7667978
 118.0930495  55.9858478 126.7279517 118.3116505  56.9175586 126.7467551
 118.5056269  55.6266452 127.5134321 125.0134713  46.4926563 118.7155205
 124.2035441  46.1473648 119.0910451 125.7019130  46.1834107 119.3042817
 126.9425261  45.5704610 120.3379502 127.4956300  45.9900064 120.9969525
 127.1795348  44.6440358 120.3802458 122.1671432  48.8076609 112.7022943
 123.0290596  49.1331507 112.9618760 122.3521776  48.0208105 112.1896009
 114.1838848  56.8898948 124.9803132 113.4902319  56.4752901 124.4673086
 114.9311839  56.9319485 124.3836551 130.3204068  47.6805135 119.8458166
 129.7402737  48.3389939 119.4636218 130.0540001  46.8582480 119.4345584
 128.7707635  47.0810193 122.0479486 129.2707413  47.1926727 121.2393805
 129.4143243  46.7771246 122.6880295 116.0975590  56.8217202 122.8569147
 116.0746278  56.9204890 121.9051030 116.4076227  57.6682353 123.1786313
 118.7562968  58.8793357 126.9715761 119.7106222  58.8477300 126.9045693
 118.5575492  58.4183981 127.7865987 119.3462350  57.4494473 129.5386559
 120.1655239  57.9438552 129.5621396 119.6199158  56.5326441 129.5104126
 129.1028946  49.8405226 118.9014514 128.2154801  50.1254876 118.6834709
 129.5182936  49.6798989 118.0541791 117.1113197  64.4212977 123.9885959
 116.9767665  63.6613378 123.4223957 116.6945259  65.1453877 123.5214748
 128.2472160  59.6049900 112.9962534 128.9508010  59.8099903 113.6120190
 127.5234809  60.1726662 113.2611618 129.0769970  55.3559762 119.1164804
 129.0205172  55.8128313 118.2772437 129.6298313  54.5950446 118.9387647
 132.8874776  51.1449493 119.9414924 132.6311710  50.7446129 120.7723132
 132.2627644  51.8593287 119.8165063 120.2682323  65.3182294 124.2004402
 120.1514707  66.2627726 124.0983092 119.4474769  65.0155855 124.5890201
 130.1558857  60.0432430 115.0460994 130.9904461  59.6113628 114.8638469
 129.9943200  59.8714443 115.9737889 129.8104750  56.5464543 116.4117334
 129.7553553  56.3808814 115.4705778 129.1850805  57.2540576 116.5679523
 114.5997264  51.7832607 130.2378756 115.2456128  51.2731561 130.7265981
 114.3914416  52.5201289 130.8122181 123.1200875  46.0472652 115.9902652
 123.1079545  46.9914492 116.1470923 124.0124297  45.8642797 115.6962113
 121.2936837  65.9710556 127.4160330 122.1964084  66.0034166 127.7326825
 121.0674207  65.0411007 127.4306666 123.0490439  64.7241542 124.0770409
 122.0986070  64.7243404 123.9634781 123.3522925  63.9774277 123.5606443
 126.9352994  42.6415428 120.2448589 126.1685390  42.0873915 120.3905271
 127.3463699  42.7137297 121.1062740 138.7843132  70.5602081 125.1416171
 139.4221542  70.4408828 124.4379511 138.6663975  71.5082925 125.2004123
 135.5932839  70.5129509 125.0777696 135.2551350  70.3970573 124.1898231
 136.4622607  70.1120674 125.0578702 131.4519654  72.3664985 121.0674587
 130.8884520  72.2754922 120.2990875 131.3372049  71.5464890 121.5477079
 128.9984086  73.8616177 123.9058807 129.7905378  73.5207001 123.4905107
 129.2380736  73.9711152 124.8260961 137.0319213  76.0335953 116.3789052
 136.3807193  76.6190033 115.9923065 137.8263576  76.5642148 116.4384089
 130.9574840  73.1225090 116.7776186 131.7305716  72.5754077 116.6389062
 131.3100239  73.9869339 116.9890647 133.7216090  71.8278321 126.5744445
 134.3179662  71.6034343 125.8601408 133.7791061  71.0863066 127.1769893
 133.2941118  69.2817756 114.4094636 133.5466639  68.7599277 113.6478099
 132.3565677  69.1183902 114.5121320 138.3384401  68.2853534 122.2169379
 139.1247490  67.8672958 121.8659796 138.6023105  69.1899627 122.3851028
 138.5094478  73.7226385 116.9158036 137.8740311  73.7961011 117.6278941
 138.1791885  74.3119984 116.2377115 133.0137407  71.1845862 116.6119011
 132.8973665  70.5090765 117.2800095 133.1239667  70.6978236 115.7951164
 135.3568948  70.6456009 120.3165700 134.9927155  70.1186630 121.0278622
 136.2136064  70.2554478 120.1432186 134.9974435  65.6745909 115.3127049
 135.1648837  66.5426145 115.6797520 134.8071604  65.8373191 114.3888338
 131.2062249  70.5876685 123.0129583 130.2812746  70.4552899 123.2207275
 131.4546663  71.3670904 123.5099526 141.1546912  66.6545428 124.6590316
 140.2463789  66.5860836 124.3649077 141.1034507  67.1317373 125.4872142
 134.9763656  68.1303566 116.2973715 134.8563281  68.5760617 117.1359196
 134.2816244  68.4788884 115.7387254 128.5671060  70.2309958 123.8473373
 128.6963442  70.4844437 124.7612784 127.8868512  70.8237666 123.5278028
 132.7370548  80.9007208 119.9463847 132.6594577  81.8515033 120.0252327
 132.1332191  80.5553081 120.6038773 135.3120559  67.9622274 128.1348899
 136.1581755  68.3861688 128.2783548 135.2519197  67.3055898 128.8287462
 139.2818304  73.5850858 124.5167631 138.6527167  73.7496572 123.8143699
 138.8943966  73.9992468 125.2878595 138.0184697  64.7783076 125.3743910
 137.1569176  65.0764329 125.6660648 138.0447131  64.9953474 124.4424943
 134.8346266  73.3225266 121.7817716 135.2984611  73.6012969 120.9922339
 134.5703064  72.4208711 121.5990807 131.7270347  72.8696748 124.7197479
 132.2971704  73.2984016 124.0814964 132.3178459  72.5879332 125.4181665
 133.7715152  69.4448418 118.5907281 134.4739195  69.8969462 119.0581208
 133.4395781  68.8032237 119.2187174 127.5140486  67.7031971 123.8924415
 126.7239540  67.9589500 123.4164525 128.0051733  68.5180309 123.9976455
 129.4655231  68.0676550 120.8507891 128.6686395  68.1795245 121.3691387
 129.2380824  68.4063203 119.9848782 125.7978189  67.9562462 126.3239406
 126.0486227  68.8409471 126.5896982 126.3337737  67.7767063 125.5514497
 135.0108917  76.2589361 118.6669386 134.8754591  77.1040897 119.0954234
 135.5518729  76.4608639 117.9035320 128.4638314  73.7764799 119.2397312
 128.9762835  74.5708049 119.3902876 129.1161027  73.0791090 119.1730913
 130.2733199  76.8930555 121.3220065 130.4499827  77.8148520 121.1341049
 131.0690032  76.5788975 121.7514444 129.5585555  68.9395187 131.1982228
 129.4439070  68.0380445 131.4989327 128.7030073  69.1858884 130.8467044
 131.3964514  78.4108729 127.3230407 131.9471939  78.2825793 126.5507401
 130.5575990  78.7103618 126.9725300 126.4287231  72.1053453 120.0156882
 127.2662453  72.5150462 119.7990590 126.6065499  71.1652896 119.9857076
 138.3251663  69.7728534 115.7040715 137.8098286  70.5433139 115.9429102
 138.0528971  69.0993670 116.3273776 135.9098774  64.6178235 120.7625953
 135.0540370  64.2285085 120.5831592 136.3225726  64.6970196 119.9025739
 137.4397921  62.1524578 125.1617513 136.9362716  62.1154713 124.3485318
 137.7328527  63.0617321 125.2214170 133.6840806  62.2363308 124.1683695
 134.5493803  62.0406117 123.8089584 133.7518315  62.0073660 125.0953052
 138.1137966  67.6455626 117.5300496 137.8088102  67.9601775 118.3810639
 139.0668408  67.7237046 117.5727829 136.5584398  73.8045849 119.1793450
 136.0305760  73.0698609 118.8666688 136.0571901  74.5820526 118.9333419
 131.2903126  64.4665516 121.5400062 131.8646877  64.2440697 120.8073255
 131.8774108  64.5354210 122.2928663 140.3482703  70.3539243 122.3464438
 140.8614585  70.9869234 122.8486148 140.9983927  69.7540438 121.9807798
 131.6172713  66.4969977 115.5595947 130.7810025  66.8344663 115.8805222
 131.4777482  66.3618957 114.6223084 133.5925793  61.3406765 120.2675131
 132.9390206  61.0255782 119.6431746 133.5506267  60.7182505 120.9934954
 134.7036998  71.6226060 112.1828423 133.7964060  71.3915313 112.3819572
 135.2008030  70.8263679 112.3702405 137.6105077  80.3323567 115.1025109
 136.9366776  80.6355264 115.7110067 137.9970899  81.1352647 114.7530566
 136.8263534  67.8288698 124.5922779 135.9086095  68.0503645 124.4344467
 137.2423677  67.9035009 123.7334486 137.6098581  69.2280114 119.7225459
 138.3570400  69.7401511 119.4132581 137.8790171  68.9064167 120.5829853
 135.8825232  71.7238655 116.7052413 134.9736451  71.4397687 116.8024883
 135.9120315  72.1437733 115.8455720 141.1144499  75.3345244 120.4743581
 140.6606826  74.4936154 120.5308771 140.4838466  75.9706642 120.8118361
 140.0577419  66.2637230 121.7044248 139.3200175  65.7514616 122.0354491
 140.3104192  65.8237612 120.8927525 139.5577438  77.1721741 121.4093399
 139.8500413  77.7326798 120.6905765 140.0676059  77.4650302 122.1646558
 126.4513402  69.4444169 120.6867616 126.2537802  68.8513529 119.9618682
 125.8960066  69.1396379 121.4043554 134.4310126  69.3367275 122.8062209
 134.4858735  68.3841112 122.7304685 133.6201328  69.4926714 123.2903507
 135.5801319  73.2647398 114.0440492 135.1420749  72.5483257 113.5846129
 136.3211760  73.4923513 113.4825583 132.3702486  67.9544335 120.5652588
 131.5570351  68.2538506 120.9717780 132.8661480  67.5600024 121.2827070
 134.5211063  77.9502092 122.4986852 134.4787242  78.1762938 121.5695384
 135.4373762  77.7165466 122.6472653 131.8616560  65.5262690 126.1813822
 132.5015940  65.3851450 125.4836786 131.0294091  65.2397204 125.8052424
 132.6376864  74.8265121 122.2948815 133.4317463  74.3315441 122.0931390
 131.9268557  74.2982984 121.9316521 128.9459628  68.9708203 118.3708568
 128.0157216  68.9092658 118.5878530 129.0417100  68.4484155 117.5745209
 128.8645177  65.4963015 120.9586809 129.1251994  66.4108349 120.8495970
 129.6862349  65.0287458 121.1083422 130.3370102  66.9100773 128.1285634
 131.0093155  66.7018135 127.4798283 129.5099889  66.7122859 127.6890866
 136.4159808  71.3743478 128.2048114 137.3451868  71.5254638 128.0317082
 135.9950838  71.4627499 127.3496761 135.2148140  75.3994143 125.9746652
 135.0759226  75.0312927 126.8472590 134.4262736  75.9141782 125.8030610
 135.8096292  80.5003239 117.3172189 135.9848048  80.0291283 118.1317811
 135.1229080  81.1269006 117.5453449 136.7653355  74.7775746 123.3635490
 136.4303188  74.7376516 124.2593140 136.2657301  74.1120461 122.8905900
 130.7397599  70.1843376 128.8888071 130.6017397  69.4523614 129.4899610
 131.6502523  70.0952276 128.6072259 139.7012547  72.1231780 113.6372549
 139.0841718  71.3978608 113.5405602 139.2329035  72.8841140 113.2939624
 133.3679900  69.8963335 128.3771751 134.0779518  69.2556527 128.3358369
 133.3249208  70.1476230 129.2997931 132.0808834  66.8828553 130.1967390
 131.5446191  66.4319291 130.8488986 131.4925542  67.0174462 129.4537854
 131.4911093  66.3417204 112.7593854 130.6140559  66.2206005 112.3956100
 131.9668846  65.5503283 112.5072742 123.0113233  71.1294364 122.8535361
 123.6984273  70.8156094 122.2656376 122.8561362  72.0335729 122.5802612
 127.8147955  66.0184561 127.2820385 127.7306144  65.4110230 126.5470795
 126.9930662  66.5093579 127.2829881 134.6775019  78.6943495 120.0056374
 133.8942541  79.2365175 120.0994599 135.3767764  79.2117474 120.4050615
 137.9871669  64.5038124 122.6490580 138.4840369  63.7508086 122.3291650
 137.2158651  64.5402441 122.0833789 139.0701450  73.2609811 120.2229003
 138.1357728  73.3811274 120.0533707 139.2478118  72.3582278 119.9589013
 134.5706638  66.6455507 122.3762264 134.2004425  66.0926547 123.0643170
 135.0665730  66.0413641 121.8237264 140.5250232  75.4470952 117.7565189
 140.8010076  75.3327546 118.6659063 139.6554731  75.0488437 117.7177362
 140.1997122  69.6597609 127.2969833 139.5468573  69.9073517 126.6422285
 140.5777502  68.8461748 126.9632310 137.1604296  79.6957303 121.3998003
 137.3426691  78.8778959 121.8625755 137.9837282  79.9124995 120.9622893
 137.4946462  78.6225488 118.6613051 138.0234228  78.1117942 118.0483213
 137.7574681  78.3068018 119.5258584 127.9963554  76.6389357 126.4048385
 128.5816991  75.8933045 126.5376289 127.7988393  76.9493314 127.2885049
 130.8502210  79.6740604 121.4210827 130.1812585  80.1586732 120.9374867
 130.7115079  79.9209825 122.3354206 122.5881209  69.2094957 125.1252828
 122.6265309  68.6758548 125.9189946 122.0821502  68.6830163 124.5063805
 129.9671971  64.0559498 128.6215370 130.0313298  64.9174329 128.2092768
 129.9039092  63.4433499 127.8887729 129.4424244  66.1282630 132.2688405
 130.0696283  65.7459708 132.8825929 128.5852163  65.9096832 132.6344097
 126.2189787  67.9359059 118.2006759 126.5143228  67.0269738 118.1473813
 125.3177822  67.9146799 117.8787762 129.7484034  66.0115056 124.1834308
 129.0270619  66.6251024 124.0441781 130.5377289  66.5472821 124.1050954
 127.9477628  65.6173157 118.3246085 127.6190334  64.7370536 118.1421190
 128.3016999  65.5620826 119.2122474 137.1957207  77.2528060 122.8341070
 137.0482170  76.3244767 123.0148640 138.0210701  77.2748151 122.3498145
 131.0619451  65.9046127 118.6921562 131.4015524  66.4332048 117.9700171
 131.5091572  66.2426533 119.4680129 133.7562892  64.2883178 128.1424630
 133.4159713  63.4890991 128.5445310 133.0501899  64.5884888 127.5701463
 134.4079364  61.3732490 126.5951953 135.2305433  60.8992968 126.4730844
 134.6517428  62.1522974 127.0950640 133.0487599  64.4020749 116.8914855
 133.7695961  64.7802001 116.3878572 132.4252903  65.1209625 116.9949833
 137.1918721  65.1065897 117.8273187 137.4082336  65.9890535 117.5262015
 136.7112789  64.7152111 117.0978829 131.9317943  68.0651611 124.4043932
 131.7862524  68.3791914 125.2968213 131.4543146  68.6836511 123.8514831
 133.7914326  65.0554159 124.4524821 133.7775895  64.1595252 124.1157119
 134.5086754  65.0624822 125.0863108 135.6440456  65.4891499 126.4977949
 135.3858234  66.4108570 126.4962279 135.1125497  65.0921933 127.1878413
 140.5886645  78.5942286 119.2768034 140.7623523  78.0288708 118.5241887
 141.0815536  79.3943181 119.0947524 126.4063605  70.6056955 127.3431593
 125.8617073  71.3816763 127.4751867 127.2842955  70.9527760 127.1850715
 133.1951222  63.9368539 119.7212392 133.3167133  63.0085185 119.9203279
 132.9053264  63.9507225 118.8090707 136.0642412  61.6223449 122.8579111
 136.0864109  61.6862782 121.9031091 136.4810471  60.7827958 123.0519618
 127.1929627  69.7326851 130.2361750 126.4511363  69.8809487 130.8226380
 126.8722371  69.9935117 129.3728499 135.1593902  81.4280739 122.2647517
 134.7198892  80.9357118 122.9580373 135.9102019  80.8853707 122.0239592
 127.6386241  77.6192280 122.2672145 128.4644260  77.3196052 121.8870788
 127.2880293  76.8499903 122.7161933 132.6067774  76.9718748 124.3369818
 131.9847783  76.3089453 124.0372046 133.2772641  76.9979880 123.6543466
 125.8394846  75.5378607 123.2261078 125.0026754  75.1100781 123.0445079
 125.8118491  75.7311050 124.1631869 132.1681281  75.5222672 117.8128279
 132.3169401  76.2058136 117.1594951 132.9747724  75.5027762 118.3277734
 129.9233914  71.5487849 118.8189348 129.6779956  70.6450179 119.0169558
 130.0929828  71.5505000 117.8768826 129.1929561  67.2816207 116.3175509
 128.4998806  67.3560562 115.6615545 128.9481313  66.5176551 116.8397026
 135.6676686  78.0170802 115.2840026 135.0950653  78.6360989 114.8310498
 136.2409480  78.5670164 115.8179948 138.8873946  78.3007952 116.4148608
 139.8204619  78.2353514 116.6181484 138.7997159  79.1364219 115.9563141
 136.0523485  69.3531615 112.6256079 136.9982589  69.2237823 112.6944497
 135.6737730  68.6146277 113.1025507 134.2366402  67.2781591 112.5610964
 133.3297857  66.9814704 112.6373677 134.5142383  66.9811409 111.6945250
 125.1544342  68.5987955 123.0110010 124.8347127  67.7453263 122.7184384
 124.6077770  68.8136533 123.7667978 128.9324250  71.3150396 126.7279517
 129.1510260  72.2467503 126.7467551 129.3450024  70.9558370 127.5134321
 135.8528468  61.8218481 118.7155205 135.0429196  61.4765566 119.0910451
 136.5412884  61.5126025 119.3042817 137.7819016  60.8996528 120.3379502
 138.3350054  61.3191981 120.9969525 138.0189102  59.9732276 120.3802458
 133.0065186  64.1368526 112.7022943 133.8684350  64.4623425 112.9618760
 133.1915531  63.3500022 112.1896009 125.0232602  72.2190866 124.9803132
 124.3296074  71.8044819 124.4673086 125.7705593  72.2611403 124.3836551
 139.6101389  62.4102111 122.0479486 140.1101168  62.5218645 121.2393805
 140.2536997  62.1063163 122.6880295 126.9369345  72.1509120 122.8569147
 126.9140033  72.2496807 121.9051030 127.2469981  72.9974271 123.1786313
 129.5956723  74.2085275 126.9715761 130.5499976  74.1769217 126.9045693
 129.3969246  73.7475899 127.7865987 130.1856105  72.7786391 129.5386559
 131.0048994  73.2730470 129.5621396 130.4592912  71.8618359 129.5104126
 139.9422701  65.1697143 118.9014514 139.0548556  65.4546794 118.6834709
 140.3576690  65.0090907 118.0541791 127.9506951  79.7504894 123.9885959
 127.8161419  78.9905295 123.4223957 127.5339014  80.4745794 123.5214748
 139.0865914  74.9341818 112.9962534 139.7901765  75.1391820 113.6120190
 138.3628563  75.5018580 113.2611618 139.9163725  70.6851679 119.1164804
 139.8598926  71.1420231 118.2772437 140.4692067  69.9242364 118.9387647
 131.1076077  80.6474211 124.2004402 130.9908461  81.5919644 124.0983092
 130.2868524  80.3447773 124.5890201 140.6498504  71.8756460 116.4117334
 140.5947308  71.7100732 115.4705778 140.0244559  72.5832493 116.5679523
 125.4391019  67.1124525 130.2378756 126.0849883  66.6023479 130.7265981
 125.2308170  67.8493207 130.8122181 133.9594629  61.3764569 115.9902652
 133.9473299  62.3206409 116.1470923 134.8518051  61.1934715 115.6962113
 133.8884193  80.0533460 124.0770409 132.9379824  80.0535322 123.9634781
 134.1916680  79.3066194 123.5606443 137.7746749  57.9707346 120.2448589
 137.0079145  57.4165833 120.3905271 138.1857454  58.0429215 121.1062740
 140.3048986  83.3968468 120.8507891 139.5080149  83.5087162 121.3691387
 140.0774578  83.7355120 119.9848782 137.2907156  84.7736086 120.6867616
 137.0931556  84.1805447 119.9618682 136.7353820  84.4688297 121.4043554
 139.7853382  84.3000120 118.3708568 138.8550970  84.2384576 118.5878530
 139.8810854  83.7776073 117.5745209 139.7038931  80.8254933 120.9586809
 139.9645748  81.7400266 120.8495970 140.5256104  80.3579376 121.1083422
 137.0583541  83.2650977 118.2006759 137.3536982  82.3561656 118.1473813
 136.1571577  83.2438717 117.8787762 138.7871383  80.9465075 118.3246085
 138.4584089  80.0662454 118.1421190 139.1410753  80.8912743 119.2122474
 140.7627668  86.8779767 118.8189348 140.5173710  85.9742097 119.0169558
 140.9323583  86.8796917 117.8768826 140.0323316  82.6108125 116.3175509
 139.3392561  82.6852480 115.6615545 139.7875068  81.8468468 116.8397026
 100.2189286  11.9193578 106.6709153 100.1413315  12.8701403 106.7497634
  99.6150929  11.5739450 107.3284080 102.4927654   7.2775731 105.3914693
 102.3573329   8.1227266 105.8199541 103.0337467   7.4795008 104.6280627
  97.7551937   7.9116925 108.0465371  97.9318565   8.8334890 107.8586355
  98.5508770   7.5975344 108.4759751  98.8783252   9.4295099 114.0475714
  99.4290677   9.3012162 113.2752708  98.0394728   9.7289988 113.6970606
 105.0923815  11.3509936 101.8270416 104.4185514  11.6541633 102.4355374
 105.4789637  12.1539017 101.4775873 102.0029801   8.9688461 109.2232159
 101.9605980   9.1949308 108.2940691 102.9192500   8.7351836 109.3717960
 104.9390446   8.2269586 113.3706489 104.9927469   8.7960522 114.1384205
 104.0705228   8.3971471 113.0060526 103.2915030  11.5189609 104.0417495
 103.4666786  11.0477652 104.8563118 102.6047818  12.1455375 104.2698756
  97.8576115  14.6678972 110.8157355  98.0972713  15.2997496 111.4936374
  97.0145312  14.3167012 111.1022715 102.3703977  10.4758094 113.2198859
 102.2974149  11.2813066 113.7318164 101.9281370  10.6750060 112.3946881
 102.1593757   9.7129864 106.7301681 101.3761279  10.2551544 106.8239905
 102.8586502  10.2303844 107.1295922 104.8302661  10.3744928 115.3757018
 105.5430633  11.0092393 115.3032919 104.3392689  10.4708794 114.5597020
  99.8814574   8.1239372 116.1962589 100.5824034   8.7575855 116.3491983
  99.4109689   8.4654103 115.4358228 104.6423034  10.7143672 108.1243309
 104.8245429   9.8965328 108.5871062 105.4656020  10.9311364 107.6868199
 104.9765199   9.6411857 105.3858358 105.5052966   9.1304312 104.7728520
 105.2393419   9.3254388 106.2503891  95.4782292   7.6575727 113.1293692
  96.0635729   6.9119415 113.2621596  95.2807131   7.9679683 114.0130355
  98.3320947  10.6926974 108.1456134  97.6631323  11.1773102 107.6620174
  98.1933817  10.9396194 109.0599512 102.4726216  12.7270718 114.7438792
 103.0244524  12.8902339 115.5087877 102.8132409  13.3175155 114.0718817
 105.6094603  10.6752693 111.7302474 105.4845743   9.8742433 111.2213420
 106.2673694  11.1698886 111.2416444 102.6192027  10.2929199 116.7587447
 102.9279154  10.0478346 117.6310146 103.4167509  10.4975838 116.2706317
 102.6412639  12.4467109 108.9892823 102.2017630  11.9543487 109.6825680
 103.3920756  11.9040076 108.7484898  95.1204978   8.6378650 108.9917451
  95.9462998   8.3382422 108.6116095  94.7699030   7.8686272 109.4407240
 100.0886512   7.9905118 111.0615125  99.4666521   7.3275823 110.7617353
 100.7591378   8.0166250 110.3788773  93.3213583   6.5564976 109.9506385
  92.4845492   6.1287150 109.7690386  93.2937229   6.7497419 110.8877176
 103.1495424   9.0357172 102.0085333 102.5769391   9.6547359 101.5555805
 103.7228218   9.5856533 102.5425255 106.3692684   9.3194322 103.1393915
 107.3023357   9.2539883 103.3426791 106.2815897  10.1550589 102.6808448
  95.4325689  10.7691264 110.7131266  95.2980157  10.0091665 110.1469264
  95.0157751  11.4932164 110.2460055  98.5894815  11.6660581 110.9249708
  98.4727199  12.6106014 110.8228399  97.7687261  11.3634143 111.3135508
  99.6149329  12.3188843 114.1405637 100.5176576  12.3512453 114.4572132
  99.3886699  11.3889294 114.1551973 101.3702931  11.0719829 110.8015715
 100.4198562  11.0721691 110.6880088 101.6735417  10.3252564 110.2851750
 117.1055625  16.9080368 111.8661478 117.7434035  16.7887115 111.1624818
 116.9876468  17.8561212 111.9249430 113.9145331  16.8607796 111.8023002
 113.5763842  16.7448861 110.9143537 114.7835099  16.4598961 111.7824009
 109.7732147  18.7143272 107.7919893 109.2097012  18.6233209 107.0236181
 109.6584542  17.8943177 108.2722386 114.3965114  18.0142648 117.7609208
 114.3853755  17.6195446 116.8889712 114.5585753  17.2808720 118.3542979
 107.3196579  20.2094464 110.6304114 108.1117871  19.8685289 110.2150413
 107.5593229  20.3189439 111.5506267 115.3531705  22.3814240 103.1034358
 114.7019685  22.9668320 102.7168372 116.1476068  22.9120435 103.1629396
 109.2787333  19.4703377 103.5021493 110.0518209  18.9232364 103.3634368
 109.6312731  20.3347627 103.7135954 111.1172375  20.7979759 116.7088392
 110.8262241  21.7025390 116.5935058 111.7529359  20.8396287 117.4232462
 112.0428582  18.1756608 113.2989752 112.6392154  17.9512630 112.5846715
 112.1003553  17.4341353 113.9015199 111.6153610  15.6296043 101.1339943
 111.8679131  15.1077565 100.3723406 110.6778169  15.4662189 101.2366626
 116.6596893  14.6331822 108.9414686 117.4459982  14.2151245 108.5905103
 116.9235598  15.5377914 109.1096334 116.8306971  20.0704672 103.6403343
 116.1952804  20.1439299 104.3524247 116.5004377  20.6598271 102.9622422
 111.3349899  17.5324149 103.3364318 111.2186157  16.8569053 104.0045402
 111.4452159  17.0456523 102.5196471 113.6781440  16.9934296 107.0411007
 113.3139647  16.4664917 107.7523928 114.5348556  16.6032765 106.8677492
 113.3186927  12.0224196 102.0372355 113.4861329  12.8904433 102.4042826
 113.1284096  12.1851478 101.1133645 116.0762260  20.4841175 113.7038186
 115.7762983  21.3866214 113.5953993 115.7313320  20.2173358 114.5559339
 109.5274742  16.9354972 109.7374890 108.6025238  16.8031186 109.9452582
 109.7759155  17.7149191 110.2344832 113.2976148  14.4781854 103.0219022
 113.1775773  14.9238904 103.8604502 112.6028736  14.8267171 102.4632560
 106.8883553  16.5788245 110.5718679 107.0175934  16.8322724 111.4858091
 106.2081004  17.1715953 110.2523334 111.0583040  27.2485495 106.6709153
 110.9807070  28.1993320 106.7497634 110.4544684  26.9031368 107.3284080
 118.9961214  14.9503327 103.8499356 119.9079070  15.1830714 103.6747054
 118.4870861  15.5340371 103.2874435 111.8046642  17.2298814 118.8888487
 112.5461326  17.7683858 118.6123311 111.0983628  17.8565103 119.0460039
 117.2801982  19.3727955 117.4860649 117.6885338  18.9310365 116.7415281
 116.5579243  18.7980582 117.7394842 113.6333052  14.3100561 114.8594206
 114.4794247  14.7339975 115.0028855 113.5731689  13.6534186 115.5532769
 117.6030796  19.9329145 111.2412938 116.9739659  20.0974859 110.5389005
 117.2156458  20.3470755 112.0123902 121.4820028  20.8683583 108.5957301
 120.7971066  21.2482484 108.0454335 121.5663878  21.4778910 109.3289249
 118.7370960  18.5143542 115.1952645 118.9487855  19.1575302 114.5187026
 118.6900708  17.6805859 114.7274575 113.1558758  19.6703553 108.5063023
 113.6197104  19.9491256 107.7167645 112.8915556  18.7686998 108.3236113
 110.0482839  19.2175035 111.4442786 110.6184196  19.6462303 110.8060270
 110.6390951  18.9357620 112.1426972 112.0927644  15.7926706 105.3152588
 112.7951688  16.2447749 105.7826514 111.7608273  15.1510525 105.9432481
 110.5408006  14.3838462 119.6903797 109.9106666  15.0654743 119.9239194
 110.4344094  14.2721544 118.7456936 105.8352978  14.0510258 110.6169721
 105.0452032  14.3067787 110.1409832 106.3264226  14.8658596 110.7221762
 119.8516788  21.3915498 113.3675002 120.6734232  20.9895685 113.0857684
 119.8479191  21.2883732 114.3191118 107.7867724  14.4154838 107.5753198
 106.9898887  14.5273532 108.0936694 107.5593316  14.7541490 106.7094089
 113.6173391  20.9399541 115.5235713 113.6817824  21.4019948 116.3593885
 112.9084315  20.3096906 115.6518023 104.1190681  14.3040749 113.0484712
 104.3698720  15.1887759 113.3142288 104.6550230  14.1245350 112.2759804
 113.3321409  22.6067648 105.3914693 113.1967084  23.4519184 105.8199541
 113.8731221  22.8086926 104.6280627 106.7850806  20.1243086 105.9642618
 107.2975327  20.9186337 106.1148183 107.4373519  19.4269377 105.8976220
 108.5945691  23.2408843 108.0465371 108.7712319  24.1626807 107.8586355
 109.3902525  22.9267262 108.4759751 107.8798048  15.2873475 117.9227535
 107.7651563  14.3858732 118.2234633 107.0242565  15.5337171 117.5712351
 114.9589885  23.2291215 119.5215035 114.5153739  22.4427593 119.2035940
 115.6207099  23.4170365 118.8558926 109.7177006  24.7587016 114.0475714
 110.2684432  24.6304080 113.2752708 108.8788482  25.0581905 113.6970606
 117.0571123  23.5094015 117.5496436 117.0389599  24.3302896 117.0576706
 117.9791043  23.3848090 117.7746578 113.5144178  21.0238144 118.3919945
 114.0472514  20.2626432 118.1619253 112.9858259  20.7311796 119.1344099
 104.7499723  18.4531741 106.7402189 105.5874945  18.8628749 106.5235896
 104.9277991  17.5131183 106.7102383 116.6464155  16.1206821 102.4286022
 116.1310779  16.8911426 102.6674409 116.3741464  15.4471957 103.0519083
 121.6198429  18.8739176 104.3639195 120.8427872  18.5350335 103.9194357
 122.2989910  18.8791799 103.6894160 116.4350458  13.9933913 104.2545803
 116.1300594  14.3080063 105.1055946 117.3880900  14.0715333 104.2973136
 114.8796890  20.1524137 105.9038757 114.3518252  19.4176896 105.5911994
 114.3784393  20.9298813 105.6578725 119.8589736  18.3473157 111.0205803
 119.2013411  19.0372419 111.1085932 120.6630135  18.7369589 111.3639789
 109.6115618  10.8143803 108.2645368 110.1859370  10.5918984 107.5318561
 110.1986600  10.8832498 109.0173970 118.6695195  16.7017530 109.0709745
 119.1827077  17.3347522 109.5731455 119.3196419  16.1018725 108.7053105
 109.9385205  12.8448264 102.2841254 109.1022517  13.1822951 102.6050528
 109.7989975  12.7097244 101.3468391 113.0249490  17.9704347  98.9073730
 112.1176552  17.7393600  99.1064879 113.5220522  17.1741966  99.0947711
 115.9317569  26.6801854 101.8270416 115.2579268  26.9833551 102.4355374
 116.3183391  27.4830935 101.4775873 115.1476026  14.1766985 111.3168085
 114.2298587  14.3981932 111.1589773 115.5636170  14.2513296 110.4579793
 115.9311074  15.5758401 106.4470766 116.6782893  16.0879798 106.1377888
 116.2002663  15.2542454 107.3075159 114.2037724  18.0716942 103.4297720
 113.2948943  17.7875975 103.5270190 114.2332808  18.4916020 102.5701027
 119.4356991  21.6823531 107.1988888 118.9819318  20.8414441 107.2554078
 118.8050958  22.3184930 107.5363668 117.8789930  23.5200028 108.1338706
 118.1712905  24.0805085 107.4151071 118.3888551  23.8128589 108.8891865
 104.7725894  15.7922456 107.4112922 104.5750294  15.1991817 106.6863989
 104.2172558  15.4874666 108.1288861 112.7522618  15.6845562 109.5307515
 112.8071228  14.7319399 109.4549992 111.9413820  15.8405002 110.0148814
 113.9013812  19.6125686 100.7685799 113.4633242  18.8961544 100.3091436
 114.6424252  19.8401800 100.2070890 110.6914978  14.3022622 107.2897894
 109.8782843  14.6016793 107.6963086 111.1873972  13.9078311 108.0072376
 112.8423556  24.2980379 109.2232159 112.7999734  24.5241225 108.2940691
 113.7586255  24.0643754 109.3717960 122.0186926  17.8882883 106.8262117
 121.8804825  18.0784479 105.8983306 121.6623145  18.6502265 107.2830168
 110.1829053  11.8740978 112.9059129 110.8228432  11.7329737 112.2082092
 109.3506583  11.5875491 112.5297731 122.0456306  19.9559410 111.8373389
 122.4792813  19.8634699 112.6856443 122.7587887  19.9316910 111.1993405
 110.9589356  21.1743408 109.0194122 111.7529955  20.6793728 108.8176697
 110.2481049  20.6461271 108.6561827 115.7784201  23.5561504 113.3706489
 115.8321223  24.1252440 114.1384205 114.9098982  23.7263389 113.0060526
 107.2672120  15.3186490 105.0953874 106.3369708  15.2570945 105.3123836
 107.3629592  14.7962443 104.2990516 107.1857669  11.8441303 107.6832116
 107.4464486  12.7586636 107.5741276 108.0074841  11.3765745 107.8328729
 108.6582594  13.2579060 114.8530940 109.3305648  13.0496422 114.2043589
 107.8312381  13.0601146 114.4136173 114.7372301  17.7221766 114.9293421
 115.6664361  17.8732925 114.7562388 114.3163331  17.8105786 114.0742068
 113.5360632  21.7472430 112.6991959 113.3971718  21.3791215 113.5717897
 112.7475229  22.2620070 112.5275916 114.1308784  26.8481527 104.0417495
 114.3060540  26.3769570 104.8563118 113.4441572  27.4747293 104.2698756
 115.0865848  21.1254033 110.0880796 114.7515680  21.0854803 110.9838446
 114.5869793  20.4598749 109.6151207 109.0610092  16.5321663 115.6133378
 108.9229889  15.8001902 116.2144917 109.9715015  16.4430563 115.3317565
 118.0225039  18.4710067 100.3617856 117.4054210  17.7456895 100.2650909
 117.5541528  19.2319427 100.0184930 111.6892392  16.2441622 115.1017057
 112.3992011  15.6034814 115.0603676 111.6461700  16.4954517 116.0243238
 119.6779171  23.1808976 118.0223636 119.6191717  22.4968196 117.3554219
 120.0798689  23.9227966 117.5704262 110.4021326  13.2306840 116.9212697
 109.8658683  12.7797579 117.5734293 109.8138035  13.3652749 116.1783161
 108.6969870  29.9970889 110.8157355 108.9366468  30.6289414 111.4936374
 107.8539066  29.6458929 111.1022715 109.8123585  12.6895491  99.4839160
 108.9353051  12.5684292  99.1201407 110.2881338  11.8981570  99.2318049
 101.3325725  17.4772651 109.5780668 102.0196765  17.1634381 108.9901683
 101.1773854  18.3814016 109.3047919 106.1360447  12.3662848 114.0065691
 106.0518636  11.7588517 113.2716101 105.3143154  12.8571866 114.0075188
 113.2097732  25.8050012 113.2198859 113.1367903  26.6104983 113.7318164
 112.7675125  26.0041978 112.3946881 112.9987511  25.0421782 106.7301681
 112.2155033  25.5843462 106.8239905 113.6980256  25.5595761 107.1295922
 115.6696415  25.7036846 115.3757018 116.3824387  26.3384311 115.3032919
 115.1786444  25.8000712 114.5597020 117.3913942  19.6088099 106.9474310
 116.4570221  19.7289561 106.7779014 117.5690610  18.7060565 106.6834320
 112.8919130  12.9933794 109.1007571 112.5216918  12.4404835 109.7888476
 113.3878223  12.3891928 108.5482571 120.7786493  15.4505418 107.4824344
 121.2446946  16.2833409 107.4084646 121.2293994  14.9850399 108.1869602
 110.7208329  23.4531289 116.1962589 111.4217788  24.0867772 116.3491983
 110.2503444  23.7946021 115.4358228 118.8462724  21.7949239 104.4810496
 119.1222568  21.6805834 105.3904370 117.9767223  21.3966724 104.4422669
 118.5209615  16.0075897 114.0215139 117.8681065  16.2551804 113.3667592
 118.8989994  15.1940035 113.6877616 115.4816788  26.0435590 108.1243309
 115.6639183  25.2257246 108.5871062 116.3049774  26.2603282 107.6868199
 115.8158954  24.9703775 105.3858358 116.3446720  24.4596230 104.7728520
 116.0787174  24.6546305 106.2503891 106.3176047  22.9867644 113.1293692
 106.9029484  22.2411332 113.2621596 106.1200885  23.2971601 114.0130355
 109.1714702  26.0218892 108.1456134 108.5025077  26.5065019 107.6620174
 109.0327572  26.2688112 109.0599512 100.9093701  15.5573245 111.8498135
 100.9477801  15.0236835 112.6435253 100.4033994  15.0308450 111.2309112
 113.3119970  28.0562635 114.7438792 113.8638279  28.2194257 115.5087877
 113.6526164  28.6467073 114.0718817 108.2884464  10.4037785 115.3460677
 108.3525790  11.2652616 114.9338075 108.2251584   9.7911787 114.6133035
 107.7636736  12.4760918 118.9933711 108.3908775  12.0937995 119.6071236
 106.9064655  12.2575120 119.3589404 104.5402279  14.2837347 104.9252066
 104.8355720  13.3748025 104.8719120 103.6390315  14.2625086 104.6033068
 116.4488358  26.0044611 111.7302474 116.3239497  25.2034351 111.2213420
 117.1067449  26.4990804 111.2416444 108.0696526  12.3593343 110.9079615
 107.3483112  12.9729311 110.7687088 108.8589782  12.8951108 110.8296261
 118.5123266  23.8053631 113.3582024 117.5653602  23.6858982 113.2860351
 118.8606039  22.9176129 113.4408286 106.2690121  11.9651444 105.0491391
 105.9402827  11.0848823 104.8666497 106.6229491  11.9099113 105.9367780
 115.5169699  23.6006347 109.5586377 115.3694662  22.6723054 109.7393947
 116.3423193  23.6226438 109.0743452 109.3831944  12.2524414 105.4166869
 109.7228016  12.7810335 104.6945477 109.8304064  12.5904820 106.1925435
 119.1203821  24.4234906 110.6451249 120.0450369  24.2177767 110.5075701
 118.9519125  24.1751307 111.5540591 111.3700091  10.7499036 103.6160162
 112.0908453  11.1280289 103.1123878 110.7465395  11.4687913 103.7195140
 110.2530435  14.4129898 111.1289239 110.1075016  14.7270201 112.0213520
 109.7755639  15.0314798 110.5760137 113.9652949  11.8369786 113.2223256
 113.7070727  12.7586857 113.2207586 113.4337989  11.4400221 113.9123720
 118.9099138  24.9420573 106.0013341 119.0836015  24.3766996 105.2487193
 119.4028029  25.7421468 105.8192831 104.7276097  16.9535242 114.0676900
 104.1829565  17.7295050 114.1997174 105.6055447  17.3006047 113.9096021
 124.7638529  17.7056996 107.6203641 125.2069675  16.9564321 107.2222764
 123.8865039  17.6967133 107.2377373 119.8974310  24.2587338 103.1010239
 120.5925215  24.8794030 103.3197554 120.2397460  23.4082689 103.3762617
 105.5142119  16.0805139 116.9607057 104.7723855  16.2287774 117.5471687
 105.1934863  16.3413404 116.0973806 121.7965733  21.7087043 104.6297570
 122.3217057  22.0474316 103.9046890 121.7088086  20.7734059 104.4460705
 113.4585782  25.6221117 116.7587447 113.7672908  25.3770264 117.6310146
 114.2561264  25.8267755 116.2706317 113.4806394  27.7759026 108.9892823
 113.0411384  27.2835405 109.6825680 114.2314511  27.2331994 108.7484898
 105.9598733  23.9670567 108.9917451 106.7856753  23.6674339 108.6116095
 105.6092785  23.1978190 109.4407240 110.9280266  23.3197036 111.0615125
 110.3060275  22.6567741 110.7617353 111.5985133  23.3458167 110.3788773
 104.1607338  21.8856894 109.9506385 103.3239246  21.4579068 109.7690386
 104.1330983  22.0789337 110.8877176 110.4893773  21.8700959 104.5373585
 110.6381893  22.5536423 103.8840258 111.2960216  21.8506049 105.0523041
 124.3071393  19.1762235 110.0126088 125.1418285  19.6152039 110.1763649
 124.4430522  18.7000888 109.1934334 108.2446406  17.8966137 105.5434654
 107.9992448  16.9928467 105.7414864 108.4142320  17.8983287 104.6014132
 107.5142053  13.6294494 103.0420816 106.8211298  13.7038849 102.3860852
 107.2693805  12.8654838 103.5642333 113.9889178  24.3649089 102.0085333
 113.4163146  24.9839276 101.5555805 114.5621972  24.9148451 102.5425255
 117.2086438  24.6486239 103.1393915 118.1417111  24.5831801 103.3426791
 117.1209651  25.4842506 102.6808448 119.8374455  23.9652110 100.0997863
 119.7588086  23.6311973 100.9933621 120.6584122  24.4573878 100.0989335
 114.3735977  15.7009902  99.3501385 115.3195082  15.5716110  99.4189803
 113.9950222  14.9624564  99.8270813 112.5578894  13.6259878  99.2856271
 111.6510349  13.3292991  99.3618984 112.8354875  13.3289697  98.4190557
 103.4756834  14.9466242 109.7355317 103.1559619  14.0931550 109.4429691
 102.9290263  15.1614820 110.4913284 107.2536742  17.6628683 113.4524823
 107.4722752  18.5945791 113.4712857 107.6662516  17.3036657 114.2379627
 103.3445094  18.5669153 111.7048439 102.6508566  18.1523106 111.1918393
 104.0918085  18.6089690 111.1081857 105.2581837  18.4987407 109.5814453
 105.2352525  18.5975094 108.6296336 105.5682474  19.3452558 109.9031620
 107.9169215  20.5563562 113.6961068 108.8712468  20.5247505 113.6290999
 107.7181738  20.0954186 114.5111294 108.5068597  19.1264678 116.2631865
 109.3261486  19.6208757 116.2866703 108.7805405  18.2096646 116.2349433
 106.2719444  26.0983182 110.7131266 106.1373912  25.3383583 110.1469264
 105.8551506  26.8224082 110.2460055 117.4078407  21.2820105  99.7207841
 118.1114257  21.4870108 100.3365497 116.6841055  21.8496867  99.9856924
 118.2376217  17.0329966 105.8410111 118.1811418  17.4898518 105.0017744
 118.7904559  16.2720651 105.6632954 109.4288570  26.9952499 110.9249708
 109.3120954  27.9397931 110.8228399 108.6081016  26.6926060 111.3135508
 119.3165104  21.7202634 101.7706301 120.1510708  21.2883833 101.5883776
 119.1549447  21.5484648 102.6983196 118.9710996  18.2234748 103.1362640
 118.9159800  18.0579019 102.1951084 118.3457052  18.9310781 103.2924830
 103.7603511  13.4602812 116.9624063 104.4062375  12.9501766 117.4511288
 103.5520662  14.1971494 117.5367488 110.4543084  27.6480761 114.1405637
 111.3570330  27.6804371 114.4572132 110.2280454  26.7181212 114.1551973
 112.2096686  26.4011747 110.8015715 111.2592317  26.4013609 110.6880088
 112.5129172  25.6544482 110.2851750 127.9449379  32.2372286 111.8661478
 128.5827789  32.1179033 111.1624818 127.8270222  33.1853129 111.9249430
 124.7539085  32.1899714 111.8023002 124.4157597  32.0740778 110.9143537
 125.6228854  31.7890879 111.7824009 120.6125901  34.0435190 107.7919893
 120.0490766  33.9525127 107.0236181 120.4978296  33.2235095 108.2722386
 125.2358868  33.3434565 117.7609208 125.2247509  32.9487364 116.8889712
 125.3979508  32.6100638 118.3542979 118.1590333  35.5386382 110.6304114
 118.9511625  35.1977206 110.2150413 118.3986983  35.6481357 111.5506267
 126.1925460  37.7106158 103.1034358 125.5413440  38.2960238 102.7168372
 126.9869823  38.2412353 103.1629396 120.1181087  34.7995295 103.5021493
 120.8911963  34.2524282 103.3634368 120.4706486  35.6639544 103.7135954
 121.9566130  36.1271677 116.7088392 121.6655996  37.0317308 116.5935058
 122.5923114  36.1688205 117.4232462 122.8822336  33.5048526 113.2989752
 123.4785909  33.2804548 112.5846715 122.9397308  32.7633271 113.9015199
 122.4547365  30.9587961 101.1339943 122.7072886  30.4369482 100.3723406
 121.5171924  30.7954106 101.2366626 127.4990648  29.9623739 108.9414686
 128.2853737  29.5443163 108.5905103 127.7629352  30.8669832 109.1096334
 127.6700725  35.3996590 103.6403343 127.0346558  35.4731216 104.3524247
 127.3398131  35.9890189 102.9622422 132.8999075  29.8998973 109.8447664
 133.6324247  29.3298189 110.0785494 132.1438431  29.5120573 110.2854170
 122.1743654  32.8616067 103.3364318 122.0579912  32.1860970 104.0045402
 122.2845913  32.3748441 102.5196471 124.5175195  32.3226214 107.0411007
 124.1533402  31.7956835 107.7523928 125.3742310  31.9324683 106.8677492
 124.1580682  27.3516114 102.0372355 124.3255084  28.2196350 102.4042826
 123.9677851  27.5143395 101.1133645 126.9156015  35.8133093 113.7038186
 126.6156738  36.7158131 113.5953993 126.5707074  35.5465276 114.5559339
 120.3668496  32.2646890 109.7374890 119.4418993  32.1323104 109.9452582
 120.6152909  33.0441109 110.2344832 130.3153158  28.3315633 111.3835623
 129.4070036  28.2631041 111.0894384 130.2640754  28.8087578 112.2117448
 124.1369902  29.8073771 103.0219022 124.0169528  30.2530822 103.8604502
 123.4422491  30.1559089 102.4632560 117.7277307  31.9080163 110.5718679
 117.8569688  32.1614642 111.4858091 117.0474759  32.5007871 110.2523334
 121.8976794  42.5777413 106.6709153 121.8200824  43.5285238 106.7497634
 121.2938438  42.2323286 107.3284080 129.8354969  30.2795244 103.8499356
 130.7472825  30.5122631 103.6747054 129.3264616  30.8632289 103.2874435
 122.6440397  32.5590732 118.8888487 123.3855081  33.0975776 118.6123311
 121.9377382  33.1857021 119.0460039 128.1195736  34.7019872 117.4860649
 128.5279092  34.2602283 116.7415281 127.3972998  34.1272500 117.7394842
 124.4726806  29.6392479 114.8594206 125.3188001  30.0631893 115.0028855
 124.4125444  28.9826103 115.5532769 128.4424551  35.2621063 111.2412938
 127.8133413  35.4266777 110.5389005 128.0550213  35.6762672 112.0123902
 132.3213783  36.1975501 108.5957301 131.6364821  36.5774402 108.0454335
 132.4057632  36.8070827 109.3289249 129.5764714  33.8435460 115.1952645
 129.7881610  34.4867220 114.5187026 129.5294463  33.0097776 114.7274575
 127.1790943  26.4553280 112.0989217 126.3175422  26.7534534 112.3905955
 127.2053378  26.6723679 111.1670250 123.9952513  34.9995471 108.5063023
 124.4590858  35.2783174 107.7167645 123.7309311  34.0978916 108.3236113
 120.8876594  34.5466953 111.4442786 121.4577951  34.9754221 110.8060270
 121.4784706  34.2649537 112.1426972 122.9321399  31.1218623 105.3152588
 123.6345442  31.5739667 105.7826514 122.6002027  30.4802442 105.9432481
 121.3801760  29.7130380 119.6903797 120.7500421  30.3946661 119.9239194
 121.2737848  29.6013462 118.7456936 116.6746733  29.3802176 110.6169721
 115.8845787  29.6359705 110.1409832 117.1657980  30.1950514 110.7221762
 130.6910542  36.7207415 113.3675002 131.5127986  36.3187602 113.0857684
 130.6872945  36.6175649 114.3191118 118.6261478  29.7446755 107.5753198
 117.8292641  29.8565450 108.0936694 118.3987070  30.0833407 106.7094089
 124.4567146  36.2691458 115.5235713 124.5211578  36.7311866 116.3593885
 123.7478070  35.6388823 115.6518023 114.9584436  29.6332666 113.0484712
 115.2092474  30.5179676 113.3142288 115.4943984  29.4537268 112.2759804
 124.1715163  37.9359566 105.3914693 124.0360838  38.7811102 105.8199541
 124.7124976  38.1378844 104.6280627 117.6244561  35.4535004 105.9642618
 118.1369081  36.2478254 106.1148183 118.2767274  34.7561294 105.8976220
 119.4339445  38.5700760 108.0465371 119.6106074  39.4918725 107.8586355
 120.2296279  38.2559180 108.4759751 118.7191802  30.6165392 117.9227535
 118.6045317  29.7150649 118.2234633 117.8636320  30.8629089 117.5712351
 125.7983640  38.5583132 119.5215035 125.3547494  37.7719511 119.2035940
 126.4600853  38.7462283 118.8558926 120.5570761  40.0878934 114.0475714
 121.1078186  39.9595997 113.2752708 119.7182237  40.3873823 113.6970606
 127.8964878  38.8385932 117.5496436 127.8783353  39.6594813 117.0576706
 128.8184798  38.7140008 117.7746578 124.3537932  36.3530062 118.3919945
 124.8866269  35.5918350 118.1619253 123.8252013  36.0603714 119.1344099
 115.5893478  33.7823658 106.7402189 116.4268700  34.1920667 106.5235896
 115.7671745  32.8423100 106.7102383 127.4857910  31.4498739 102.4286022
 126.9704533  32.2203344 102.6674409 127.2135218  30.7763875 103.0519083
 125.0705021  26.2948440 107.4871260 124.2146617  25.9055290 107.3076899
 125.4831972  26.3740401 106.6271046 126.6004167  23.8294783 111.8862820
 126.0968963  23.7924918 111.0730625 126.8934774  24.7387526 111.9459476
 122.8447053  23.9133513 110.8929002 123.7100050  23.7176321 110.5334891
 122.9124562  23.6843865 111.8198358 132.4592184  34.2031094 104.3639195
 131.6821627  33.8642253 103.9194357 133.1383665  34.2083717 103.6894160
 127.2744213  29.3225831 104.2545803 126.9694348  29.6371980 105.1055946
 128.2274655  29.4007251 104.2973136 125.7190645  35.4816054 105.9038757
 125.1912006  34.7468814 105.5911994 125.2178147  36.2590731 105.6578725
 130.6983491  33.6765075 111.0205803 130.0407165  34.3664336 111.1085932
 131.5023890  34.0661507 111.3639789 120.4509372  26.1435721 108.2645368
 121.0253124  25.9210902 107.5318561 121.0380355  26.2124415 109.0173970
 129.5088950  32.0309448 109.0709745 130.0220831  32.6639439 109.5731455
 130.1590173  31.4310643 108.7053105 120.7778959  28.1740182 102.2841254
 119.9416272  28.5114868 102.6050528 120.6383729  28.0389161 101.3468391
 122.7532040  23.0176970 106.9920438 122.0996452  22.7025987 106.3677053
 122.7112514  22.3952710 107.7180261 123.8643245  33.2996265  98.9073730
 122.9570307  33.0685518  99.1064879 124.3614277  32.5033884  99.0947711
 126.7711324  42.0093772 101.8270416 126.0973023  42.3125469 102.4355374
 127.1577146  42.8122852 101.4775873 125.9869780  29.5058903 111.3168085
 125.0692342  29.7273850 111.1589773 126.4029924  29.5805214 110.4579793
 126.7704828  30.9050319 106.4470766 127.5176647  31.4171716 106.1377888
 127.0396418  30.5834372 107.3075159 125.0431478  33.4008860 103.4297720
 124.1342698  33.1167892 103.5270190 125.0726562  33.8207938 102.5701027
 130.2750746  37.0115449 107.1988888 129.8213073  36.1706359 107.2554078
 129.6444712  37.6476847 107.5363668 129.2183665  27.9407435 108.4289555
 128.4806422  27.4284821 108.7599798 129.4710439  27.5007817 107.6172832
 128.7183685  38.8491946 108.1338706 129.0106659  39.4097003 107.4151071
 129.2282306  39.1420507 108.8891865 115.6119649  31.1214374 107.4112922
 115.4144049  30.5283734 106.6863989 115.0566313  30.8166584 108.1288861
 123.5916372  31.0137480 109.5307515 123.6464982  30.0611317 109.4549992
 122.7807574  31.1696919 110.0148814 124.7407566  34.9417603 100.7685799
 124.3026996  34.2253462 100.3091436 125.4818007  35.1693718 100.2070890
 121.5308732  29.6314540 107.2897894 120.7176598  29.9308710 107.6963086
 122.0267726  29.2370229 108.0072376 123.6817310  39.6272297 109.2232159
 123.6393489  39.8533143 108.2940691 124.5980009  39.3935671 109.3717960
 132.8580681  33.2174800 106.8262117 132.7198579  33.4076396 105.8983306
 132.5016900  33.9794183 107.2830168 121.0222807  27.2032895 112.9059129
 121.6622186  27.0621654 112.2082092 120.1900338  26.9167409 112.5297731
 132.8850061  35.2851327 111.8373389 133.3186567  35.1926616 112.6856443
 133.5981641  35.2608828 111.1993405 121.7983111  36.5035326 109.0194122
 122.5923709  36.0085646 108.8176697 121.0874803  35.9753189 108.6561827
 126.6177955  38.8853421 113.3706489 126.6714978  39.4544358 114.1384205
 125.7492737  39.0555306 113.0060526 118.1065874  30.6478408 105.0953874
 117.1763463  30.5862863 105.3123836 118.2023346  30.1254360 104.2990516
 118.0251423  27.1733220 107.6832116 118.2858241  28.0878554 107.5741276
 118.8468596  26.7057663 107.8328729 119.4976349  28.5870978 114.8530940
 120.1699402  28.3788340 114.2043589 118.6706135  28.3893064 114.4136173
 125.5766055  33.0513683 114.9293421 126.5058115  33.2024843 114.7562388
 125.1557085  33.1397704 114.0742068 124.3754387  37.0764348 112.6991959
 124.2365473  36.7083132 113.5717897 123.5868983  37.5911987 112.5275916
 124.9702539  42.1773444 104.0417495 125.1454295  41.7061487 104.8563118
 124.2835327  42.8039210 104.2698756 125.9259602  36.4545950 110.0880796
 125.5909435  36.4146720 110.9838446 125.4263548  35.7890666 109.6151207
 119.9003846  31.8613581 115.6133378 119.7623644  31.1293819 116.2144917
 120.8108770  31.7722481 115.3317565 128.8618794  33.8001985 100.3617856
 128.2447964  33.0748813 100.2650909 128.3935282  34.5611345 100.0184930
 122.5286147  31.5733540 115.1017057 123.2385765  30.9326732 115.0603676
 122.4855455  31.8246435 116.0243238 130.5172925  38.5100893 118.0223636
 130.4585472  37.8260113 117.3554219 130.9192444  39.2519883 117.5704262
 121.2415081  28.5598758 116.9212697 120.7052438  28.1089496 117.5734293
 120.6531789  28.6944667 116.1783161 119.5363624  45.3262807 110.8157355
 119.7760222  45.9581331 111.4936374 118.6932821  44.9750847 111.1022715
 120.6517340  28.0187409  99.4839160 119.7746806  27.8976210  99.1201407
 121.1275093  27.2273487  99.2318049 112.1719480  32.8064569 109.5780668
 112.8590520  32.4926299 108.9901683 112.0167608  33.7105934 109.3047919
 116.9754202  27.6954765 114.0065691 116.8912391  27.0880435 113.2716101
 116.1536908  28.1863784 114.0075188 124.0491486  41.1341929 113.2198859
 123.9761658  41.9396901 113.7318164 123.6068879  41.3333895 112.3946881
 123.8381266  40.3713699 106.7301681 123.0548788  40.9135380 106.8239905
 124.5374011  40.8887679 107.1295922 127.1477916  26.1808329 109.3735886
 127.6446615  25.4278291 109.0536957 126.3764897  26.2172646 108.8079096
 126.5090170  41.0328763 115.3757018 127.2218142  41.6676228 115.3032919
 126.0180198  41.1292629 114.5597020 128.2307696  34.9380016 106.9474310
 127.2963975  35.0581479 106.7779014 128.4084365  34.0352483 106.6834320
 123.7312885  28.3225712 109.1007571 123.3610672  27.7696752 109.7888476
 124.2271977  27.7183845 108.5482571 131.6180248  30.7797335 107.4824344
 132.0840700  31.6125327 107.4084646 132.0687748  30.3142317 108.1869602
 121.5602083  38.7823207 116.1962589 122.2611543  39.4159690 116.3491983
 121.0897198  39.1237939 115.4358228 129.6856479  37.1241157 104.4810496
 129.9616323  37.0097751 105.3904370 128.8160978  36.7258642 104.4422669
 129.3603369  31.3367814 114.0215139 128.7074819  31.5843722 113.3667592
 129.7383749  30.5231953 113.6877616 126.3210543  41.3727508 108.1243309
 126.5032937  40.5549164 108.5871062 127.1443529  41.5895200 107.6868199
 126.6552708  40.2995693 105.3858358 127.1840475  39.7888147 104.7728520
 126.9180928  39.9838223 106.2503891 117.1569801  38.3159562 113.1293692
 117.7423238  37.5703250 113.2621596 116.9594640  38.6263519 114.0130355
 120.0108456  41.3510809 108.1456134 119.3418832  41.8356937 107.6620174
 119.8721326  41.5980030 109.0599512 111.7487456  30.8865162 111.8498135
 111.7871555  30.3528753 112.6435253 111.2427749  30.3600368 111.2309112
 124.1513725  43.3854553 114.7438792 124.7032033  43.5486174 115.5087877
 124.4919918  43.9758991 114.0718817 119.1278218  25.7329703 115.3460677
 119.1919545  26.5944534 114.9338075 119.0645338  25.1203704 114.6133035
 118.6030491  27.8052835 118.9933711 119.2302530  27.4229913 119.6071236
 117.7458410  27.5867037 119.3589404 115.3796033  29.6129264 104.9252066
 115.6749475  28.7039943 104.8719120 114.4784069  29.5917004 104.6033068
 127.2882112  41.3336528 111.7302474 127.1633252  40.5326268 111.2213420
 127.9461203  41.8282722 111.2416444 118.9090280  27.6885261 110.9079615
 118.1876866  28.3021229 110.7687088 119.6983536  28.2243026 110.8296261
 129.3517021  39.1345549 113.3582024 128.4047356  39.0150900 113.2860351
 129.6999794  38.2468047 113.4408286 117.1083875  27.2943362 105.0491391
 116.7796581  26.4140741 104.8666497 117.4623246  27.2391031 105.9367780
 126.3563454  38.9298265 109.5586377 126.2088416  38.0014972 109.7393947
 127.1816947  38.9518355 109.0743452 120.2225698  27.5816332 105.4166869
 120.5621771  28.1102253 104.6945477 120.6697819  27.9196738 106.1925435
 129.9597576  39.7526823 110.6451249 130.8844123  39.5469685 110.5075701
 129.7912879  39.5043225 111.5540591 122.9169139  25.9653383 114.8669937
 122.5765959  25.1661196 115.2690617 122.2108145  26.2655093 114.2946770
 123.5685611  23.0502695 113.3197260 124.3911680  22.5763173 113.1976150
 123.8123674  23.8293179 113.8195946 122.2093845  26.0790953 103.6160162
 122.9302208  26.4572206 103.1123878 121.5859150  26.7979830 103.7195140
 126.3524968  26.7836102 104.5518494 126.5688583  27.6660740 104.2507322
 125.8719035  26.3922316 103.8224136 121.0924190  29.7421816 111.1289239
 120.9468770  30.0562119 112.0213520 120.6149393  30.3606716 110.5760137
 122.9520573  26.7324364 111.1770128 122.9382141  25.8365457 110.8402426
 123.6693001  26.7395027 111.8108414 124.8046703  27.1661704 113.2223256
 124.5464481  28.0878774 113.2207586 124.2731744  26.7692138 113.9123720
 129.7492892  40.2712491 106.0013341 129.9229770  39.7058913 105.2487193
 130.2421783  41.0713386 105.8192831 115.5669852  32.2827160 114.0676900
 115.0223320  33.0586968 114.1997174 116.4449202  32.6297964 113.9096021
 122.3557468  25.6138744 106.4457698 122.4773380  24.6855390 106.6448586
 122.0659511  25.6277430 105.5336014 125.2248659  23.2993654 109.5824418
 125.2470356  23.3632987 108.6276398 125.6416718  22.4598163 109.7764924
 135.6032283  33.0348914 107.6203641 136.0463429  32.2856239 107.2222764
 134.7258793  33.0259050 107.2377373 130.7368064  39.5879255 103.1010239
 131.4318969  40.2085948 103.3197554 131.0791215  38.7374607 103.3762617
 116.3535874  31.4097056 116.9607057 115.6117610  31.5579692 117.5471687
 116.0328618  31.6705322 116.0973806 132.6359488  37.0378961 104.6297570
 133.1610812  37.3766234 103.9046890 132.5481840  36.1025976 104.4460705
 124.2979536  40.9513035 116.7587447 124.6066663  40.7062181 117.6310146
 125.0955018  41.1559673 116.2706317 124.3200148  43.1050944 108.9892823
 123.8805139  42.6127323 109.6825680 125.0708265  42.5623912 108.7484898
 116.7992487  39.2962485 108.9917451 117.6250507  38.9966257 108.6116095
 116.4486539  38.5270107 109.4407240 121.7674021  38.6488953 111.0615125
 121.1454030  37.9859658 110.7617353 122.4378887  38.6750085 110.3788773
 115.0001092  37.2148811 109.9506385 114.1633001  36.7870986 109.7690386
 114.9724738  37.4081255 110.8877176 121.3287527  37.1992877 104.5373585
 121.4775648  37.8828341 103.8840258 122.1353971  37.1797967 105.0523041
 135.1465148  34.5054152 110.0126088 135.9812039  34.9443956 110.1763649
 135.2824277  34.0292805 109.1934334 119.0840160  33.2258054 105.5434654
 118.8386202  32.3220384 105.7414864 119.2536075  33.2275205 104.6014132
 118.3535808  28.9586412 103.0420816 117.6605053  29.0330767 102.3860852
 118.1087560  28.1946755 103.5642333 124.8282933  39.6941007 102.0085333
 124.2556900  40.3131194 101.5555805 125.4015727  40.2440369 102.5425255
 128.0480193  39.9778157 103.1393915 128.9810866  39.9123719 103.3426791
 127.9603406  40.8134424 102.6808448 130.6768209  39.2944028 100.0997863
 130.5981841  38.9603891 100.9933621 131.4977876  39.7865795 100.0989335
 125.2129731  31.0301820  99.3501385 126.1588836  30.9008028  99.4189803
 124.8343976  30.2916482  99.8270813 123.3972649  28.9551796  99.2856271
 122.4904104  28.6584909  99.3618984 123.6748630  28.6581614  98.4190557
 114.3150589  30.2758160 109.7355317 113.9953373  29.4223468 109.4429691
 113.7684017  30.4906738 110.4913284 118.0930497  32.9920601 113.4524823
 118.3116506  33.9237708 113.4712857 118.5056270  32.6328575 114.2379627
 125.0134714  23.4988686 105.4400512 124.2035443  23.1535771 105.8155758
 125.7019131  23.1896230 106.0288123 126.9425263  22.5766733 107.0624808
 127.4956301  22.9962186 107.7214832 127.1795349  21.6502481 107.1047764
 122.1671433  25.8138731  99.4268250 123.0290597  26.1393630  99.6864067
 122.3521777  25.0270227  98.9141316 114.1838849  33.8961071 111.7048439
 113.4902320  33.4815024 111.1918393 114.9311840  33.9381608 111.1081857
 130.3204070  24.6867258 106.5703473 129.7402739  25.3452062 106.1881525
 130.0540002  23.8644602 106.1590890 128.7707636  24.0872316 108.7724793
 129.2707414  24.1988850 107.9639112 129.4143244  23.7833368 109.4125601
 116.0975591  33.8279325 109.5814453 116.0746280  33.9267012 108.6296336
 116.4076228  34.6744476 109.9031620 118.7562969  35.8855480 113.6961068
 119.7106223  35.8539422 113.6290999 118.5575493  35.4246104 114.5111294
 119.3462352  34.4556596 116.2631865 120.1655240  34.9500675 116.2866703
 119.6199159  33.5388564 116.2349433 129.1028948  26.8467348 105.6259821
 128.2154803  27.1316999 105.4080016 129.5182937  26.6861112 104.7787098
 117.1113198  41.4275099 110.7131266 116.9767666  40.6675500 110.1469264
 116.6945260  42.1515999 110.2460055 128.2472161  36.6112023  99.7207841
 128.9508011  36.8162025 100.3365497 127.5234810  37.1788785  99.9856924
 129.0769971  32.3621884 105.8410111 129.0205173  32.8190436 105.0017744
 129.6298314  31.6012569 105.6632954 132.8874777  28.1511616 106.6660231
 132.6311712  27.7508252 107.4968438 132.2627645  28.8655410 106.5410370
 120.2682324  42.3244416 110.9249708 120.1514708  43.2689849 110.8228399
 119.4474770  42.0217978 111.3135508 130.1558859  37.0494552 101.7706301
 130.9904463  36.6175751 101.5883776 129.9943201  36.8776566 102.6983196
 129.8104751  33.5526665 103.1362640 129.7553555  33.3870937 102.1951084
 129.1850806  34.2602698 103.2924830 114.5997266  28.7894730 116.9624063
 115.2456129  28.2793684 117.4511288 114.3914417  29.5263411 117.5367488
 123.1200876  23.0534774 102.7147959 123.1079546  23.9976614 102.8716230
 124.0124298  22.8704920 102.4207420 121.2936838  42.9772678 114.1405637
 122.1964085  43.0096289 114.4572132 121.0674208  42.0473129 114.1551973
 123.0490440  41.7303665 110.8015715 122.0986071  41.7305526 110.6880088
 123.3522926  40.9836399 110.2851750 126.9352996  19.6477551 106.9693896
 126.1685391  19.0936038 107.1150578 127.3463701  19.7199420 107.8308047
 138.7843134  47.5664203 111.8661478 139.4221544  47.4470951 111.1624818
 138.6663977  48.5145047 111.9249430 135.5932840  47.5191631 111.8023002
 135.2551351  47.4032696 110.9143537 136.4622608  47.1182796 111.7824009
 131.4519656  49.3727108 107.7919893 130.8884521  49.2817045 107.0236181
 131.3372051  48.5527012 108.2722386 136.0752623  48.6726483 117.7609208
 136.0641264  48.2779281 116.8889712 136.2373262  47.9392556 118.3542979
 128.9984088  50.8678299 110.6304114 129.7905380  50.5269124 110.2150413
 129.2380738  50.9773274 111.5506267 137.0319214  53.0398075 103.1034358
 136.3807194  53.6252156 102.7168372 137.8263577  53.5704270 103.1629396
 130.9574842  50.1287213 103.5021493 131.7305718  49.5816200 103.3634368
 131.3100240  50.9931462 103.7135954 132.7959884  51.4563595 116.7088392
 132.5049750  52.3609226 116.5935058 133.4316868  51.4980122 117.4232462
 133.7216091  48.8340443 113.2989752 134.3179663  48.6096466 112.5846715
 133.7791062  48.0925189 113.9015199 133.2941119  46.2879879 101.1339943
 133.5466640  45.7661400 100.3723406 132.3565678  46.1246024 101.2366626
 138.3384402  45.2915657 108.9414686 139.1247491  44.8735080 108.5905103
 138.6023106  46.1961749 109.1096334 138.5094480  50.7288507 103.6403343
 137.8740312  50.8023134 104.3524247 138.1791886  51.3182106 102.9622422
 133.0137408  48.1907985 103.3364318 132.8973666  47.5152888 104.0045402
 133.1239668  47.7040359 102.5196471 135.3568949  47.6518132 107.0411007
 134.9927156  47.1248753 107.7523928 136.2136065  47.2616601 106.8677492
 134.9974436  42.6808031 102.0372355 135.1648838  43.5488268 102.4042826
 134.8071605  42.8435313 101.1133645 137.7549769  51.1425010 113.7038186
 137.4550492  52.0450049 113.5953993 137.4100829  50.8757194 114.5559339
 131.2062251  47.5938807 109.7374890 130.2812747  47.4615021 109.9452582
 131.4546664  48.3733026 110.2344832 141.1546913  43.6607551 111.3835623
 140.2463790  43.5922959 111.0894384 141.1034509  44.1379495 112.2117448
 134.9763657  45.1365689 103.0219022 134.8563282  45.5822740 103.8604502
 134.2816245  45.4851007 102.4632560 128.5671062  47.2372081 110.5718679
 128.6963443  47.4906560 111.4858091 127.8868513  47.8299789 110.2523334
 132.7370549  57.9069331 106.6709153 132.6594579  58.8577156 106.7497634
 132.1332193  57.5615203 107.3284080 133.4834151  47.8882649 118.8888487
 134.2248835  48.4267693 118.6123311 132.7771137  48.5148938 119.0460039
 138.9589491  50.0311790 117.4860649 139.3672847  49.5894200 116.7415281
 138.2366752  49.4564417 117.7394842 135.3120561  44.9684397 114.8594206
 136.1581756  45.3923810 115.0028855 135.2519198  44.3118021 115.5532769
 139.2818305  50.5912981 111.2412938 138.6527168  50.7558695 110.5389005
 138.8943967  51.0054590 112.0123902 140.4158469  49.1727377 115.1952645
 140.6275364  49.8159137 114.5187026 140.3688217  48.3389694 114.7274575
 138.0184698  41.7845198 112.0989217 137.1569177  42.0826452 112.3905955
 138.0447132  42.0015597 111.1670250 134.8346267  50.3287389 108.5063023
 135.2984613  50.6075092 107.7167645 134.5703065  49.4270833 108.3236113
 131.7270348  49.8758870 111.4442786 132.2971705  50.3046139 110.8060270
 132.3178460  49.5941455 112.1426972 133.7715153  46.4510541 105.3152588
 134.4739197  46.9031585 105.7826514 133.4395782  45.8094360 105.9432481
 132.2195515  45.0422298 119.6903797 131.5894175  45.7238579 119.9239194
 132.1131603  44.9305379 118.7456936 127.5140487  44.7094094 110.6169721
 126.7239541  44.9651622 110.1409832 128.0051735  45.5242432 110.7221762
 129.4655233  45.0738673 107.5753198 128.6686396  45.1857367 108.0936694
 129.2380825  45.4125325 106.7094089 135.2960900  51.5983376 115.5235713
 135.3605333  52.0603783 116.3593885 134.5871824  50.9680741 115.6518023
 125.7978190  44.9624584 113.0484712 126.0486229  45.8471594 113.3142288
 126.3337739  44.7829186 112.2759804 135.0108918  53.2651484 105.3914693
 134.8754593  54.1103019 105.8199541 135.5518730  53.4670761 104.6280627
 128.4638315  50.7826922 105.9642618 128.9762836  51.5770172 106.1148183
 129.1161028  50.0853212 105.8976220 130.2733200  53.8992678 108.0465371
 130.4499828  54.8210643 107.8586355 131.0690034  53.5851097 108.4759751
 129.5585557  45.9457310 117.9227535 129.4439072  45.0442567 118.2234633
 128.7030074  46.1921007 117.5712351 136.6377394  53.8875050 119.5215035
 136.1941248  53.1011429 119.2035940 137.2994608  54.0754201 118.8558926
 131.3964515  55.4170852 114.0475714 131.9471941  55.2887915 113.2752708
 130.5575991  55.7165741 113.6970606 138.7358632  54.1677850 117.5496436
 138.7177108  54.9886731 117.0576706 139.6578552  54.0431925 117.7746578
 135.1931686  51.6821980 118.3919945 135.7260023  50.9210268 118.1619253
 134.6645768  51.3895631 119.1344099 126.4287232  49.1115576 106.7402189
 127.2662454  49.5212584 106.5235896 126.6065500  48.1715018 106.7102383
 138.3251664  46.7790657 102.4286022 137.8098288  47.5495261 102.6674409
 138.0528973  46.1055793 103.0519083 135.9098775  41.6240357 107.4871260
 135.0540372  41.2347208 107.3076899 136.3225727  41.7032318 106.6271046
 137.4397922  39.1586701 111.8862820 136.9362717  39.1216836 111.0730625
 137.7328529  40.0679443 111.9459476 133.6840808  39.2425430 110.8929002
 134.5493805  39.0468239 110.5334891 133.7518317  39.0135782 111.8198358
 138.1137967  44.6517749 104.2545803 137.8088103  44.9663898 105.1055946
 139.0668409  44.7299169 104.2973136 136.5584399  50.8107972 105.9038757
 136.0305761  50.0760732 105.5911994 136.0571902  51.5882648 105.6578725
 131.2903127  41.4727638 108.2645368 131.8646879  41.2502820 107.5318561
 131.8774109  41.5416333 109.0173970 140.3482704  47.3601365 109.0709745
 140.8614586  47.9931357 109.5731455 140.9983928  46.7602561 108.7053105
 131.6172714  43.5032099 102.2841254 130.7810026  43.8406786 102.6050528
 131.4777484  43.3681079 101.3468391 133.5925795  38.3468887 106.9920438
 132.9390207  38.0317904 106.3677053 133.5506269  37.7244628 107.7180261
 134.7036999  48.6288182  98.9073730 133.7964061  48.3977436  99.1064879
 135.2008031  47.8325802  99.0947711 137.6105078  57.3385690 101.8270416
 136.9366777  57.6417386 102.4355374 137.9970900  58.1414770 101.4775873
 136.8263535  44.8350821 111.3168085 135.9086096  45.0565768 111.1589773
 137.2423679  44.9097131 110.4579793 137.6098583  46.2342236 106.4470766
 138.3570402  46.7463634 106.1377888 137.8790172  45.9126289 107.3075159
 135.8825233  48.7300777 103.4297720 134.9736452  48.4459810 103.5270190
 135.9120317  49.1499856 102.5701027 141.1144500  52.3407367 107.1988888
 140.6606827  51.4998277 107.2554078 140.4838467  52.9768765 107.5363668
 140.0577420  43.2699353 108.4289555 139.3200177  42.7576739 108.7599798
 140.3104193  42.8299734 107.6172832 139.5577439  54.1783863 108.1338706
 139.8500414  54.7388920 107.4151071 140.0676060  54.4712424 108.8891865
 126.4513403  46.4506291 107.4112922 126.2537803  45.8575652 106.6863989
 125.8960067  46.1458502 108.1288861 134.4310127  46.3429398 109.5307515
 134.4858737  45.3903234 109.4549992 133.6201329  46.4988837 110.0148814
 135.5801321  50.2709521 100.7685799 135.1420751  49.5545380 100.3091436
 136.3211761  50.4985636 100.2070890 132.3702487  44.9606458 107.2897894
 131.5570352  45.2600628 107.6963086 132.8661481  44.5662146 108.0072376
 134.5211065  54.9564214 109.2232159 134.4787243  55.1825061 108.2940691
 135.4373764  54.7227589 109.3717960 131.8616562  42.5324813 112.9059129
 132.5015941  42.3913572 112.2082092 131.0294092  42.2459326 112.5297731
 132.6376865  51.8327243 109.0194122 133.4317464  51.3377564 108.8176697
 131.9268558  51.3045107 108.6561827 137.4571710  54.2145339 113.3706489
 137.5108732  54.7836275 114.1384205 136.5886491  54.3847224 113.0060526
 128.9459629  45.9770325 105.0953874 128.0157217  45.9154781 105.3123836
 129.0417101  45.4546278 104.2990516 128.8645178  42.5025138 107.6832116
 129.1251995  43.4170471 107.5741276 129.6862350  42.0349581 107.8328729
 130.3370103  43.9162895 114.8530940 131.0093157  43.7080257 114.2043589
 129.5099890  43.7184981 114.4136173 136.4159810  48.3805601 114.9293421
 137.3451870  48.5316761 114.7562388 135.9950840  48.4689622 114.0742068
 135.2148141  52.4056265 112.6991959 135.0759227  52.0375050 113.5717897
 134.4262738  52.9203905 112.5275916 135.8096293  57.5065362 104.0417495
 135.9848049  57.0353405 104.8563118 135.1229081  58.1331128 104.2698756
 136.7653357  51.7837868 110.0880796 136.4303189  51.7438638 110.9838446
 136.2657302  51.1182584 109.6151207 130.7397601  47.1905498 115.6133378
 130.6017398  46.4585737 116.2144917 131.6502524  47.1014398 115.3317565
 139.7012548  49.1293903 100.3617856 139.0841719  48.4040731 100.2650909
 139.2329037  49.8903263 100.0184930 133.3679901  46.9025458 115.1017057
 134.0779520  46.2618650 115.0603676 133.3249209  47.1538352 116.0243238
 132.0808835  43.8890675 116.9212697 131.5446192  43.4381414 117.5734293
 131.4925544  44.0236584 116.1783161 130.3757379  60.6554725 110.8157355
 130.6153977  61.2873249 111.4936374 129.5326575  60.3042765 111.1022715
 131.4911094  43.3479327  99.4839160 130.6140560  43.2268128  99.1201407
 131.9668847  42.5565405  99.2318049 123.0113234  48.1356487 109.5780668
 123.6984274  47.8218217 108.9901683 122.8561363  49.0397851 109.3047919
 127.8147956  43.0246683 114.0065691 127.7306145  42.4172353 113.2716101
 126.9930663  43.5155701 114.0075188 134.8885241  56.4633847 113.2198859
 134.8155412  57.2688819 113.7318164 134.4462634  56.6625813 112.3946881
 134.6775020  55.7005617 106.7301681 133.8942542  56.2427297 106.8239905
 135.3767765  56.2179597 107.1295922 137.9871670  41.5100247 109.3735886
 138.4840370  40.7570209 109.0536957 137.2158652  41.5464563 108.8079096
 137.3483924  56.3620681 115.3757018 138.0611896  56.9968146 115.3032919
 136.8573953  56.4584547 114.5597020 139.0701451  50.2671934 106.9474310
 138.1357730  50.3873396 106.7779014 139.2478119  49.3644401 106.6834320
 134.5706639  43.6517630 109.1007571 134.2004427  43.0988670 109.7888476
 135.0665731  43.0475763 108.5482571 132.3995838  54.1115125 116.1962589
 133.1005297  54.7451608 116.3491983 131.9290953  54.4529856 115.4358228
 140.5250233  52.4533074 104.4810496 140.8010077  52.3389669 105.3904370
 139.6554732  52.0550559 104.4422669 140.1997124  46.6659732 114.0215139
 139.5468574  46.9135640 113.3667592 140.5777503  45.8523870 113.6877616
 137.1604297  56.7019425 108.1243309 137.3426692  55.8841081 108.5871062
 137.9837283  56.9187118 107.6868199 137.4946463  55.6287610 105.3858358
 138.0234229  55.1180065 104.7728520 137.7574683  55.3130141 106.2503891
 127.9963556  53.6451480 113.1293692 128.5816992  52.8995168 113.2621596
 127.7988394  53.9555436 114.0130355 130.8502211  56.6802727 108.1456134
 130.1812586  57.1648855 107.6620174 130.7115081  56.9271948 109.0599512
 122.5881210  46.2157080 111.8498135 122.6265310  45.6820671 112.6435253
 122.0821503  45.6892285 111.2309112 134.9907479  58.7146471 114.7438792
 135.5425788  58.8778092 115.5087877 135.3313673  59.3050908 114.0718817
 129.9671973  41.0621620 115.3460677 130.0313299  41.9236451 114.9338075
 129.9039093  40.4495622 114.6133035 129.4424245  43.1344753 118.9933711
 130.0696284  42.7521830 119.6071236 128.5852164  42.9158955 119.3589404
 126.2189788  44.9421182 104.9252066 126.5143229  44.0331860 104.8719120
 125.3177824  44.9208922 104.6033068 138.1275867  56.6628446 111.7302474
 138.0027006  55.8618186 111.2213420 138.7854958  57.1574639 111.2416444
 129.7484035  43.0177179 110.9079615 129.0270621  43.6313146 110.7687088
 130.5377291  43.5534943 110.8296261 140.1910775  54.4637466 113.3582024
 139.2441111  54.3442817 113.2860351 140.5393548  53.5759964 113.4408286
 127.9477630  42.6235280 105.0491391 127.6190336  41.7432659 104.8666497
 128.3017000  42.5682948 105.9367780 137.1957208  54.2590182 109.5586377
 137.0482171  53.3306890 109.7393947 138.0210702  54.2810273 109.0743452
 131.0619453  42.9108250 105.4166869 131.4015525  43.4394171 104.6945477
 131.5091573  43.2488656 106.1925435 133.7562894  41.2945300 114.8669937
 133.4159714  40.4953113 115.2690617 133.0501900  41.5947011 114.2946770
 134.4079365  38.3794613 113.3197260 135.2305435  37.9055091 113.1976150
 134.6517429  39.1585096 113.8195946 133.0487600  41.4082871 103.6160162
 133.7695962  41.7864124 103.1123878 132.4252904  42.1271748 103.7195140
 137.1918723  42.1128020 104.5518494 137.4082337  42.9952658 104.2507322
 136.7112790  41.7214233 103.8224136 131.9317944  45.0713733 111.1289239
 131.7862525  45.3854036 112.0213520 131.4543148  45.6898634 110.5760137
 133.7914327  42.0616281 111.1770128 133.7775896  41.1657375 110.8402426
 134.5086755  42.0686945 111.8108414 135.6440458  42.4953621 113.2223256
 135.3858236  43.4170692 113.2207586 135.1125498  42.0984056 113.9123720
 140.5886646  55.6004409 106.0013341 140.7623524  55.0350831 105.2487193
 141.0815538  56.4005303 105.8192831 126.4063606  47.6119078 114.0676900
 125.8617074  48.3878886 114.1997174 127.2842956  47.9589882 113.9096021
 133.1951223  40.9430662 106.4457698 133.3167134  40.0147308 106.6448586
 132.9053265  40.9569348 105.5336014 136.0642413  38.6285572 109.5824418
 136.0864110  38.6924905 108.6276398 136.4810472  37.7890081 109.7764924
 127.1929628  46.7388974 116.9607057 126.4511364  46.8871609 117.5471687
 126.8722372  46.9997240 116.0973806 135.1373291  56.2804952 116.7587447
 135.4460417  56.0354099 117.6310146 135.9348773  56.4851591 116.2706317
 135.1593903  58.4342862 108.9892823 134.7198893  57.9419241 109.6825680
 135.9102020  57.8915829 108.7484898 127.6386242  54.6254403 108.9917451
 128.4644262  54.3258175 108.6116095 127.2880294  53.8562025 109.4407240
 132.6067775  53.9780871 111.0615125 131.9847784  53.3151576 110.7617353
 133.2772642  54.0042003 110.3788773 125.8394847  52.5440729 109.9506385
 125.0026755  52.1162903 109.7690386 125.8118492  52.7373172 110.8877176
 132.1681282  52.5284794 104.5373585 132.3169402  53.2120259 103.8840258
 132.9747725  52.5089884 105.0523041 129.9233915  48.5549972 105.5434654
 129.6779957  47.6512302 105.7414864 130.0929829  48.5567122 104.6014132
 129.1929562  44.2878329 103.0420816 128.4998807  44.3622684 102.3860852
 128.9481314  43.5238673 103.5642333 135.6676687  55.0232925 102.0085333
 135.0950655  55.6423112 101.5555805 136.2409481  55.5732286 102.5425255
 138.8873947  55.3070075 103.1393915 139.8204620  55.2415637 103.3426791
 138.7997160  56.1426342 102.6808448 136.0523486  46.3593737  99.3501385
 136.9982591  46.2299946  99.4189803 135.6737731  45.6208399  99.8270813
 134.2366403  44.2843714  99.2856271 133.3297858  43.9876827  99.3618984
 134.5142384  43.9873532  98.4190557 125.1544343  45.6050077 109.7355317
 124.8347128  44.7515385 109.4429691 124.6077772  45.8198655 110.4913284
 128.9324251  48.3212518 113.4524823 129.1510261  49.2529626 113.4712857
 129.3450025  47.9620493 114.2379627 135.8528469  38.8280604 105.4400512
 135.0429197  38.4827689 105.8155758 136.5412886  38.5188147 106.0288123
 137.7819017  37.9058650 107.0624808 138.3350056  38.3254104 107.7214832
 138.0189103  36.9794398 107.1047764 133.0065188  41.1430649  99.4268250
 133.8684352  41.4685547  99.6864067 133.1915532  40.3562145  98.9141316
 125.0232603  49.2252989 111.7048439 124.3296075  48.8106942 111.1918393
 125.7705594  49.2673525 111.1081857 139.6101391  39.4164233 108.7724793
 140.1101169  39.5280768 107.9639112 140.2536998  39.1125286 109.4125601
 126.9369346  49.1571243 109.5814453 126.9140034  49.2558930 108.6296336
 127.2469982  50.0036393 109.9031620 129.5956724  51.2147398 113.6961068
 130.5499977  51.1831340 113.6290999 129.3969247  50.7538021 114.5111294
 130.1856106  49.7848514 116.2631865 131.0048995  50.2792592 116.2866703
 130.4592914  48.8680482 116.2349433 139.9422702  42.1759266 105.6259821
 139.0548557  42.4608917 105.4080016 140.3576691  42.0153029 104.7787098
 127.9506953  56.7567017 110.7131266 127.8161421  55.9967418 110.1469264
 127.5339015  57.4807917 110.2460055 139.0865916  51.9403941  99.7207841
 139.7901766  52.1453943 100.3365497 138.3628564  52.5080702  99.9856924
 139.9163726  47.6913802 105.8410111 139.8598927  48.1482353 105.0017744
 140.4692068  46.9304486 105.6632954 131.1076079  57.6536334 110.9249708
 130.9908463  58.5981767 110.8228399 130.2868525  57.3509896 111.3135508
 140.6498505  48.8818583 103.1362640 140.5947309  48.7162855 102.1951084
 140.0244561  49.5894616 103.2924830 125.4391020  44.1186647 116.9624063
 126.0849884  43.6085601 117.4511288 125.2308171  44.8555329 117.5367488
 133.9594631  38.3826692 102.7147959 133.9473301  39.3268532 102.8716230
 134.8518053  38.1996838 102.4207420 132.1330593  58.3064596 114.1405637
 133.0357839  58.3388206 114.4572132 131.9067963  57.3765047 114.1551973
 133.8884195  57.0595582 110.8015715 132.9379826  57.0597444 110.6880088
 134.1916681  56.3128317 110.2851750 137.7746750  34.9769469 106.9693896
 137.0079146  34.4227955 107.1150578 138.1857455  35.0491337 107.8308047
 139.8377842  66.1970217 110.6304114 140.6299134  65.8561042 110.2150413
 140.0774492  66.3065192 111.5506267 139.4064816  62.5663998 110.5718679
 139.5357197  62.8198477 111.4858091 138.7262267  63.1591706 110.2523334
 138.3534242  60.0386011 110.6169721 137.5633296  60.2943540 110.1409832
 138.8445489  60.8534349 110.7221762 140.3048987  60.4030591 107.5753198
 139.5080150  60.5149285 108.0936694 140.0774579  60.7417243 106.7094089
 136.6371945  60.2916502 113.0484712 136.8879983  61.1763512 113.3142288
 137.1731493  60.1121103 112.2759804 139.3032070  66.1118839 105.9642618
 139.8156590  66.9062090 106.1148183 139.9554783  65.4145130 105.8976220
 140.3979311  61.2749228 117.9227535 140.2832826  60.3734485 118.2234633
 139.5423829  61.5212924 117.5712351 137.2680987  64.4407494 106.7402189
 138.1056209  64.8504502 106.5235896 137.4459254  63.5006936 106.7102383
 137.2907158  61.7798209 107.4112922 137.0931558  61.1867570 106.6863989
 136.7353822  61.4750419 108.1288861 139.7853383  61.3062243 105.0953874
 138.8550971  61.2446698 105.3123836 139.8810855  60.7838196 104.2990516
 139.7038932  57.8317056 107.6832116 139.9645750  58.7462389 107.5741276
 140.5256105  57.3641498 107.8328729 133.8506989  63.4648404 109.5780668
 134.5378029  63.1510134 108.9901683 133.6955117  64.3689769 109.3047919
 138.6541711  58.3538601 114.0065691 138.5699900  57.7464270 113.2716101
 137.8324417  58.8447619 114.0075188 138.8357310  68.9743397 113.1293692
 139.4210747  68.2287085 113.2621596 138.6382149  69.2847354 114.0130355
 133.4274965  61.5448998 111.8498135 133.4659064  61.0112588 112.6435253
 132.9215258  61.0184203 111.2309112 140.8065727  56.3913538 115.3460677
 140.8707054  57.2528369 114.9338075 140.7432847  55.7787540 114.6133035
 140.2818000  58.4636671 118.9933711 140.9090039  58.0813748 119.6071236
 139.4245919  58.2450873 119.3589404 137.0583542  60.2713100 104.9252066
 137.3536984  59.3623778 104.8719120 136.1571578  60.2500839 104.6033068
 138.7871384  57.9527197 105.0491391 138.4584090  57.0724576 104.8666497
 139.1410755  57.8974866 105.9367780 137.2457361  62.9410995 114.0676900
 136.7010829  63.7170803 114.1997174 138.1236711  63.2881800 113.9096021
 138.0323383  62.0680892 116.9607057 137.2905119  62.2163527 117.5471687
 137.7116127  62.3289157 116.0973806 138.4779996  69.9546320 108.9917451
 139.3038016  69.6550092 108.6116095 138.1274048  69.1853943 109.4407240
 136.6788601  67.8732647 109.9506385 135.8420510  67.4454821 109.7690386
 136.6512247  68.0665090 110.8877176 140.7627669  63.8841890 105.5434654
 140.5173711  62.9804220 105.7414864 140.9323584  63.8859040 104.6014132
 140.0323317  59.6170247 103.0420816 139.3392562  59.6914602 102.3860852
 139.7875069  58.8530591 103.5642333 135.9938098  60.9341995 109.7355317
 135.6740882  60.0807303 109.4429691 135.4471526  61.1490573 110.4913284
 139.7718006  63.6504436 113.4524823 139.9904015  64.5821544 113.4712857
 140.1843779  63.2912410 114.2379627 135.8626358  64.5544906 111.7048439
 135.1689829  64.1398859 111.1918393 136.6099349  64.5965443 111.1081857
 137.7763100  64.4863160 109.5814453 137.7533789  64.5850847 108.6296336
 138.0863737  65.3328311 109.9031620 138.7900707  72.0858935 110.7131266
 138.6555175  71.3259336 110.1469264 138.3732769  72.8099835 110.2460055
 136.2784775  59.4478565 116.9624063 136.9243638  58.9377519 117.4511288
 136.0701926  60.1847247 117.5367488 121.8976796  19.5839536  93.3954460
 121.8200825  20.5347361  93.4742941 121.2938439  19.2385408  94.0529386
 124.1715165  14.9421689  92.1160000 124.0360839  15.7873224  92.5444848
 124.7124977  15.1440966  91.3525934 119.4339447  15.5762883  94.7710678
 119.6106075  16.4980848  94.5831662 120.2296280  15.2621302  95.2005058
 120.5570762  17.0941057 100.7721020 121.1078187  16.9658120  99.9998014
 119.7182238  17.3935946 100.4215913 126.7711325  19.0155894  88.5515723
 126.0973024  19.3187591  89.1600680 127.1577147  19.8184975  88.2021180
 123.6817311  16.6334419  95.9477465 123.6393490  16.8595266  95.0185998
 124.5980010  16.3997794  96.0963267 126.6177957  15.8915544 100.0951796
 126.6714979  16.4606480 100.8629512 125.7492738  16.0617429  99.7305833
 124.9702540  19.1835567  90.7662802 125.1454296  18.7123610  91.5808425
 124.2835328  19.8101333  90.9944063 119.5363625  22.3324930  97.5402662
 119.7760224  22.9643454  98.2181681 118.6932822  21.9812970  97.8268021
 124.0491487  18.1404052  99.9444166 123.9761659  18.9459024 100.4563471
 123.6068880  18.3396018  99.1192187 123.8381267  17.3775822  93.4546988
 123.0548789  17.9197502  93.5485212 124.5374012  17.8949802  93.8541229
 126.5090171  18.0390886 102.1002325 127.2218143  18.6738351 102.0278226
 126.0180199  18.1354752 101.2842326 121.5602084  15.7885330 102.9207895
 122.2611544  16.4221813 103.0737290 121.0897199  16.1300061 102.1603535
 126.3210544  18.3789630  94.8488616 126.5032939  17.5611286  95.3116368
 127.1443530  18.5957322  94.4113506 126.6552710  17.3057815  92.1103665
 127.1840476  16.7950270  91.4973827 126.9180929  16.9900346  92.9749198
 117.1569802  15.3221685  99.8538998 117.7423239  14.5765373  99.9866902
 116.9594641  15.6325641 100.7375662 120.0108458  18.3572932  94.8701441
 119.3418833  18.8419060  94.3865481 119.8721327  18.6042152  95.7844819
 124.1513726  20.3916676 101.4684099 124.7032034  20.5548297 102.2333184
 124.4919920  20.9821113 100.7964124 127.2882114  18.3398651  98.4547781
 127.1633253  17.5388391  97.9458727 127.9461205  18.8344844  97.9661751
 124.2979538  17.9575157 103.4832753 124.6066664  17.7124304 104.3555453
 125.0955020  18.1621796 102.9951623 124.3200150  20.1113067  95.7138130
 123.8805140  19.6189445  96.4070987 125.0708267  19.5686034  95.4730205
 116.7992489  16.3024608  95.7162758 117.6250509  16.0028379  95.3361401
 116.4486541  15.5332230  96.1652547 121.7674022  15.6551076  97.7860431
 121.1454031  14.9921781  97.4862659 122.4378889  15.6812208  97.1034079
 115.0001094  14.2210934  96.6751691 114.1633002  13.7933108  96.4935693
 114.9724739  14.4143377  97.6122483 124.8282934  16.7003130  88.7330639
 124.2556901  17.3193317  88.2801111 125.4015728  17.2502491  89.2670561
 128.0480194  16.9840280  89.8639222 128.9810867  16.9185841  90.0672097
 127.9603407  17.8196547  89.4053754 117.1113199  18.4337222  97.4376572
 116.9767667  17.6737623  96.8714570 116.6945262  19.1578122  96.9705361
 120.2682325  19.3306539  97.6495015 120.1514709  20.2751971  97.5473705
 119.4474772  19.0280101  98.0380814 121.2936839  19.9834801 100.8650943
 122.1964086  20.0158411 101.1817438 121.0674209  19.0535252 100.8797279
 123.0490441  18.7365787  97.5261022 122.0986072  18.7367649  97.4125394
 123.3522928  17.9898522  97.0097057 138.7843135  24.5726326  98.5906784
 139.4221545  24.4533073  97.8870124 138.6663978  25.5207170  98.6494737
 135.5932841  24.5253754  98.5268309 135.2551353  24.4094819  97.6388844
 136.4622609  24.1244919  98.5069315 131.4519657  26.3789230  94.5165200
 130.8884522  26.2879167  93.7481488 131.3372052  25.5589135  94.9967693
 136.0752624  25.6788606 104.4854515 136.0641265  25.2841404 103.6135018
 136.2373264  24.9454678 105.0788286 128.9984089  27.8740422  97.3549421
 129.7905381  27.5331247  96.9395720 129.2380739  27.9835397  98.2751574
 137.0319216  30.0460198  89.8279665 136.3807195  30.6314278  89.4413679
 137.8263578  30.5766393  89.8874702 130.9574843  27.1349335  90.2266799
 131.7305719  26.5878322  90.0879675 131.3100242  27.9993584  90.4381261
 132.7959885  28.4625717 103.4333699 132.5049751  29.3671348 103.3180365
 133.4316870  28.5042245 104.1477768 133.7216092  25.8402566 100.0235058
 134.3179664  25.6158588  99.3092021 133.7791064  25.0987311 100.6260506
 133.2941121  23.2942001  87.8585249 133.5466641  22.7723523  87.0968712
 132.3565680  23.1308147  87.9611933 138.3384403  22.2977780  95.6659992
 139.1247493  21.8797203  95.3150409 138.6023108  23.2023872  95.8341641
 138.5094481  27.7350630  90.3648649 137.8740314  27.8085256  91.0769554
 138.1791887  28.3244229  89.6867729 133.0137409  25.1970107  90.0609624
 132.8973667  24.5215011  90.7290708 133.1239669  24.7102481  89.2441777
 135.3568950  24.6580254  93.7656313 134.9927157  24.1310875  94.4769235
 136.2136066  24.2678723  93.5922799 134.9974437  19.6870154  88.7617662
 135.1648840  20.5550390  89.1288133 134.8071606  19.8497436  87.8378951
 137.7549770  28.1487133 100.4283492 137.4550494  29.0512172 100.3199300
 137.4100830  27.8819316 101.2804645 131.2062252  24.6000930  96.4620197
 130.2812748  24.4677144  96.6697888 131.4546665  25.3795149  96.9590139
 134.9763658  22.1427812  89.7464329 134.8563283  22.5884862  90.5849809
 134.2816246  22.4913129  89.1877867 128.5671063  24.2434203  97.2963986
 128.6963444  24.4968682  98.2103398 127.8868514  24.8361911  96.9768641
 132.7370550  34.9131453  93.3954460 132.6594580  35.8639278  93.4742941
 132.1332194  34.5677326  94.0529386 133.4834152  24.8944772 105.6133794
 134.2248837  25.4329816 105.3368618 132.7771138  25.5211061 105.7705346
 138.9589492  27.0373913 104.2105955 139.3672848  26.5956323 103.4660588
 138.2366753  26.4626540 104.4640148 135.3120562  21.9746519 101.5839512
 136.1581757  22.3985933 101.7274161 135.2519200  21.3180144 102.2778075
 139.2818307  27.5975103  97.9658244 138.6527169  27.7620817  97.2634312
 138.8943969  28.0116713  98.7369208 140.4158470  26.1789500 101.9197952
 140.6275365  26.8221260 101.2432333 140.3688218  25.3451817 101.4519882
 134.8346268  27.3349511  95.2308329 135.2984614  27.6137214  94.4412952
 134.5703067  26.4332956  95.0481420 131.7270350  26.8820993  98.1688093
 132.2971707  27.3108261  97.5305577 132.3178461  26.6003578  98.8672278
 133.7715155  23.4572664  92.0397895 134.4739198  23.9093707  92.5071821
 133.4395783  22.8156483  92.6677788 132.2195516  22.0484420 106.4149104
 131.5894177  22.7300701 106.6484501 132.1131604  21.9367502 105.4702242
 127.5140488  21.7156216  97.3415028 126.7239542  21.9713745  96.8655139
 128.0051736  22.5304554  97.4467069 129.4655234  22.0800796  94.2998505
 128.6686397  22.1919490  94.8182000 129.2380826  22.4187448  93.4339395
 135.2960901  28.6045499 102.2481019 135.3605334  29.0665906 103.0839191
 134.5871825  27.9742864 102.3763329 125.7978191  21.9686707  99.7730019
 126.0486230  22.8533717 100.0387595 126.3337740  21.7891308  99.0005111
 135.0108919  30.2713606  92.1160000 134.8754594  31.1165142  92.5444848
 135.5518732  30.4732884  91.3525934 128.4638317  27.7889044  92.6887925
 128.9762837  28.5832295  92.8393489 129.1161029  27.0915335  92.6221526
 130.2733201  30.9054801  94.7710678 130.4499830  31.8272765  94.5831662
 131.0690035  30.5913220  95.2005058 129.5585558  22.9519432 104.6472841
 129.4439073  22.0504690 104.9479940 128.7030076  23.1983129 104.2957658
 136.6377396  30.8937173 106.2460342 136.1941250  30.1073551 105.9281246
 137.2994609  31.0816323 105.5804233 131.3964517  32.4232974 100.7721020
 131.9471942  32.2950038  99.9998014 130.5575993  32.7227863 100.4215913
 138.7358634  31.1739973 104.2741743 138.7177109  31.9948854 103.7822012
 139.6578554  31.0494048 104.4991884 135.1931688  28.6884102 105.1165251
 135.7260025  27.9272390 104.8864559 134.6645769  28.3957754 105.8589406
 126.4287233  26.1177699  93.4647495 127.2662455  26.5274707  93.2481203
 126.6065501  25.1777141  93.4347689 138.3251665  23.7852779  89.1531328
 137.8098289  24.5557384  89.3919716 138.0528974  23.1117915  89.7764390
 138.1137969  21.6579871  90.9791109 137.8088104  21.9726021  91.8301253
 139.0668411  21.7361291  91.0218442 136.5584400  27.8170095  92.6284063
 136.0305762  27.0822854  92.3157301 136.0571903  28.5944771  92.3824032
 131.2903128  18.4789761  94.9890675 131.8646880  18.2564942  94.2563868
 131.8774110  18.5478455  95.7419276 140.3482705  24.3663488  95.7955052
 140.8614587  24.9993480  96.2976761 140.9983929  23.7664683  95.4298412
 131.6172715  20.5094222  89.0086560 130.7810027  20.8468909  89.3295835
 131.4777485  20.3743202  88.0713697 134.7037001  25.6350305  85.6319036
 133.7964062  25.4039558  85.8310185 135.2008033  24.8387924  85.8193018
 137.6105080  34.3447812  88.5515723 136.9366778  34.6479509  89.1600680
 137.9970901  35.1476892  88.2021180 136.8263536  21.8412943  98.0413392
 135.9086098  22.0627890  97.8835080 137.2423680  21.9159254  97.1825099
 137.6098584  23.2404359  93.1716072 138.3570403  23.7525756  92.8623194
 137.8790173  22.9188412  94.0320466 135.8825234  25.7362900  90.1543027
 134.9736453  25.4521933  90.2515496 135.9120318  26.1561978  89.2946333
 141.1144501  29.3469489  93.9234194 140.6606829  28.5060399  93.9799385
 140.4838468  29.9830888  94.2608974 139.5577441  31.1845986  94.8584012
 139.8500415  31.7451043  94.1396378 140.0676061  31.4774547  95.6137171
 126.4513404  23.4568414  94.1358229 126.2537804  22.8637775  93.4109295
 125.8960068  23.1520624  94.8534168 134.4310128  23.3491520  96.2552822
 134.4858738  22.3965357  96.1795299 133.6201330  23.5050959  96.7394120
 135.5801322  27.2771643  87.4931105 135.1420752  26.5607502  87.0336742
 136.3211763  27.5047758  86.9316197 132.3702488  21.9668580  94.0143201
 131.5570354  22.2662751  94.4208393 132.8661482  21.5724269  94.7317683
 134.5211066  31.9626337  95.9477465 134.4787245  32.1887183  95.0185998
 135.4373765  31.7289712  96.0963267 131.8616563  19.5386936  99.6304436
 132.5015942  19.3975695  98.9327399 131.0294093  19.2521449  99.2543038
 132.6376867  28.8389366  95.7439428 133.4317465  28.3439686  95.5422003
 131.9268559  28.3107229  95.3807134 137.4571711  31.2207462 100.0951796
 137.5108733  31.7898398 100.8629512 136.5886493  31.3909347  99.7305833
 128.9459630  22.9832448  91.8199181 128.0157218  22.9216903  92.0369143
 129.0417102  22.4608401  91.0235822 128.8645179  19.5087261  94.4077423
 129.1251997  20.4232594  94.2986583 129.6862352  19.0411703  94.5574035
 130.3370105  20.9225018 101.5776247 131.0093158  20.7142380 100.9288896
 129.5099891  20.7247104 101.1381479 136.4159811  25.3867724 101.6538728
 137.3451871  25.5378883 101.4807695 135.9950841  25.4751744 100.7987374
 135.2148143  29.4118388  99.4237265 135.0759228  29.0437172 100.2963203
 134.4262739  29.9266027  99.2521223 135.8096295  34.5127485  90.7662802
 135.9848050  34.0415528  91.5808425 135.1229083  35.1393251  90.9944063
 136.7653358  28.7899991  96.8126103 136.4303190  28.7500761  97.7083753
 136.2657304  28.1244707  96.3396513 130.7397602  24.1967621 102.3378684
 130.6017400  23.4647860 102.9390223 131.6502525  24.1076521 102.0562872
 139.7012549  26.1356025  87.0863163 139.0841720  25.4102853  86.9896215
 139.2329038  26.8965385  86.7430237 133.3679902  23.9087580 101.8262364
 134.0779521  23.2680772 101.7848982 133.3249211  24.1600475 102.7488545
 132.0808836  20.8952798 103.6458003 131.5446193  20.4443536 104.2979600
 131.4925545  21.0298707 102.9028468 130.3757380  37.6616847  97.5402662
 130.6153978  38.2935371  98.2181681 129.5326576  37.3104887  97.8268021
 131.4911095  20.3541449  86.2084467 130.6140562  20.2330250  85.8446714
 131.9668848  19.5627528  85.9563356 123.0113236  25.1418609  96.3025974
 123.6984275  24.8280339  95.7146989 122.8561364  26.0459974  96.0293226
 127.8147958  20.0308806 100.7310998 127.7306146  19.4234475  99.9961408
 126.9930664  20.5217824 100.7320494 134.8885242  33.4695970  99.9444166
 134.8155413  34.2750941 100.4563471 134.4462635  33.6687936  99.1192187
 134.6775021  32.7067740  93.4546988 133.8942543  33.2489420  93.5485212
 135.3767767  33.2241719  93.8541229 137.3483925  33.3682804 102.1002325
 138.0611898  34.0030269 102.0278226 136.8573954  33.4646670 101.2842326
 139.0701452  27.2734056  93.6719616 138.1357731  27.3935519  93.5024321
 139.2478121  26.3706523  93.4079626 134.5706640  20.6579752  95.8252878
 134.2004428  20.1050793  96.5133783 135.0665733  20.0537886  95.2727878
 132.3995839  31.1177247 102.9207895 133.1005298  31.7513730 103.0737290
 131.9290954  31.4591979 102.1603535 140.5250235  29.4595197  91.2055802
 140.8010079  29.3451792  92.1149677 139.6554733  29.0612682  91.1667976
 140.1997125  23.6721855 100.7460446 139.5468575  23.9197762 100.0912899
 140.5777505  22.8585993 100.4122923 137.1604299  33.7081548  94.8488616
 137.3426693  32.8903204  95.3116368 137.9837285  33.9249240  94.4113506
 137.4946464  32.6349733  92.1103665 138.0234231  32.1242188  91.4973827
 137.7574684  32.3192263  92.9749198 127.9963557  30.6513602  99.8538998
 128.5816994  29.9057290  99.9866902 127.7988395  30.9617559 100.7375662
 130.8502212  33.6864850  94.8701441 130.1812587  34.1710977  94.3865481
 130.7115082  33.9334070  95.7844819 122.5881212  23.2219203  98.5743441
 122.6265311  22.6882793  99.3680559 122.0821504  22.6954408  97.9554418
 134.9907481  35.7208593 101.4684099 135.5425789  35.8840215 102.2333184
 135.3313674  36.3113031 100.7964124 129.9671974  18.0683743 102.0705984
 130.0313300  18.9298574 101.6583381 129.9039094  17.4557745 101.3378342
 129.4424246  20.1406876 105.7179018 130.0696285  19.7583953 106.3316542
 128.5852165  19.9221077 106.0834710 126.2189789  21.9483305  91.6497373
 126.5143230  21.0393983  91.5964426 125.3177825  21.9271044  91.3278375
 138.1275868  33.6690569  98.4547781 138.0027007  32.8680309  97.9458727
 138.7854959  34.1636762  97.9661751 129.7484036  20.0239301  97.6324921
 129.0270622  20.6375269  97.4932395 130.5377292  20.5597066  97.5541567
 140.1910776  31.4699589 100.0827331 139.2441112  31.3504940 100.0105658
 140.5393550  30.5822087 100.1653593 127.9477631  19.6297402  91.7736698
 127.6190337  18.7494781  91.5911804 128.3017002  19.5745071  92.6613087
 137.1957210  31.2652305  96.2831683 137.0482172  30.3369012  96.4639253
 138.0210703  31.2872396  95.7988759 131.0619454  19.9170372  92.1412176
 131.4015526  20.4456293  91.4190784 131.5091574  20.2550778  92.9170742
 133.0487601  18.4144994  90.3405468 133.7695964  18.7926246  89.8369185
 132.4252905  19.1333871  90.4440446 131.9317945  22.0775856  97.8534545
 131.7862526  22.3916159  98.7458827 131.4543149  22.6960756  97.3005444
 135.6440459  19.5015744  99.9468562 135.3858237  20.4232815  99.9452893
 135.1125499  19.1046179 100.6369026 140.5886648  32.6066531  92.7258648
 140.7623525  32.0412954  91.9732500 141.0815539  33.4067426  92.5438138
 126.4063608  24.6181200 100.7922206 125.8617076  25.3941008 100.9242481
 127.2842957  24.9652005 100.6341328 127.1929629  23.7451097 103.6852363
 126.4511365  23.8933732 104.2716994 126.8722374  24.0059362 102.8219113
 135.1373292  33.2867075 103.4832753 135.4460418  33.0416222 104.3555453
 135.9348774  33.4913713 102.9951623 135.1593904  35.4404984  95.7138130
 134.7198894  34.9481363  96.4070987 135.9102021  34.8977952  95.4730205
 127.6386243  31.6316525  95.7162758 128.4644263  31.3320297  95.3361401
 127.2880295  30.8624148  96.1652547 132.6067776  30.9842994  97.7860431
 131.9847786  30.3213699  97.4862659 133.2772643  31.0104125  97.1034079
 125.8394848  29.5502852  96.6751691 125.0026756  29.1225026  96.4935693
 125.8118494  29.7435295  97.6122483 132.1681283  29.5346917  91.2618892
 132.3169404  30.2182381  90.6085565 132.9747727  29.5152007  91.7768348
 129.9233916  25.5612094  92.2679961 129.6779958  24.6574424  92.4660171
 130.0929831  25.5629245  91.3259439 129.1929564  21.2940452  89.7666122
 128.4998809  21.3684807  89.1106158 128.9481316  20.5300796  90.2887639
 135.6676689  32.0295047  88.7330639 135.0950656  32.6485234  88.2801111
 136.2409482  32.5794409  89.2670561 138.8873948  32.3132197  89.8639222
 139.8204622  32.2477759  90.0672097 138.7997161  33.1488464  89.4053754
 136.0523487  23.3655860  86.0746692 136.9982592  23.2362068  86.1435110
 135.6737732  22.6270522  86.5516120 134.2366404  21.2905836  86.0101577
 133.3297860  20.9938949  86.0864291 134.5142385  20.9935655  85.1435863
 125.1544345  22.6112200  96.4600624 124.8347129  21.7577508  96.1674998
 124.6077773  22.8260778  97.2158591 128.9324252  25.3274641 100.1770130
 129.1510262  26.2591749 100.1958164 129.3450026  24.9682615 100.9624934
 125.0232605  26.2315111  98.4293745 124.3296076  25.8169064  97.9163700
 125.7705596  26.2735648  97.8327164 126.9369347  26.1633365  96.3059760
 126.9140035  26.2621052  95.3541643 127.2469984  27.0098516  96.6276926
 129.5956725  28.2209520 100.4206374 130.5499979  28.1893462 100.3536306
 129.3969249  27.7600144 101.2356600 130.1856107  26.7910636 102.9877172
 131.0048996  27.2854715 103.0112009 130.4592915  25.8742604 102.9594740
 127.9506954  33.7629140  97.4376572 127.8161422  33.0029541  96.8714570
 127.5339016  34.4870039  96.9705361 139.0865917  28.9466063  86.4453148
 139.7901767  29.1516066  87.0610803 138.3628566  29.5142825  86.7102231
 139.9163727  24.6975924  92.5655418 139.8598929  25.1544476  91.7263050
 140.4692070  23.9366609  92.3878261 131.1076080  34.6598457  97.6495015
 130.9908464  35.6043889  97.5473705 130.2868526  34.3572018  98.0380814
 140.6498507  25.8880706  89.8607947 140.5947310  25.7224977  88.9196391
 140.0244562  26.5956739  90.0170137 125.4391021  21.1248770 103.6869369
 126.0849885  20.6147724 104.1756594 125.2308173  21.8617452 104.2612794
 132.1330594  35.3126719 100.8650943 133.0357841  35.3450329 101.1817438
 131.9067964  34.3827170 100.8797279 133.8884196  34.0657705  97.5261022
 132.9379827  34.0659567  97.4125394 134.1916682  33.3190440  97.0097057
 139.8377843  43.2032340  97.3549421 140.6299135  42.8623164  96.9395720
 140.0774493  43.3127315  98.2751574 139.4064817  39.5726121  97.2963986
 139.5357199  39.8260600  98.2103398 138.7262269  40.1653829  96.9768641
 138.3534243  37.0448134  97.3415028 137.5633297  37.3005663  96.8655139
 138.8445490  37.8596472  97.4467069 140.3048988  37.4092713  94.2998505
 139.5080152  37.5211407  94.8182000 140.0774581  37.7479365  93.4339395
 136.6371946  37.2978624  99.7730019 136.8879984  38.1825634 100.0387595
 137.1731494  37.1183226  99.0005111 139.3032071  43.1180962  92.6887925
 139.8156592  43.9124212  92.8393489 139.9554784  42.4207252  92.6221526
 140.3979312  38.2811350 104.6472841 140.2832827  37.3796607 104.9479940
 139.5423830  38.5275047 104.2957658 137.2680988  41.4469616  93.4647495
 138.1056210  41.8566625  93.2481203 137.4459256  40.5069058  93.4347689
 137.2907159  38.7860332  94.1358229 137.0931559  38.1929692  93.4109295
 136.7353823  38.4812542  94.8534168 139.7853385  38.3124365  91.8199181
 138.8550973  38.2508821  92.0369143 139.8810857  37.7900318  91.0235822
 139.7038934  34.8379178  94.4077423 139.9645751  35.7524512  94.2986583
 140.5256106  34.3703621  94.5574035 133.8506990  40.4710527  96.3025974
 134.5378030  40.1572257  95.7146989 133.6955119  41.3751891  96.0293226
 138.6541712  35.3600723 100.7310998 138.5699901  34.7526393  99.9961408
 137.8324419  35.8509742 100.7320494 138.8357311  45.9805520  99.8538998
 139.4210748  45.2349208  99.9866902 138.6382150  46.2909477 100.7375662
 133.4274966  38.5511120  98.5743441 133.4659066  38.0174711  99.3680559
 132.9215259  38.0246326  97.9554418 140.8065728  33.3975661 102.0705984
 140.8707055  34.2590492 101.6583381 140.7432849  32.7849662 101.3378342
 140.2818001  35.4698793 105.7179018 140.9090040  35.0875871 106.3316542
 139.4245920  35.2512995 106.0834710 137.0583544  37.2775222  91.6497373
 137.3536985  36.3685901  91.5964426 136.1571579  37.2562962  91.3278375
 138.7871385  34.9589320  91.7736698 138.4584091  34.0786699  91.5911804
 139.1410756  34.9036989  92.6613087 137.2457362  39.9473118 100.7922206
 136.7010830  40.7232926 100.9242481 138.1236712  40.2943922 100.6341328
 138.0323384  39.0743014 103.6852363 137.2905120  39.2225650 104.2716994
 137.7116128  39.3351280 102.8219113 138.4779998  46.9608443  95.7162758
 139.3038017  46.6612215  95.3361401 138.1274050  46.1916065  96.1652547
 136.6788603  44.8794769  96.6751691 135.8420511  44.4516944  96.4935693
 136.6512248  45.0727213  97.6122483 140.7627671  40.8904012  92.2679961
 140.5173713  39.9866342  92.4660171 140.9323585  40.8921163  91.3259439
 140.0323318  36.6232370  89.7666122 139.3392563  36.6976725  89.1106158
 139.7875070  35.8592713  90.2887639 135.9938099  37.9404118  96.4600624
 135.6740884  37.0869426  96.1674998 135.4471527  38.1552696  97.2158591
 139.7718007  40.6566559 100.1770130 139.9904017  41.5883666 100.1958164
 140.1843781  40.2974533 100.9624934 135.8626359  41.5607029  98.4293745
 135.1689831  41.1460982  97.9163700 136.6099350  41.6027566  97.8327164
 137.7763102  41.4925283  96.3059760 137.7533790  41.5912970  95.3541643
 138.0863738  42.3390434  96.6276926 138.7900708  49.0921057  97.4376572
 138.6555176  48.3321458  96.8714570 138.3732771  49.8161957  96.9705361
 136.2784776  36.4540688 103.6869369 136.9243640  35.9439642 104.1756594
 136.0701927  37.1909369 104.2612794 138.8357313  22.9867643  86.5784305
 139.4210749  22.2411330  86.7112209 138.6382151  23.2971599  87.4620969
 138.4779999  23.9670566  82.4408065 139.3038019  23.6674337  82.0606708
 138.1274051  23.1978188  82.8897853 136.6788604  21.8856892  83.3996998
 135.8420512  21.4579066  83.2180999 136.6512249  22.0789335  84.3367789
 138.7900710  26.0983180  84.1621879 138.6555178  25.3383581  83.5959877
 138.3732772  26.8224080  83.6950668  57.4184833  76.9463718 154.2358713
  57.6710354  76.4245239 153.4742176  56.4809392  76.7829863 154.3385397
  62.4495378  77.4374496 155.5304792  61.9342001  78.2079100 155.7693179
  62.1772686  76.7639632 156.1537853  58.8280713  79.2872021 152.0092500
  57.9207775  79.0561275 152.2083649  59.3251745  78.4909640 152.1966482
  59.7045034  80.9293360 153.8704569  59.2664464  80.2129219 153.4110206
  60.4455475  81.1569475 153.3089660  63.8256262  79.7877741 153.4636626
  63.2085432  79.0624570 153.3669679  63.3572750  80.5487102 153.1203701
  60.1767199  77.0177576 152.4520156  61.1226304  76.8883784 152.5208574
  59.7981444  76.2792238 152.9289584  58.3610117  74.9427553 152.3875041
  57.4541572  74.6460665 152.4637754  58.6386098  74.6457371 151.5209327
  61.1562929  60.7044037 142.9298435  60.5050909  61.2898117 142.5432449
  61.9507292  61.2350232 142.9893473  57.4184834  53.9525840 140.9604020
  57.6710355  53.4307361 140.1987483  56.4809393  53.7891986 141.0630703
  62.6338194  58.3934469 143.4667420  61.9984027  58.4669095 144.1788324
  62.3035601  58.9828068 142.7886499  56.8614264  65.5715292 146.4973230
  56.7838293  66.5223117 146.5761711  56.2575907  65.2261165 147.1548157
  64.7992438  53.2733124 143.6763433  65.7110294  53.5060510 143.5011131
  64.2902085  53.8570168 143.1138512  67.2851252  59.1913380 148.4221378
  66.6002290  59.5712281 147.8718412  67.3695101  59.8008707 149.1553326
  59.1352633  60.9297445 145.2178770  58.9998307  61.7748981 145.6463618
  59.6762445  61.1316723 144.4544704  62.4495379  54.4436618 142.2550099
  61.9342002  55.2141223 142.4938486  62.1772687  53.7701754 142.8783160
  67.4229653  57.1968973 144.1903272  66.6459096  56.8580132 143.7458434
  68.1021134  57.2021596 143.5158237  58.8280714  56.2934144 138.7337807
  57.9207776  56.0623397 138.9328956  59.3251746  55.4971763 138.9211788
  61.7348793  65.0031651 141.6534493  61.0610492  65.3063348 142.2619451
  62.1214615  65.8060731 141.3039950  60.0068948  56.3946739 143.2561797
  59.0980167  56.1105772 143.3534267  60.0364031  56.8145817 142.3965104
  65.2388215  60.0053328 147.0252965  64.7850542  59.1644238 147.0818155
  64.6082182  60.6414727 147.3627745  63.6821154  61.8429825 147.9602783
  63.9744129  62.4034882 147.2415148  64.1919775  62.1358386 148.7155942
  59.7045035  57.9355482 140.5949876  59.2664465  57.2191341 140.1355513
  60.4455476  58.1631597 140.0334967  67.8218150  56.2112679 146.6526194
  67.6836049  56.4014275 145.7247383  67.4654369  56.9732062 147.1094245
  59.9340008  65.1711323 143.8681572  60.1091764  64.6999367 144.6827195
  59.2472796  65.7977090 144.0962833  63.8256263  56.7939864 140.1881933
  63.2085434  56.0686692 140.0914986  63.3572751  57.5549224 139.8449007
  58.8018735  63.3651579 146.5565758  58.0186257  63.9073259 146.6503982
  59.5011480  63.8825558 146.9559999  64.6493948  60.1179036 144.3074573
  64.9253792  60.0035631 145.2168447  63.7798447  59.7196521 144.2686746
  61.2848012  64.3665387 147.9507386  61.4670407  63.5487043 148.4135139
  62.1080998  64.5833079 147.5132276  61.6190178  63.2933572 145.2122435
  62.1477944  62.7826026 144.5992597  61.8818397  62.9776102 146.0767968
  64.7130361  63.2650370 145.8277418  64.8867239  62.6996793 145.0751270
  65.2059253  64.0651265 145.6456908  70.5669752  56.0286793 147.4467718
  71.0100898  55.2794118 147.0486841  69.6896263  56.0196929 147.0641450
  65.7005534  62.5817135 142.9274316  66.3956438  63.2023827 143.1461631
  66.0428684  61.7312486 143.2026694  67.5996957  60.0316840 144.4561647
  68.1248281  60.3704113 143.7310967  67.5119309  59.0963855 144.2724782
  56.2924997  60.1930756 144.3637662  56.4413117  60.8766220 143.7104335
  57.0991440  60.1735846 144.8787118  59.7920402  62.6878886 141.8349410
  59.2194369  63.3069073 141.3819882  60.3653196  63.2378248 142.3689332
  63.0117662  62.9716036 142.9657992  63.9448335  62.9061598 143.1690868
  62.9240875  63.8072303 142.5072525  65.6405679  62.2881907 139.9261940
  65.5619310  61.9541770 140.8197698  66.4615345  62.7803675 139.9253412
  60.1767201  54.0239699 139.1765462  61.1226305  53.8945907 139.2453880
  59.7981446  53.2854361 139.6534890  58.3610118  51.9489675 139.1120348
  57.4541573  51.6522788 139.1883061  58.6386099  51.6519493 138.2454634
  63.2109630  59.6049902 139.5471918  63.9145481  59.8099905 140.1629574
  62.4872279  60.1726664 139.8121001  65.1196328  60.0432431 141.5970378
  65.9541932  59.6113630 141.4147853  64.9580671  59.8714445 142.5247273
  64.7742220  56.5464545 142.9626717  64.7191024  56.3808816 142.0215161
  64.1488275  57.2540577 143.1188907  73.7480603  70.5602082 151.6925555
  74.3859013  70.4408830 150.9888895  73.6301446  71.5082926 151.7513507
  70.5570309  70.5129511 151.6287079  70.2188821  70.3970575 150.7407614
  71.4260077  70.1120676 151.6088086  66.4157125  72.3664987 147.6183970
  65.8521990  72.2754924 146.8500258  66.3009520  71.5464891 148.0986463
  63.9621557  73.8616179 150.4568191  64.7542849  73.5207003 150.0414490
  64.2018207  73.9711154 151.3770344  71.9956684  76.0335955 142.9298435
  71.3444663  76.6190035 142.5432449  72.7901046  76.5642150 142.9893473
  65.9212311  73.1225092 143.3285570  66.6943187  72.5754079 143.1898445
  66.2737710  73.9869341 143.5400031  68.6853560  71.8278323 153.1253829
  69.2817132  71.6034345 152.4110792  68.7428532  71.0863068 153.7279276
  68.2578589  69.2817758 140.9604020  68.5104109  68.7599279 140.1987483
  67.3203148  69.1183903 141.0630703  73.3021871  68.2853536 148.7678763
  74.0884961  67.8672959 148.4169180  73.5660576  69.1899628 148.9360411
  73.4731949  73.7226387 143.4667420  72.8377782  73.7961013 144.1788324
  73.1429355  74.3119985 142.7886499  78.7030299  68.2228769 149.6711741
  79.4355471  67.6527986 149.9049571  77.9469654  67.8350370 150.1118247
  67.9774877  71.1845864 143.1628395  67.8611135  70.5090767 143.8309479
  68.0877137  70.6978238 142.3460548  70.3206418  70.6456011 146.8675084
  69.9564626  70.1186632 147.5788005  71.1773534  70.2554480 146.6941569
  69.9611905  65.6745911 141.8636432  70.1286308  66.5426147 142.2306903
  69.7709074  65.8373192 140.9397722  66.1699720  70.5876686 149.5638967
  65.2450216  70.4552900 149.7716659  66.4184133  71.3670906 150.0608909
  76.1184382  66.6545430 151.2099700  75.2101260  66.5860838 150.9158461
  76.0671978  67.1317375 152.0381525  69.9401126  68.1303568 142.8483099
  69.8200751  68.5760619 143.6868579  69.2453715  68.4788886 142.2896637
  63.5308531  70.2309960 150.3982756  63.6600912  70.4844439 151.3122168
  62.8505982  70.8237668 150.0787411  67.7008018  80.9007210 146.4973230
  67.6232048  81.8515035 146.5761711  67.0969662  80.5553082 147.1548157
  77.9846029  64.8561868 152.9877574  77.3420409  65.1494401 152.3417368
  77.4800957  64.7414788 153.7930771  75.6386192  68.6025041 143.6763433
  76.5504048  68.8352428 143.5011131  75.1295839  69.1862086 143.1138512
  74.2455775  73.5850860 151.0677015  73.6164637  73.7496574 150.3653082
  73.8581437  73.9992469 151.8387979  78.1245007  74.5205298 148.4221378
  77.4396045  74.9004199 147.8718412  78.2088856  75.1300624 149.1553326
  72.9822167  64.7783077 151.9253294  72.1206646  65.0764331 152.2170032
  73.0084602  64.9953476 150.9934327  69.7983736  73.3225268 148.3327100
  70.2622082  73.6012971 147.5431722  69.5340535  72.4208712 148.1500190
  66.6907818  72.8696749 151.2706863  67.2609175  73.2984018 150.6324347
  67.2815929  72.5879334 151.9691049  68.7352623  69.4448420 145.1416665
  69.4376666  69.8969464 145.6090591  68.4033251  68.8032239 145.7696558
  62.4777957  67.7031973 150.4433798  61.6877010  67.9589501 149.9673909
  62.9689204  68.5180311 150.5485839  64.4292702  68.0676552 147.4017275
  63.6323865  68.1795246 147.9200771  64.2018294  68.4063204 146.5358166
  84.5847759  71.3875961 149.5424051  83.8311468  70.8183359 149.3868055
  84.7195300  71.3538625 150.4894685  69.9746387  76.2589363 145.2178770
  69.8392062  77.1040899 145.6463618  70.5156200  76.4608640 144.4544704
  63.4275785  73.7764801 145.7906695  63.9400305  74.5708051 145.9412260
  64.0798497  73.0791091 145.7240297  65.2370669  76.8930557 147.8729448
  65.4137298  77.8148522 147.6850432  66.0327503  76.5788976 148.3023828
  66.3601985  78.4108731 153.8739791  66.9109410  78.2825794 153.1016785
  65.5213461  78.7103620 153.5234683  61.3924701  72.1053455 146.5666266
  62.2299923  72.5150464 146.3499973  61.5702969  71.1652897 146.5366460
  73.2889133  69.7728536 142.2550099  72.7735757  70.5433140 142.4938486
  73.0166442  69.0993672 142.8783160  70.8736244  64.6178237 147.3135337
  70.0177841  64.2285087 147.1340976  71.2863196  64.6970197 146.4535123
  72.4035391  62.1524580 151.7126897  71.9000187  62.1154715 150.8994702
  72.6965998  63.0617323 151.7723553  78.2623408  72.5260890 144.1903272
  77.4852850  72.1872050 143.7458434  78.9414889  72.5313514 143.5158237
  73.0775437  67.6455628 144.0809880  72.7725572  67.9601777 144.9320023
  74.0305879  67.7237048 144.1237213  71.5221868  73.8045851 145.7302834
  70.9943230  73.0698611 145.4176071  71.0209371  74.5820528 145.4842802
  76.5014714  71.9994872 150.8469880  75.8438389  72.6894133 150.9350009
  77.3055114  72.3891304 151.1903866  66.2540596  64.4665518 148.0909445
  66.8284348  64.2440699 147.3582638  66.8411579  64.5354212 148.8438047
  75.3120173  70.3539244 148.8973822  75.8252055  70.9869236 149.3995532
  75.9621397  69.7540440 148.5317182  66.5810183  66.4969979 142.1105331
  65.7447495  66.8344665 142.4314605  66.4414953  66.3618958 141.1732468
  68.5563264  61.3406766 146.8184515  67.9027676  61.0255784 146.1941130
  68.5143738  60.7182507 147.5444338  69.6674469  71.6226062 138.7337807
  68.7601530  71.3915315 138.9328956  70.1645501  70.8263681 138.9211788
  72.5742548  80.3323569 141.6534493  71.9004246  80.6355265 142.2619451
  72.9608370  81.1352649 141.3039950  71.7901004  67.8288700 151.1432162
  70.8723566  68.0503647 150.9853850  72.2061148  67.9035010 150.2843870
  72.5736052  69.2280116 146.2734843  73.3207871  69.7401513 145.9641965
  72.8427641  68.9064168 147.1339236  70.8462702  71.7238656 143.2561797
  69.9373921  71.4397689 143.3534267  70.8757786  72.1437735 142.3965104
  76.0781970  75.3345246 147.0252965  75.6244297  74.4936156 147.0818155
  75.4475936  75.9706644 147.3627745  75.0214889  66.2637232 148.2553632
  74.2837646  65.7514618 148.5863875  75.2741663  65.8237614 147.4436909
  74.5214909  77.1721743 147.9602783  74.8137883  77.7326800 147.2415148
  75.0313529  77.4650304 148.7155942  75.1226516  59.0413484 148.8495401
  75.4285393  58.1810847 148.5621316  75.8479121  59.6331104 148.6494395
  61.4150872  69.4444171 147.2376999  61.2175272  68.8513531 146.5128066
  60.8597536  69.1396381 147.9552938  69.3947596  69.3367277 149.3571592
  69.4496206  68.3841113 149.2814069  68.5838798  69.4926716 149.8412891
  70.5438790  73.2647400 140.5949876  70.1058220  72.5483259 140.1355513
  71.2849231  73.4923515 140.0334967  67.3339956  67.9544337 147.1161971
  66.5207822  68.2538507 147.5227163  67.8298950  67.5600025 147.8336453
  69.4848534  77.9502094 149.0496236  69.4424713  78.1762940 148.1204768
  70.4011233  77.7165468 149.1982037  78.6611905  71.5404597 146.6526194
  78.5229803  71.7306193 145.7247383  78.3048123  72.3023980 147.1094245
  67.6014335  74.8265123 148.8458199  68.3954933  74.3315443 148.6440774
  66.8906027  74.2982986 148.4825904  63.9097098  68.9708204 144.9217951
  62.9794686  68.9092660 145.1387913  64.0054570  68.4484157 144.1254593
  63.8282647  65.4963017 147.5096193  64.0889465  66.4108350 147.4005353
  64.6499820  65.0287460 147.6592806  71.3797279  71.3743480 154.7557498
  72.3089339  71.5254640 154.5826465  70.9588309  71.4627501 153.9006145
  70.1785611  75.3994145 152.5256036  70.0396696  75.0312929 153.3981974
  69.3900207  75.9141784 152.3539993  70.7733763  80.5003241 143.8681572
  70.9485518  80.0291284 144.6827195  70.0866551  81.1269007 144.0962833
  71.7290826  74.7775747 149.9144873  71.3940658  74.7376517 150.8102523
  71.2294772  74.1120463 149.4415284  74.6650018  72.1231782 140.1881933
  74.0479188  71.3978610 140.0914986  74.1966506  72.8841142 139.8449007
  66.4548563  66.3417206 139.3103237  65.5778030  66.2206007 138.9465484
  66.9306316  65.5503284 139.0582126  57.9750704  71.1294366 149.4044745
  58.6621743  70.8156096 148.8165760  57.8198832  72.0335730 149.1311996
  69.6412489  78.6943496 146.5565758  68.8580011  79.2365177 146.6503982
  70.3405235  79.2117476 146.9559999  72.9509140  64.5038126 149.1999963
  73.4477839  63.7508088 148.8801034  72.1796121  64.5402442 148.6343173
  80.8038897  70.2078491 150.8418255  80.7928773  71.0903207 150.4712188
  79.9356276  69.8550042 150.6472792  74.0338920  73.2609813 146.7738387
  73.0995199  73.3811276 146.6043091  74.2115589  72.3582280 146.5098397
  69.5344108  66.6455509 148.9271648  69.1641896  66.0926549 149.6152553
  70.0303201  66.0413642 148.3746648  77.4211472  69.1027132 147.3088421
  77.8871924  69.9355124 147.2348723  77.8718972  68.6372114 148.0133679
  75.4887703  75.4470954 144.3074573  75.7647547  75.3327548 145.2168447
  74.6192201  75.0488438 144.2686746  75.3928134  61.4707719 151.3479322
  74.4791214  61.7011946 151.5161529  75.8221236  61.5546163 152.1993355
  75.1634593  69.6597611 153.8479216  74.5106043  69.9073519 153.1931669
  75.5414973  68.8461749 153.5141693  72.1241767  79.6957304 147.9507386
  72.3064161  78.8778960 148.4135139  72.9474753  79.9124997 147.5132276
  72.4583932  78.6225490 145.2122435  72.9871699  78.1117944 144.5992597
  72.7212152  78.3068020 146.0767968  62.9601025  76.6389359 152.9557769
  63.5454462  75.8933047 153.0885673  62.7625863  76.9493316 153.8394432
  65.8139680  79.6740606 147.9720211  65.1450055  80.1586734 147.4884251
  65.6752550  79.9209827 148.8863589  61.1827257  67.9359061 144.7516143
  61.4780698  67.0269740 144.6983197  60.2815293  67.9146801 144.4297145
  64.7121504  66.0115058 150.7343692  63.9908090  66.6251026 150.5951165
  65.5014760  66.5472823 150.6560338  62.9115099  65.6173159 144.8755468
  62.5827805  64.7370538 144.6930574  63.2654470  65.5620828 145.7631857
  72.1594678  77.2528062 149.3850454  72.0119640  76.3244769 149.5658024
  72.9848171  77.2748152 148.9007529  66.0256922  65.9046129 145.2430946
  66.3652995  66.4332050 144.5209554  66.4729042  66.2426535 146.0189512
  68.0125069  64.4020750 143.4424239  68.7333432  64.7802003 142.9387955
  67.3890373  65.1209627 143.5459217  72.1556192  65.1065899 144.3782571
  72.3719806  65.9890537 144.0771399  71.6750259  64.7152113 143.6488213
  66.8955413  68.0651612 150.9553316  66.7499994  68.3791916 151.8477597
  66.4180617  68.6836513 150.4024214  68.7551796  65.0554160 151.0034205
  68.7413365  64.1595254 150.6666503  69.4724224  65.0624824 151.6372491
  75.5524116  78.5942288 145.8277418  75.7260993  78.0288710 145.0751270
  76.0453007  79.3943183 145.6456908  68.1588692  63.9368541 146.2721775
  68.2804603  63.0085187 146.4712663  67.8690735  63.9507227 145.3600091
  71.0279883  61.6223451 149.4088495  71.0501579  61.6862784 148.4540475
  71.4447942  60.7827960 149.6029001  81.4063507  71.3578711 147.4467718
  81.8494653  70.6086036 147.0486841  80.5290017  71.3488847 147.0641450
  76.5399288  77.9109052 142.9274316  77.2350193  78.5315745 143.1461631
  76.8822438  77.0604403 143.2026694  78.4390711  75.3608758 144.4561647
  78.9642035  75.6996030 143.7310967  78.3513064  74.4255773 144.2724782
  70.1231372  81.4280741 148.8156900  69.6836362  80.9357120 149.5089757
  70.8739489  80.8853709 148.5748975  62.6023711  77.6192282 148.8181528
  63.4281731  77.3196054 148.4380172  62.2517763  76.8499904 149.2671317
  67.5705244  76.9718750 150.8879202  66.9485254  76.3089455 150.5881430
  68.2410111  76.9979882 150.2052850  60.8032316  75.5378608 149.7770462
  59.9664224  75.1100783 149.5954463  60.7755962  75.7311052 150.7141253
  67.1318751  75.5222673 144.3637662  67.2806872  76.2058138 143.7104335
  67.9385195  75.5027763 144.8787118  80.9496372  72.8283949 149.8390165
  81.7843263  73.2673753 150.0027726  81.0855500  72.3522602 149.0198411
  64.8871384  71.5487851 145.3698731  64.6417426  70.6450181 145.5678941
  65.0567299  71.5505002 144.4278209  64.1567032  67.2816209 142.8684893
  63.4636277  67.3560564 142.2124929  63.9118784  66.5176552 143.3906410
  70.6314157  78.0170804 141.8349410  70.0588124  78.6360991 141.3819882
  71.2046950  78.5670166 142.3689332  76.6989547  67.2629444 154.0195959
  77.6506969  67.3627542 154.0408183  76.5292997  66.4707713 154.5294043
  74.7203926  64.3485027 154.2055360  74.1253858  64.6290040 153.5101848
  74.4353623  64.8378928 154.9772101  73.8511416  78.3007954 142.9657992
  74.7842090  78.2353516 143.1690868  73.7634629  79.1364221 142.5072525
  76.4799433  77.6173824 139.9261940  76.4013065  77.2833688 140.8197698
  77.3009100  78.1095592 139.9253412  79.1777624  70.4835564 153.1338258
  79.1453944  69.5451564 153.3197942  79.7878248  70.5619600 152.4004083
  71.0160955  69.3531617 139.1765462  71.9620060  69.2237825 139.2453880
  70.6375200  68.6146279 139.6534890  79.3272113  67.2746607 153.1796541
  78.8111161  66.4905064 152.9926470  80.2112061  66.9465324 153.3443061
  76.9882840  61.0187623 149.1392354  76.7907661  60.7102711 150.0235686
  77.5982545  61.7449262 149.2690284  69.2003872  67.2781593 139.1120348
  68.2935328  66.9814706 139.1883061  69.4779853  66.9811411 138.2454634
  60.1181813  68.5987956 149.5619394  59.7984597  67.7453265 149.2693768
  59.5715241  68.8136535 150.3177361  63.8961720  71.3150397 153.2788900
  64.1147730  72.2467505 153.2976934  64.3087494  70.9558372 154.0643704
  70.8165938  61.8218483 145.2664589  70.0066666  61.4765568 145.6419835
  71.5050355  61.5126026 145.8552200  72.7456486  60.8996530 146.8888885
  73.2987525  61.3191983 147.5478909  72.9826573  59.9732278 146.9311841
  67.9702657  64.1368528 139.2532327  68.8321821  64.4623427 139.5128144
  68.1553001  63.3500024 138.7405393  59.9870073  72.2190868 151.5312516
  59.2933544  71.8044821 151.0182470  60.7343064  72.2611404 150.9345934
  76.1235293  63.0097055 146.3967550  75.5433963  63.6681859 146.0145602
  75.8571226  62.1874399 145.9854967  74.5738860  62.4102112 148.5988870
  75.0738638  62.5218647 147.7903189  75.2174468  62.1063165 149.2389678
  61.9006815  72.1509122 149.4078530  61.8777503  72.2496809 148.4560413
  62.2107452  72.9974273 149.7295697  64.5594193  74.2085277 153.5225145
  65.5137447  74.1769219 153.4555076  64.3606717  73.7475900 154.3375371
  74.9060171  65.1697145 145.4523898  74.0186027  65.4546796 145.2344093
  75.3214161  65.0090908 144.6051175  78.2574708  65.1943666 149.1678237
  79.0335098  65.6840119 149.4402854  77.5322842  65.6201720 149.6250107
  80.6947266  65.9071285 150.2252178  81.2891757  65.6667021 149.5145486
  80.7673850  65.1878416 150.8525714  62.9144422  79.7504896 150.5395343
  62.7798890  78.9905297 149.9733341  62.4976484  80.4745796 150.0724132
  74.0503385  74.9341820 139.5471918  74.7539235  75.1391822 140.1629574
  73.3266034  75.5018582 139.8121001  74.8801195  70.6851681 145.6674188
  74.8236397  71.1420232 144.8281821  75.4329538  69.9242366 145.4897031
  78.6906001  66.4741413 146.4924308  78.4342935  66.0738049 147.3232515
  78.0658869  67.1885207 146.3674447  83.0018339  69.2137486 148.9995599
  82.4417897  69.2830675 149.7727161  82.3961842  69.0378471 148.2795095
  66.0713548  80.6474213 150.7513785  65.9545932  81.5919646 150.6492476
  65.2505994  80.3447775 151.1399585  75.9590082  75.3724349 141.5970378
  76.7935686  74.9405547 141.4147853  75.7974425  75.2006363 142.5247273
  75.6135975  71.8756462 142.9626717  75.5584778  71.7100734 142.0215161
  74.9882030  72.5832495 143.1188907  68.9232100  61.3764571 142.5412036
  68.9110770  62.3206411 142.6980307  69.8155522  61.1934717 142.2471497
  68.8521664  80.0533462 150.6279792  67.9017295  80.0535323 150.5144165
  69.1554150  79.3066196 150.1115827  72.7384219  57.9707348 146.7957973
  71.9716615  57.4165835 146.9414655  73.1494924  58.0429217 147.6572124
  79.0972343  84.6109676 140.9604020  79.3497864  84.0891197 140.1987483
  78.1596902  84.4475821 141.0630703  78.8168632  86.5137782 143.1628395
  78.7004890  85.8382685 143.8309479  78.9270892  86.0270155 142.3460548
  80.8005660  81.0037828 141.8636432  80.9680062  81.8718065 142.2306903
  80.6102829  81.1665110 140.9397722  80.7794881  83.4595486 142.8483099
  80.6594506  83.9052537 143.6868579  80.0847469  83.8080803 142.2896637
  75.2686456  83.3968470 147.4017275  74.4717620  83.5087164 147.9200771
  75.0412049  83.7355122 146.5358166  84.1282888  85.1020454 142.2550099
  83.6129511  85.8725058 142.4938486  83.8560196  84.4285590 142.8783160
  77.4203938  81.8261896 142.1105331  76.5841250  82.1636583 142.4314605
  77.2808707  81.6910876 141.1732468  79.3957018  76.6698684 146.8184515
  78.7421431  76.3547701 146.1941130  79.3537492  76.0474425 147.5444338
  80.5068223  86.9517979 138.7337807  79.5995285  86.7207233 138.9328956
  81.0039255  86.1555598 138.9211788  72.2544627  84.7736088 147.2376999
  72.0569027  84.1805449 146.5128066  71.6991291  84.4688298 147.9552938
  81.3832544  88.5939318 140.5949876  80.9451974  87.8775177 140.1355513
  82.1242985  88.8215433 140.0334967  74.7490853  84.3000122 144.9217951
  73.8188441  84.2384578 145.1387913  74.8448325  83.7776075 144.1254593
  74.6676402  80.8254935 147.5096193  74.9283219  81.7400268 147.4005353
  75.4893574  80.3579377 147.6592806  85.5043772  87.4523699 140.1881933
  84.8872943  86.7270528 140.0914986  85.0360260  88.2133060 139.8449007
  77.2942318  81.6709124 139.3103237  76.4171784  81.5497924 138.9465484
  77.7700071  80.8795202 139.0582126  72.0221012  83.2650979 144.7516143
  72.3174453  82.3561657 144.6983197  71.1209048  83.2438718 144.4297145
  73.7508853  80.9465077 144.8755468  73.4221559  80.0662455 144.6930574
  74.1048224  80.8912745 145.7631857  76.8650676  81.2338046 145.2430946
  77.2046749  81.7623968 144.5209554  77.3122797  81.5718452 146.0189512
  78.8518824  79.7312668 143.4424239  79.5727186  80.1093921 142.9387955
  78.2284128  80.4501545 143.5459217  82.9949947  80.4357817 144.3782571
  83.2113561  81.3182455 144.0771399  82.5144014  80.0444030 143.6488213
  78.9982447  79.2660458 146.2721775  79.1198358  78.3377105 146.4712663
  78.7084489  79.2799144 145.3600091  75.7265139  86.8779769 145.3698731
  75.4811181  85.9742099 145.5678941  75.8961053  86.8796919 144.4278209
  74.9960786  82.6108126 142.8684893  74.3030031  82.6852481 142.2124929
  74.7512538  81.8468470 143.3906410  81.8554710  84.6823534 139.1765462
  82.8013814  84.5529742 139.2453880  81.4768955  83.9438196 139.6534890
  80.0397627  82.6073511 139.1120348  79.1329082  82.3106623 139.1883061
  80.3173608  82.3103329 138.2454634  81.6559693  77.1510400 145.2664589
  80.8460421  76.8057485 145.6419835  82.3444110  76.8417944 145.8552200
  83.5850241  76.2288447 146.8888885  84.1381279  76.6483901 147.5478909
  83.8220327  75.3024195 146.9311841  78.8096411  79.4660446 139.2532327
  79.6715575  79.7915344 139.5128144  78.9946756  78.6791942 138.7405393
  79.7625854  76.7056489 142.5412036  79.7504524  77.6498329 142.6980307
  80.6549276  76.5226634 142.2471497  83.5777974  73.2999266 146.7957973
  82.8110370  72.7457752 146.9414655  83.9888679  73.3721134 147.6572124
  61.1562930  37.7106160 129.6543742  60.5050910  38.2960240 129.2677756
  61.9507293  38.2412354 129.7138779  57.4184835  30.9587963 127.6849326
  57.6710356  30.4369484 126.9232789  56.4809394  30.7954108 127.7876010
  62.6338196  35.3996591 130.1912726  61.9984029  35.4731218 130.9033631
  62.3035602  35.9890190 129.5131806  56.8614265  42.5777415 133.2218537
  56.7838295  43.5285240 133.3007018  56.2575909  42.2323287 133.8793463
  64.7992439  30.2795246 130.4008740  65.7110295  30.5122633 130.2256437
  64.2902086  30.8632290 129.8383818  67.2851253  36.1975503 135.1466685
  66.6002291  36.5774404 134.5963718  67.3695103  36.8070829 135.8798633
  59.1352634  37.9359568 131.9424077  58.9998309  38.7811103 132.3708925
  59.6762446  38.1378845 131.1790011  62.4495380  31.4498741 128.9795405
  61.9342004  32.2203345 129.2183793  62.1772689  30.7763877 129.6028467
  67.4229654  34.2031095 130.9148579  66.6459097  33.8642255 130.4703741
  68.1021135  34.2083719 130.2403544  58.8280715  33.2996266 125.4583113
  57.9207777  33.0685520 125.6574262  59.3251747  32.5033886 125.6457095
  61.7348794  42.0093774 128.3779800  61.0610493  42.3125470 128.9864757
  62.1214616  42.8122854 128.0285257  60.0068949  33.4008861 129.9807104
  59.0980168  33.1167894 130.0779573  60.0364033  33.8207940 129.1210410
  65.2388216  37.0115451 133.7498271  64.7850543  36.1706361 133.8063462
  64.6082183  37.6476849 134.0873051  63.6821156  38.8491947 134.6848089
  63.9744130  39.4097005 133.9660455  64.1919776  39.1420508 135.4401248
  59.7045037  34.9417605 127.3195182  59.2664467  34.2253464 126.8600820
  60.4455478  35.1693720 126.7580274  67.8218151  33.2174802 133.3771501
  67.6836050  33.4076398 132.4492690  67.4654370  33.9794185 133.8339552
  59.9340009  42.1773446 130.5926879  60.1091765  41.7061489 131.4072502
  59.2472797  42.8039212 130.8208140  63.8256264  33.8001987 126.9127240
  63.2085435  33.0748815 126.8160292  63.3572753  34.5611347 126.5694314
  58.8018736  40.3713701 133.2811065  58.0186258  40.9135381 133.3749289
  59.5011481  40.8887681 133.6805306  64.6493949  37.1241159 131.0319879
  64.9253793  37.0097753 131.9413754  63.7798448  36.7258643 130.9932053
  61.2848014  41.3727509 134.6752693  61.4670408  40.5549165 135.1380445
  62.1081000  41.5895202 134.2377583  61.6190179  40.2995695 131.9367742
  62.1477945  39.7888149 131.3237904  61.8818399  39.9838225 132.8013275
  64.7130363  40.2712493 132.5522725  64.8867240  39.7058915 131.7996577
  65.2059254  41.0713388 132.3702215  70.5669754  33.0348916 134.1713024
  71.0100900  32.2856241 133.7732148  69.6896264  33.0259052 133.7886756
  65.7005535  39.5879257 129.6519623  66.3956440  40.2085950 129.8706938
  66.0428685  38.7374608 129.9272001  67.5996958  37.0378963 131.1806954
  68.1248282  37.3766235 130.4556274  67.5119311  36.1025978 130.9970088
  56.2924998  37.1992878 131.0882969  56.4413118  37.8828343 130.4349642
  57.0991441  37.1797968 131.6032425  59.7920403  39.6941009 128.5594716
  59.2194371  40.3131196 128.1065188  60.3653197  40.2440370 129.0934638
  63.0117663  39.9778159 129.6903299  63.9448336  39.9123721 129.8936174
  62.9240876  40.8134426 129.2317831  65.6405680  39.2944029 126.6507246
  65.5619311  38.9603893 127.5443004  66.4615347  39.7865797 126.6498719
  60.1767202  31.0301822 125.9010769  61.1226307  30.9008030 125.9699187
  59.7981447  30.2916483 126.3780197  58.3610119  28.9551798 125.8365654
  57.4541575  28.6584911 125.9128368  58.6386100  28.6581616 124.9699940
  63.2109632  36.6112025 126.2717225  63.9145482  36.8162027 126.8874880
  62.4872280  37.1788787 126.5366308  65.1196329  37.0494554 128.3215685
  65.9541933  36.6175752 128.1393159  64.9580672  36.8776568 129.2492579
  64.7742221  33.5526667 129.6872024  64.7191025  33.3870939 128.7460468
  64.1488277  34.2602700 129.8434214  73.7480604  47.5664205 138.4170861
  74.3859014  47.4470952 137.7134201  73.6301447  48.5145049 138.4758814
  70.5570311  47.5191633 138.3532386  70.2188822  47.4032698 137.4652921
  71.4260079  47.1182798 138.3333392  66.4157126  49.3727110 134.3429277
  65.8521991  49.2817046 133.5745565  66.3009521  48.5527014 134.8231770
  63.9621558  50.8678301 137.1813498  64.7542850  50.5269126 136.7659797
  64.2018208  50.9773276 138.1015651  71.9956685  53.0398077 129.6543742
  71.3444665  53.6252158 129.2677756  72.7901048  53.5704272 129.7138779
  65.9212312  50.1287214 130.0530876  66.6943188  49.5816201 129.9143752
  66.2737711  50.9931464 130.2645338  67.7597355  51.4563597 143.2597776
  67.4687221  52.3609227 143.1444442  68.3954339  51.4980124 143.9741845
  68.6853561  48.8340445 139.8499135  69.2817134  48.6096468 139.1356098
  68.7428533  48.0925191 140.4524583  68.2578590  46.2879880 127.6849326
  68.5104111  45.7661402 126.9232789  67.3203149  46.1246026 127.7876010
  73.3021873  45.2915659 135.4924069  74.0884962  44.8735082 135.1414486
  73.5660577  46.1961751 135.6605718  73.4731950  50.7288509 130.1912726
  72.8377783  50.8023136 130.9033631  73.1429356  51.3182108 129.5131806
  78.7030300  45.2290892 136.3957048  79.4355472  44.6590109 136.6294877
  77.9469656  44.8412492 136.8363554  67.9774879  48.1907986 129.8873701
  67.8611137  47.5152890 130.5554785  68.0877139  47.7040360 129.0705854
  70.3206420  47.6518134 133.5920390  69.9564627  47.1248755 134.3033312
  71.1773535  47.2616603 133.4186876  69.9611907  42.6808033 128.5881739
  70.1286309  43.5488270 128.9552210  69.7709076  42.8435315 127.6643028
  72.7187240  51.1425012 140.2547569  72.4187963  52.0450051 140.1463377
  72.3738299  50.8757195 141.1068722  66.1699721  47.5938809 136.2884274
  65.2450218  47.4615023 136.4961965  66.4184134  48.3733028 136.7854216
  76.1184384  43.6607552 137.9345007  75.2101261  43.5922961 137.6403768
  76.0671979  44.1379497 138.7626832  69.9401127  45.1365691 129.5728406
  69.8200753  45.5822741 130.4113886  69.2453716  45.4851008 129.0141944
  63.5308532  47.2372083 137.1228063  63.6600913  47.4906561 138.0367475
  62.8505984  47.8299791 136.8032718  67.7008020  57.9069332 133.2218537
  67.6232049  58.8577158 133.3007018  67.0969663  57.5615205 133.8793463
  77.9846030  41.8623991 139.7122881  77.3420410  42.1556524 139.0662675
  77.4800958  41.7476911 140.5176077  75.6386194  45.6087164 130.4008740
  76.5504050  45.8414551 130.2256437  75.1295841  46.1924208 129.8383818
  73.9226961  50.0311792 144.0370032  74.3310317  49.5894202 143.2924665
  73.2004223  49.4564419 144.2904225  74.2455776  50.5912982 137.7922321
  73.6164638  50.7558696 137.0898389  73.8581438  51.0054592 138.5633285
  78.1245008  51.5267420 135.1466685  77.4396046  51.9066322 134.5963718
  78.2088857  52.1362747 135.8798633  75.3795939  49.1727379 141.7462029
  75.5912835  49.8159139 141.0696410  75.3325688  48.3389696 141.2783959
  72.9822168  41.7845200 138.6498601  72.1206647  42.0826453 138.9415338
  73.0084603  42.0015599 137.7179633  69.7983738  50.3287390 135.0572406
  70.2622083  50.6075093 134.2677029  69.5340536  49.4270835 134.8745497
  66.6907819  49.8758872 137.9952170  67.2609176  50.3046140 137.3569654
  67.2815931  49.5941457 138.6936355  68.7352624  46.4510543 131.8661972
  69.4376667  46.9031586 132.3335898  68.4033252  45.8094362 132.4941865
  62.4777958  44.7094095 137.1679105  61.6877012  44.9651624 136.6919216
  62.9689205  45.5242433 137.2731146  76.4941767  52.0499335 139.9184386
  77.3159211  51.6479522 139.6367068  76.4904170  51.9467569 140.8700502
  64.4292703  45.0738675 134.1262582  63.6323866  45.1857369 134.6446077
  64.2018295  45.4125327 133.2603472  70.2598371  51.5983378 142.0745096
  70.3242803  52.0603785 142.9103268  69.5509295  50.9680743 142.2027406
  84.5847760  48.3938083 136.2669357  83.8311469  47.8245481 136.1113362
  84.7195302  48.3600748 137.2139992  69.9746388  53.2651485 131.9424077
  69.8392063  54.1103021 132.3708925  70.5156201  53.4670763 131.1790011
  63.4275786  50.7826923 132.5152002  63.9400306  51.5770174 132.6657566
  64.0798499  50.0853214 132.4485603  65.2370671  53.8992680 134.5974755
  65.4137299  54.8210644 134.4095739  66.0327504  53.5851099 135.0269135
  71.6014865  53.8875052 146.0724419  71.1578719  53.1011431 145.7545323
  72.2632078  54.0754202 145.4068310  66.3601986  55.4170854 140.5985097
  66.9109411  55.2887917 139.8262091  65.5213462  55.7165743 140.2479990
  73.6996103  54.1677852 144.1005820  73.6814578  54.9886733 143.6086089
  74.6216023  54.0431927 144.3255961  61.3924703  49.1115578 133.2911572
  62.2299925  49.5212586 133.0745280  61.5702970  48.1715020 133.2611766
  73.2889135  46.7790658 128.9795405  72.7735758  47.5495263 129.2183793
  73.0166443  46.1055795 129.6028467  70.8736246  41.6240359 134.0380644
  70.0177842  41.2347210 133.8586282  71.2863198  41.7032320 133.1780429
  72.4035392  39.1586702 138.4372203  71.9000188  39.1216838 137.6240009
  72.6965999  40.0679445 138.4968860  78.2623409  49.5323013 130.9148579
  77.4852852  49.1934173 130.4703741  78.9414890  49.5375636 130.2403544
  73.0775438  44.6517751 130.8055186  72.7725573  44.9663900 131.6565330
  74.0305880  44.7299170 130.8482519  71.5221870  50.8107974 132.4548140
  70.9943231  50.0760733 132.1421378  71.0209372  51.5882650 132.2088109
  76.5014716  49.0056994 137.5715187  75.8438390  49.6956256 137.6595315
  77.3055115  49.3953426 137.9149173  66.2540597  41.4727640 134.8154752
  66.8284349  41.2502822 134.0827945  66.8411580  41.5416335 135.5683353
  75.3120175  47.3601367 135.6219129  75.8252056  47.9931359 136.1240838
  75.9621398  46.7602563 135.2562489  66.5810184  43.5032101 128.8350637
  65.7447497  43.8406788 129.1559912  66.4414954  43.3681081 127.8977774
  68.5563265  38.3468889 133.5429821  67.9027677  38.0317906 132.9186436
  68.5143739  37.7244629 134.2689644  72.5742549  57.3385691 128.3779800
  71.9004248  57.6417388 128.9864757  72.9608371  58.1414772 128.0285257
  71.7901005  44.8350823 137.8677469  70.8723567  45.0565770 137.7099157
  72.2061149  44.9097133 137.0089176  72.5736053  46.2342238 132.9980149
  73.3207872  46.7463635 132.6887271  72.8427643  45.9126291 133.8584543
  70.8462703  48.7300779 129.9807104  69.9373923  48.4459812 130.0779573
  70.8757787  49.1499858 129.1210410  76.0781971  52.3407368 133.7498271
  75.6244298  51.4998278 133.8063462  75.4475937  52.9768767 134.0873051
  75.0214890  43.2699355 134.9798939  74.2837647  42.7576741 135.3109181
  75.2741664  42.8299736 134.1682215  74.5214910  54.1783865 134.6848089
  74.8137884  54.7388922 133.9660455  75.0313531  54.4712426 135.4401248
  75.1226518  36.0475607 135.5740708  75.4285394  35.1872970 135.2866623
  75.8479122  36.6393227 135.3739702  61.4150874  46.4506293 133.9622306
  61.2175274  45.8575654 133.2373372  60.8597538  46.1458503 134.6798245
  69.3947597  46.3429400 136.0816899  69.4496207  45.3903236 136.0059376
  68.5838799  46.4988839 136.5658197  67.3339957  44.9606459 133.8407278
  66.5207823  45.2600630 134.2472470  67.8298952  44.5662148 134.5581760
  69.4848535  54.9564216 135.7741542  69.4424714  55.1825063 134.8450075
  70.4011234  54.7227591 135.9227344  78.6611906  48.5466720 133.3771501
  78.5229805  48.7368316 132.4492690  78.3048125  49.3086103 133.8339552
  78.6881286  50.6143247 138.3882772  79.1217792  50.5218536 139.2365826
  79.4012866  50.5900747 137.7502788  67.6014336  51.8327245 135.5703505
  68.3954934  51.3377565 135.3686080  66.8906028  51.3045108 135.2071211
  72.4209180  54.2145341 139.9215873  72.4746203  54.7836277 140.6893589
  71.5523962  54.3847226 139.5569910  63.9097099  45.9770327 131.6463258
  62.9794688  45.9154782 131.8633220  64.0054571  45.4546280 130.8499899
  63.8282648  42.5025140 134.2341500  64.0889466  43.4170473 134.1250660
  64.6499821  42.0349582 134.3838112  79.5496835  50.6566947 140.9215658
  79.7432725  51.5612758 141.1674933  79.4497453  50.1974366 141.7554243
  74.6111944  50.8073690 146.4956538  74.4597450  50.5784242 145.5786622
  74.6016623  51.7644292 146.5087883  71.3797280  48.3805603 141.4802805
  72.3089340  48.5316762 141.3071772  70.9588310  48.4689624 140.6251451
  70.1785612  52.4056267 139.2501342  70.0396698  52.0375052 140.1227280
  69.3900208  52.9203907 139.0785300  70.7733764  57.5065364 130.5926879
  70.9485520  57.0353407 131.4072502  70.0866552  58.1331130 130.8208140
  71.7290827  51.7837870 136.6390180  71.3940660  51.7438640 137.5347830
  71.2294773  51.1182586 136.1660590  74.6650019  49.1293904 126.9127240
  74.0479189  48.4040732 126.8160292  74.1966507  49.8903265 126.5694314
  76.3204150  53.8392813 144.5733020  76.2616697  53.1552033 143.9063603
  76.7223669  54.5811803 144.1213646  65.3394849  60.6554726 137.3666739
  65.5791447  61.2873251 138.0445758  64.4964046  60.3042767 137.6532098
  66.4548565  43.3479329 126.0348544  65.5778031  43.2268129 125.6710791
  66.9306318  42.5565407 125.7827433  76.3221558  51.8032397 142.8047000
  75.4348336  51.4658318 142.9273399  76.8920109  51.0715428 143.0415765
  57.9750705  48.1356488 136.1290051  58.6621745  47.8218218 135.5411066
  57.8198834  49.0397853 135.8557303  69.8522711  56.4633849 139.7708243
  69.7792883  57.2688820 140.2827548  69.4100104  56.6625815 138.9456264
  69.6412491  55.7005619 133.2811065  68.8580013  56.2427299 133.3749289
  70.3405236  56.2179599 133.6805306  72.9509141  41.5100248 135.9245270
  73.4477840  40.7570211 135.6046340  72.1796122  41.5464565 135.3588479
  80.8038898  47.2140614 137.5663561  80.7928774  48.0965329 137.1957495
  79.9356278  46.8612165 137.3718098  72.3121395  56.3620683 141.9266402
  73.0249367  56.9968148 141.8542303  71.8211423  56.4584549 141.1106403
  74.0338922  50.2671936 133.4983693  73.0995200  50.3873398 133.3288398
  74.2115590  49.3644402 133.2343703  69.5344110  43.6517631 135.6516955
  69.1641897  43.0988672 136.3397860  70.0303202  43.0475765 135.0991955
  77.4211473  46.1089255 134.0333727  77.8871925  46.9417247 133.9594030
  77.8718973  45.6434236 134.7378986  67.3633308  54.1115126 142.7471972
  68.0642768  54.7451609 142.9001367  66.8928423  54.4529858 141.9867612
  75.4887704  52.4533076 131.0319879  75.7647548  52.3389671 131.9413754
  74.6192203  52.0550561 130.9932053  75.3928136  38.4769842 138.0724629
  74.4791215  38.7074069 138.2406836  75.8221237  38.5608286 138.9238661
  75.1634594  46.6659734 140.5724523  74.5106044  46.9135641 139.9176976
  75.5414974  45.8523872 140.2387000  72.1241768  56.7019427 134.6752693
  72.3064163  55.8841083 135.1380445  72.9474754  56.9187119 134.2377583
  72.4583933  55.6287612 131.9367742  72.9871700  55.1180067 131.3237904
  72.7212153  55.3130142 132.8013275  62.9601026  53.6451481 139.6803075
  63.5454463  52.8995169 139.8130979  62.7625865  53.9555438 140.5639739
  65.8139681  56.6802729 134.6965518  65.1450057  57.1648856 134.2129558
  65.6752551  56.9271949 135.6108896  69.9544950  58.7146472 141.2948176
  70.5063258  58.8778094 142.0597261  70.2951143  59.3050910 140.6228201
  74.8055824  53.5407730 147.1496830  75.3495728  54.1537688 146.6551785
  74.2242669  54.0987308 147.6663843  61.1827259  44.9421184 131.4761450
  61.4780700  44.0331862 131.4228503  60.2815294  44.9208923 131.1542452
  73.0913337  56.6628448 138.2811858  72.9664477  55.8618188 137.7722804
  73.7492428  57.1574641 137.7925828  64.7121506  43.0177180 137.4588998
  63.9908091  43.6313148 137.3196472  65.5014761  43.5534945 137.3805644
  75.1548246  54.4637468 139.9091408  74.2078581  54.3442819 139.8369735
  75.5031019  53.5759966 139.9917670  62.9115100  42.6235281 131.6000775
  62.5827806  41.7432660 131.4175881  63.2654471  42.5682950 132.4877164
  72.1594679  54.2590184 136.1095760  72.0119641  53.3306892 136.2903330
  72.9848172  54.2810275 135.6252836  66.0256923  42.9108251 131.9676253
  66.3652996  43.4394173 131.2454861  66.4729044  43.2488657 132.7434819
  75.7628801  55.0818743 137.1960633  76.6875348  54.8761604 137.0585084
  75.5944104  54.8335144 138.1049975  68.0125070  41.4082873 130.1669545
  68.7333433  41.7864126 129.6633262  67.3890375  42.1271750 130.2704523
  72.1556193  42.1128022 131.1027878  72.3719808  42.9952660 130.8016706
  71.6750260  41.7214235 130.3733520  66.8955415  45.0713735 137.6798622
  66.7499995  45.3854038 138.5722904  66.4180618  45.6898635 137.1269521
  68.7551798  42.0616283 137.7279512  68.7413366  41.1657376 137.3911810
  69.4724226  42.0686947 138.3617798  75.5524117  55.6004410 132.5522725
  75.7260995  55.0350833 131.7996577  76.0453008  56.4005305 132.3702215
  68.1588693  40.9430663 132.9967082  68.2804605  40.0147310 133.1957969
  67.8690736  40.9569349 132.0845397  71.0279884  38.6285574 136.1333802
  71.0501581  38.6924907 135.1785781  71.4447943  37.7890082 136.3274308
  81.4063508  48.3640833 134.1713024  81.8494654  47.6148159 133.7732148
  80.5290018  48.3550970 133.7886756  76.5399290  54.9171175 129.6519623
  77.2350194  55.5377867 129.8706938  76.8822440  54.0666526 129.9272001
  78.4390713  52.3670880 131.1806954  78.9642037  52.7058153 130.4556274
  78.3513065  51.4317896 130.9970088  70.1010761  56.2804954 143.3096830
  70.4097888  56.0354101 144.1819530  70.8986243  56.4851592 142.8215700
  70.1231373  58.4342864 135.5402207  69.6836364  57.9419242 136.2335064
  70.8739490  57.8915831 135.2994282  62.6023712  54.6254404 135.5426835
  63.4281732  54.3258176 135.1625478  62.2517764  53.8562027 135.9916624
  67.5705246  53.9780873 137.6124508  66.9485255  53.3151578 137.3126736
  68.2410112  54.0042005 136.9298156  60.8032317  52.5440731 136.5015768
  59.9664226  52.1162905 136.3199770  60.7755963  52.7373174 137.4386560
  78.1284619  53.0003784 146.4858152  77.3380162  52.9827923 145.9462651
  77.8917973  53.5392078 147.2407188  78.2482494  49.8496250 143.7990880
  78.2980499  49.6846258 144.7406403  78.1396417  48.9823509 143.4088761
  67.1318752  52.5284796 131.0882969  67.2806873  53.2120260 130.4349642
  67.9385196  52.5089886 131.6032425  79.7500691  52.2693192 144.0432902
  79.4585499  52.6323172 144.8796363  79.1372822  51.5560200 143.8646234
  80.9496373  49.8346072 136.5635472  81.7843264  50.2735876 136.7273032
  81.0855502  49.3584725 135.7443718  77.9987879  47.3925806 142.5112960
  78.4742000  47.5853453 141.7031811  77.0753444  47.4484992 142.2656343
  64.8871385  48.5549974 132.0944038  64.6417427  47.6512304 132.2924248
  65.0567300  48.5567124 131.1523516  64.1567033  44.2878331 129.5930199
  63.4636278  44.3622686 128.9370235  63.9118785  43.5238675 130.1151716
  70.6314158  55.0232926 128.5594716  70.0588125  55.6423114 128.1065188
  71.2046952  55.5732288 129.0934638  76.6989548  44.2691567 140.7441265
  77.6506971  44.3689664 140.7653489  76.5292998  43.4769835 141.2539350
  74.7203927  41.3547150 140.9300666  74.1253859  41.6352163 140.2347155
  74.4353624  41.8441051 141.7017407  73.8511418  55.3070077 129.6903299
  74.7842091  55.2415638 129.8936174  73.7634631  56.1426343 129.2317831
  76.4799434  54.6235947 126.6507246  76.4013066  54.2895811 127.5443004
  77.3009101  55.1157715 126.6498719  79.1777626  47.4897686 139.8583565
  79.1453946  46.5513687 140.0443249  79.7878249  47.5681723 139.1249390
  79.3272114  44.2808730 139.9041848  78.8111163  43.4967186 139.7171777
  80.2112063  43.9527446 140.0688368  76.9882841  38.0249745 135.8637661
  76.7907662  37.7164833 136.7480993  77.5982547  38.7511384 135.9935591
  84.9954175  48.5513693 138.9989602  85.7257564  48.2898981 139.5597305
  84.3861121  47.8142415 139.0391670  83.0769473  46.6921556 139.5964053
  82.3502636  46.5577521 138.9880544  82.6616759  46.9998384 140.4020771
  69.2003874  44.2843716 125.8365654  68.2935329  43.9876828 125.9128368
  69.4779855  43.9873534 124.9699940  60.1181814  45.6050079 136.2864701
  59.7984598  44.7515387 135.9939075  59.5715242  45.8198657 137.0422668
  63.8961722  48.3212520 140.0034207  64.1147731  49.2529628 140.0222241
  64.3087495  47.9620494 140.7889011  70.8165939  38.8280605 131.9909895
  70.0066668  38.4827690 132.3665142  71.5050356  38.5188149 132.5797507
  72.7456488  37.9058652 133.6134192  73.2987526  38.3254106 134.2724215
  72.9826574  36.9794400 133.6557148  67.9702658  41.1430651 125.9777633
  68.8321822  41.4685549 126.2373451  68.1553002  40.3562147 125.4650699
  59.9870074  49.2252991 138.2557822  59.2933545  48.8106943 137.7427777
  60.7343065  49.2673527 137.6591241  76.1235295  40.0159177 133.1212856
  75.5433964  40.6743981 132.7390909  75.8571227  39.1936522 132.7100274
  74.5738861  39.4164235 135.3234177  75.0738639  39.5280770 134.5148496
  75.2174469  39.1125288 135.9634985  61.9006817  49.1571244 136.1323837
  61.8777505  49.2558932 135.1805720  62.2107453  50.0036395 136.4541003
  64.5594194  51.2147399 140.2470451  65.5137448  51.1831342 140.1800383
  64.3606718  50.7538023 141.0620677  74.9060173  42.1759268 132.1769205
  74.0186028  42.4608918 131.9589399  75.3214162  42.0153031 131.3296482
  78.2574709  42.2005789 135.8923544  79.0335099  42.6902241 136.1648161
  77.5322843  42.6263843 136.3495413  80.6947267  42.9133408 136.9497485
  81.2891758  42.6729144 136.2390793  80.7673851  42.1940538 137.5771021
  62.9144423  56.7567019 137.2640649  62.7798891  55.9967420 136.6978647
  62.4976485  57.4807919 136.7969438  74.8801196  47.6913804 132.3919495
  74.8236398  48.1482355 131.5527127  75.4329539  46.9304488 132.2142338
  78.6906002  43.4803535 133.2169614  78.4342937  43.0800171 134.0477822
  78.0658870  44.1947329 133.0919753  83.0018340  46.2199609 135.7240906
  82.4417898  46.2892798 136.4972468  82.3961844  46.0440593 135.0040402
  66.0713549  57.6536336 137.4759092  65.9545933  58.5981768 137.3737782
  65.2505995  57.3509897 137.8644891  75.6135976  48.8818585 129.6872024
  75.5584780  48.7162856 128.7460468  74.9882031  49.5894618 129.8434214
  68.9232101  38.3826694 129.2657342  68.9110771  39.3268534 129.4225613
  69.8155523  38.1996839 128.9716804  67.0968063  58.3064598 140.6915020
  67.9995310  58.3388208 141.0081515  66.8705433  57.3765049 140.7061356
  68.8521665  57.0595584 137.3525099  67.9017296  57.0597446 137.2389471
  69.1554151  56.3128319 136.8361134  72.7384221  34.9769471 133.5203279
  71.9716617  34.4227957 133.6659962  73.1494926  35.0491339 134.3817431
  84.5874359  62.8956123 138.4170861  85.2252769  62.7762870 137.7134201
  84.4695202  63.8436967 138.4758814  81.3964065  62.8483551 138.3532386
  81.0582577  62.7324615 137.4652921  82.2653833  62.4474716 138.3333392
  77.2550881  64.7019027 134.3429277  76.6915746  64.6108964 133.5745565
  77.1403276  63.8818932 134.8231770  81.8783848  64.0018402 144.3118592
  81.8672489  63.6071201 143.4399095  82.0404487  63.2684475 144.9052363
  74.8015313  66.1970219 137.1813498  75.5936605  65.8561043 136.7659797
  75.0411963  66.3065194 138.1015651  82.8350439  68.3689995 129.6543742
  82.1838419  68.9544075 129.2677756  83.6294802  68.8996190 129.7138779
  76.7606067  65.4579132 130.0530876  77.5336943  64.9108119 129.9143752
  77.1131465  66.3223381 130.2645338  78.5991109  66.7855514 143.2597776
  78.3080975  67.6901145 143.1444442  79.2348093  66.8272042 143.9741845
  79.5247316  64.1632363 139.8499135  80.1210888  63.9388385 139.1356098
  79.5822288  63.4217108 140.4524583  79.0972344  61.6171798 127.6849326
  79.3497865  61.0953319 126.9232789  78.1596903  61.4537944 127.7876010
  84.1415627  60.6207577 135.4924069  84.9278716  60.2027000 135.1414486
  84.4054332  61.5253669 135.6605718  84.3125705  66.0580427 130.1912726
  83.6771538  66.1315053 130.9033631  83.9823111  66.6474026 129.5131806
  89.5424054  60.5582810 136.3957048  90.2749226  59.9882027 136.6294877
  88.7863410  60.1704410 136.8363554  78.8168633  63.5199904 129.8873701
  78.7004891  62.8444807 130.5554785  78.9270893  63.0332278 129.0705854
  81.1600174  62.9810051 133.5920390  80.7958381  62.4540672 134.3033312
  82.0167290  62.5908520 133.4186876  87.0649475  54.2704384 140.8551657
  86.7332799  55.1399795 140.6312872  86.4695088  53.9540668 141.5345687
  80.8005661  58.0099951 128.5881739  80.9680063  58.8780187 128.9552210
  80.6102830  58.1727233 127.6643028  83.5580994  66.4716930 140.2547569
  83.2581717  67.3741969 140.1463377  83.2132054  66.2049113 141.1068722
  77.0093476  62.9230727 136.2884274  76.0843972  62.7906941 136.4961965
  77.2577889  63.7024946 136.7854216  86.9578138  58.9899470 137.9345007
  86.0495015  58.9214878 137.6403768  86.9065734  59.4671415 138.7626832
  80.7794882  60.4657608 129.5728406  80.6594507  60.9114659 130.4113886
  80.0847470  60.8142926 129.0141944  74.3702287  62.5664000 137.1228063
  74.4994668  62.8198479 138.0367475  73.6899738  63.1591708 136.8032718
  78.5401774  73.2361250 133.2218537  78.4625804  74.1869075 133.3007018
  77.9363418  72.8907123 133.8793463  81.0319004  60.4089116 145.8779904
  80.2552338  60.9683036 145.8682769  81.6709567  60.8945899 146.3994774
  88.8239784  57.1915908 139.7122881  88.1814165  57.4848442 139.0662675
  88.3194713  57.0768829 140.5176077  86.4779948  60.9379082 130.4008740
  87.3897804  61.1706468 130.2256437  85.9689595  61.5216126 129.8383818
  79.2865376  63.2174569 145.4397871  80.0280060  63.7559613 145.1632695
  78.5802362  63.8440858 145.5969423  84.7620716  65.3603709 144.0370032
  85.1704072  64.9186120 143.2924665  84.0397977  64.7856337 144.2904225
  81.1151786  60.2976316 141.4103589  81.9612981  60.7215730 141.5538238
  81.0550423  59.6409940 142.1042152  85.0849530  65.9204900 137.7922321
  84.4558393  66.0850614 137.0898389  84.6975192  66.3346510 138.5633285
  88.9638762  66.8559338 135.1466685  88.2789800  67.2358239 134.5963718
  89.0482612  67.4654665 135.8798633  84.2651231  57.9580685 143.0684763
  84.0212163  58.7122745 142.5319039  84.5411162  58.3366032 143.9032010
  86.2189694  64.5019297 141.7462029  86.4306589  65.1451057 141.0696410
  86.1719442  63.6681613 141.2783959  83.8215923  57.1137118 138.6498601
  82.9600402  57.4118371 138.9415338  83.8478357  57.3307516 137.7179633
  80.6377492  65.6579308 135.0572406  81.1015838  65.9367011 134.2677029
  80.3734290  64.7562753 134.8745497  77.5301573  65.2050790 137.9952170
  78.1002930  65.6338058 137.3569654  78.1209685  64.9233374 138.6936355
  79.5746378  61.7802461 131.8661972  80.2770422  62.2323504 132.3335898
  79.2427007  61.1386279 132.4941865  78.0226740  60.3714217 146.2413181
  77.3925400  61.0530498 146.4748578  77.9162828  60.2597299 145.2966319
  73.3171712  60.0386013 137.1679105  72.5270766  60.2943542 136.6919216
  73.8082960  60.8534351 137.2731146  87.3335522  67.3791252 139.9184386
  88.1552966  66.9771440 139.6367068  87.3297925  67.2759487 140.8700502
  75.2686458  60.4030592 134.1262582  74.4717621  60.5149287 134.6446077
  75.0412050  60.7417245 133.2603472  81.0992125  66.9275296 142.0745096
  81.1636558  67.3895703 142.9103268  80.3903049  66.2972661 142.2027406
  71.6009415  60.2916504 139.5994096  71.8517454  61.1763514 139.8651672
  72.1368964  60.1121105 138.8269188  95.4241515  63.7230001 136.2669357
  94.6705223  63.1537399 136.1113362  95.5589056  63.6892665 137.2139992
  80.8140143  68.5943403 131.9424077  80.6785818  69.4394939 132.3708925
  81.3549955  68.7962681 131.1790011  77.3007483  54.6734983 148.6038432
  76.9074428  54.1201182 149.2786076  78.1173623  54.9845561 148.9944949
  74.2669540  66.1118841 132.5152002  74.7794061  66.9062091 132.6657566
  74.9192253  65.4145132 132.4485603  76.0764425  69.2284597 134.5974755
  76.2531053  70.1502562 134.4095739  76.8721259  68.9143017 135.0269135
  80.2175444  56.0892862 146.1958689  80.9585157  56.6900015 146.1163151
  80.4493366  55.3470500 145.6376731  75.3616782  61.2749229 144.4736918
  75.2470297  60.3734487 144.7744017  74.5061299  61.5212926 144.1221735
  82.4408619  69.2166970 146.0724419  81.9972473  68.4303348 145.7545323
  83.1025833  69.4046120 145.4068310  77.1995740  70.7462771 140.5985097
  77.7503166  70.6179835 139.8262091  76.3607216  71.0457660 140.2479990
  84.5389857  69.4969770 144.1005820  84.5208333  70.3178651 143.6086089
  85.4609777  69.3723845 144.3255961  80.9962912  67.0113899 144.9429328
  81.5291248  66.2502187 144.7128636  80.4676993  66.7187551 145.6853483
  84.1632606  52.1173965 140.4722970  83.8196876  53.0075607 140.3962081
  84.5311569  51.9275623 139.6092555  72.2318457  64.4407495 133.2911572
  73.0693679  64.8504504 133.0745280  72.4096725  63.5006938 133.2611766
  84.1282889  62.1082576 128.9795405  83.6129513  62.8787181 129.2183793
  83.8560198  61.4347712 129.6028467  81.7130000  56.9532277 134.0380644
  80.8571597  56.5639127 133.8586282  82.1256952  57.0324238 133.1780429
  83.2429147  54.4878620 138.4372203  82.7393942  54.4508755 137.6240009
  83.5359754  55.3971363 138.4968860  79.4872033  54.5717350 137.4438385
  80.3525030  54.3760159 137.0844275  79.5549542  54.3427702 138.3707742
  89.1017163  64.8614931 130.9148579  88.3246606  64.5226090 130.4703741
  89.7808644  64.8667554 130.2403544  83.9169192  59.9809668 130.8055186
  83.6119328  60.2955817 131.6565330  84.8699635  60.0591088 130.8482519
  82.3615624  66.1399892 132.4548140  81.8336986  65.4052651 132.1421378
  81.8603127  66.9174568 132.2088109  87.3408470  64.3348912 137.5715187
  86.6832145  65.0248173 137.6595315  88.1448869  64.7245344 137.9149173
  77.0934352  56.8019558 134.8154752  77.6678104  56.5794739 134.0827945
  77.6805334  56.8708252 135.5683353  86.1513929  62.6893285 135.6219129
  86.6645811  63.3223277 136.1240838  86.8015153  62.0894480 135.2562489
  77.4203939  58.8324019 128.8350637  76.5841251  59.1698705 129.1559912
  77.2808709  58.6972999 127.8977774  79.3957020  53.6760807 133.5429821
  78.7421432  53.3609824 132.9186436  79.3537494  53.0536547 134.2689644
  80.5068224  63.9580102 125.4583113  79.5995286  63.7269355 125.6574262
  81.0039256  63.1617721 125.6457095  83.4136303  72.6677609 128.3779800
  82.7398002  72.9709306 128.9864757  83.8002125  73.4706689 128.0285257
  82.6294760  60.1642740 137.8677469  81.7117321  60.3857687 137.7099157
  83.0454904  60.2389051 137.0089176  83.4129808  61.5634156 132.9980149
  84.1601627  62.0755553 132.6887271  83.6821397  61.2418209 133.8584543
  81.6856458  64.0592697 129.9807104  80.7767677  63.7751729 130.0779573
  81.7151542  64.4791775 129.1210410  86.9175725  67.6699286 133.7498271
  86.4638052  66.8290196 133.8063462  86.2869692  68.3060685 134.0873051
  85.8608645  58.5991272 134.9798939  85.1231402  58.0868658 135.3109181
  86.1135418  58.1591654 134.1682215  85.3608665  69.5075783 134.6848089
  85.6531639  70.0680840 133.9660455  85.8707285  69.8004344 135.4401248
  85.9620272  51.3767524 135.5740708  86.2679149  50.5164888 135.2866623
  86.6872877  51.9685144 135.3739702  72.2544628  61.7798211 133.9622306
  72.0569028  61.1867571 133.2373372  71.6991292  61.4750421 134.6798245
  80.2341352  61.6721317 136.0816899  80.2889962  60.7195154 136.0059376
  79.4232554  61.8280756 136.5658197  81.3832546  65.6001440 127.3195182
  80.9451976  64.8837299 126.8600820  82.1242987  65.8277555 126.7580274
  78.1733712  60.2898377 133.8407278  77.3601577  60.5892548 134.2472470
  78.6692706  59.8954066 134.5581760  80.3242290  70.2856134 135.7741542
  80.2818468  70.5116980 134.8450075  81.2404989  70.0519509 135.9227344
  83.7707923  60.7540201 142.6722172  84.1257311  60.9811675 143.5316637
  84.4180055  61.0858578 142.0499427  89.5005660  63.8758637 133.3771501
  89.3623559  64.0660233 132.4492690  89.1441879  64.6378020 133.8339552
  77.6647787  57.8616733 139.4568513  78.3047166  57.7205492 138.7591476
  76.8325317  57.5751246 139.0807115  89.5275040  65.9435164 138.3882772
  89.9611547  65.8510453 139.2365826  90.2406621  65.9192665 137.7502788
  78.4408090  67.1619163 135.5703505  79.2348689  66.6669483 135.3686080
  77.7299783  66.6337026 135.2071211  83.2602935  69.5437258 139.9215873
  83.3139957  70.1128195 140.6893589  82.3917716  69.7139144 139.5569910
  74.7490854  61.3062245 131.6463258  73.8188442  61.2446700 131.8633220
  74.8448326  60.7838197 130.8499899  74.6676403  57.8317058 134.2341500
  74.9283220  58.7462391 134.1250660  75.4893575  57.3641500 134.3838112
  76.1401328  59.2454815 141.4040324  76.8124382  59.0372177 140.7552973
  75.3131115  59.0476901 140.9645556  90.3890590  65.9858865 140.9215658
  90.5826480  66.8904676 141.1674933  90.2891208  65.5266284 141.7554243
  82.0426900  55.8716756 143.4205985  81.3954815  56.5706705 143.3270461
  82.8127916  56.3052900 143.7882233  85.4505698  66.1365608 146.4956538
  85.2991205  65.9076159 145.5786622  85.4410378  67.0936209 146.5087883
  82.2191035  63.7097521 141.4802805  83.1483095  63.8608680 141.3071772
  81.7982065  63.7981541 140.6251451  81.0179366  67.7348185 139.2501342
  80.8790452  67.3666969 140.1227280  80.2293963  68.2495824 139.0785300
  81.6127518  72.8357281 130.5926879  81.7879274  72.3645325 131.4072502
  80.9260306  73.4623048 130.8208140  82.5684582  67.1129788 136.6390180
  82.2334414  67.0730558 137.5347830  82.0688527  66.4474504 136.1660590
  76.5428826  62.5197418 142.1642761  76.4048624  61.7877656 142.7654300
  77.4533749  62.4306318 141.8826949  85.5043773  64.4585822 126.9127240
  84.8872944  63.7332650 126.8160292  85.0360262  65.2195182 126.5694314
  79.1711126  62.2317377 141.6526441  79.8810745  61.5910569 141.6113059
  79.1280434  62.4830272 142.5752622  87.1597905  69.1684730 144.5733020
  87.1010451  68.4843950 143.9063603  87.5617423  69.9103720 144.1213646
  77.8840060  59.2182595 143.4722080  77.3477417  58.7673333 144.1243677
  77.2956769  59.3528504 142.7292545  76.1788604  75.9846644 137.3666739
  76.4185202  76.6165168 138.0445758  75.3357800  75.6334684 137.6532098
  77.2942319  58.6771246 126.0348544  76.4171785  58.5560047 125.6710791
  77.7700072  57.8857325 125.7827433  87.1615312  67.1324314 142.8047000
  86.2742091  66.7950236 142.9273399  87.7313863  66.4007345 143.0415765
  68.8144459  63.4648406 136.1290051  69.5015499  63.1510136 135.5411066
  68.6592588  64.3689771 135.8557303  73.6179181  58.3538603 140.5575075
  73.5337370  57.7464272 139.8225485  72.7961888  58.8447621 140.5584571
  80.6916466  71.7925767 139.7708243  80.6186637  72.5980738 140.2827548
  80.2493859  71.9917732 138.9456264  80.4806245  71.0297537 133.2811065
  79.6973767  71.5719217 133.3749289  81.1798990  71.5471516 133.6805306
  83.7902895  56.8392166 135.9245270  84.2871595  56.0862128 135.6046340
  83.0189877  56.8756483 135.3588479  91.6432653  62.5432532 137.5663561
  91.6322529  63.4257247 137.1957495  90.7750032  62.1904082 137.3718098
  83.1515149  71.6912601 141.9266402  83.8643121  72.3260065 141.8542303
  82.6605178  71.7876467 141.1106403  84.8732676  65.5963853 133.4983693
  83.9388955  65.7165316 133.3288398  85.0509344  64.6936320 133.2343703
  80.3737864  58.9809549 135.6516955  80.0035652  58.4280589 136.3397860
  80.8696957  58.3767683 135.0991955  88.2605227  61.4381173 134.0333727
  88.7265680  62.2709164 133.9594030  88.7112728  60.9726154 134.7378986
  78.2027063  69.4407044 142.7471972  78.9036522  70.0743527 142.9001367
  77.7322178  69.7821776 141.9867612  86.3281458  67.7824994 131.0319879
  86.6041302  67.6681588 131.9413754  85.4585957  67.3842479 130.9932053
  86.2321890  53.8061760 138.0724629  85.3184970  54.0365986 138.2406836
  86.6614992  53.8900204 138.9238661  86.0028349  61.9951652 140.5724523
  85.3499799  62.2427559 139.9176976  86.3808729  61.1815790 140.2387000
  82.9635522  72.0311345 134.6752693  83.1457917  71.2133001 135.1380445
  83.7868508  72.2479037 134.2377583  83.2977688  70.9579530 131.9367742
  83.8265454  70.4471984 131.3237904  83.5605908  70.6422060 132.8013275
  82.0515922  62.7371463 147.0590560  81.3756559  62.6365592 147.7292935
  82.8743556  62.5810676 147.5226557  73.7994781  68.9743399 139.6803075
  74.3848218  68.2287087 139.8130979  73.6019619  69.2847356 140.5639739
  76.6533436  72.0094647 134.6965518  75.9843811  72.4940774 134.2129558
  76.5146306  72.2563867 135.6108896  68.3912435  61.5448999 138.4007518
  68.4296535  61.0112590 139.1944636  67.8852728  61.0184205 137.7818495
  80.7938705  74.0438390 141.2948176  81.3457013  74.2070012 142.0597261
  81.1344898  74.6342828 140.6228201  75.7703198  56.3913540 141.8970061
  75.8344524  57.2528371 141.4847458  75.7070318  55.7787542 141.1642419
  75.2455470  58.4636672 145.5443095  75.8727509  58.0813750 146.1580619
  74.3883389  58.2450874 145.9098787  85.6449579  68.8699648 147.1496830
  86.1889483  69.4829606 146.6551785  85.0636424  69.4279226 147.6663843
  72.0221013  60.2713102 131.4761450  72.3174454  59.3623780 131.4228503
  71.1209049  60.2500841 131.1542452  83.9307092  71.9920366 138.2811858
  83.8058231  71.1910105 137.7722804  84.5886183  72.4866559 137.7925828
  75.5515260  58.3469098 137.4588998  74.8301846  58.9605066 137.3196472
  76.3408516  58.8826863 137.3805644  85.9942000  69.7929386 139.9091408
  85.0472336  69.6734737 139.8369735  86.3424773  68.9051884 139.9917670
  78.3541574  55.6823525 143.7329650  78.8775975  55.9285821 144.4955959
  78.1353907  56.5143559 143.3132787  73.7508855  57.9527199 131.6000775
  73.4221561  57.0724578 131.4175881  74.1048225  57.8974868 132.4877164
  82.9988433  69.5882102 136.1095760  82.8513396  68.6598809 136.2903330
  83.8241927  69.6102193 135.6252836  76.8650678  58.2400169 131.9676253
  77.2046750  58.7686090 131.2454861  77.3122798  58.5780575 132.7434819
  86.6022555  70.4110661 137.1960633  87.5269103  70.2053522 137.0585084
  86.4337859  70.1627062 138.1049975  79.5594119  56.6237220 141.4179321
  79.2190939  55.8245033 141.8200000  78.8533125  56.9238931 140.8456154
  80.2110590  53.7086532 139.8706644  81.0336660  53.2347010 139.7485534
  80.4548654  54.4877016 140.3705330  78.8518825  56.7374791 130.1669545
  79.5727187  57.1156043 129.6633262  78.2284129  57.4563667 130.2704523
  82.9949948  57.4419940 131.1027878  83.2113562  58.3244577 130.8016706
  82.5144015  57.0506153 130.3733520  77.7349169  60.4005653 137.6798622
  77.5893750  60.7145956 138.5722904  77.2574373  61.0190553 137.1269521
  79.5945552  57.3908201 137.7279512  79.5807121  56.4949294 137.3911810
  80.3117980  57.3978864 138.3617798  81.4471683  57.8245541 139.7732639
  81.1889461  58.7462612 139.7716970  80.9156723  57.4275975 140.4633103
  86.3917872  70.9296328 132.5522725  86.5654749  70.3642751 131.7996577
  86.8846763  71.7297223 132.3702215  72.2094831  62.9410997 140.6186283
  71.6648299  63.7170805 140.7506558  73.0874181  63.2881802 140.4605405
  78.9982448  56.2722581 132.9967082  79.1198359  55.3439227 133.1957969
  78.7084490  56.2861267 132.0845397  81.8673638  53.9577491 136.1333802
  81.8895335  54.0216825 135.1785781  82.2841697  53.1182000 136.3274308
  92.2457263  63.6932751 134.1713024  92.6888409  62.9440076 133.7732148
  91.3683773  63.6842887 133.7886756  87.3793044  70.2463092 129.6519623
  88.0743949  70.8669785 129.8706938  87.7216194  69.3958444 129.9272001
  72.9960853  62.0680893 143.5116440  72.2542589  62.2163529 144.0981071
  72.6753597  62.3289159 142.6483190  89.2784467  67.6962798 131.1806954
  89.8035791  68.0350071 130.4556274  89.1906820  66.7609813 130.9970088
  80.9404516  71.6096872 143.3096830  81.2491642  71.3646018 144.1819530
  81.7379998  71.8143510 142.8215700  80.9625128  73.7634781 135.5402207
  80.5230118  73.2711160 136.2335064  81.7133245  73.2207749 135.2994282
  73.4417467  69.9546322 135.5426835  74.2675487  69.6550094 135.1625478
  73.0911519  69.1853945 135.9916624  78.4099000  69.3072790 137.6124508
  77.7879009  68.6443495 137.3126736  79.0803867  69.3333922 136.9298156
  71.6426072  67.8732649 136.5015768  70.8057980  67.4454823 136.3199770
  71.6149717  68.0665092 137.4386560  78.4823528  57.7854578 147.2057015
  78.5311683  58.6616701 146.8234784  79.0246042  57.2431971 146.6328658
  88.9678373  68.3295702 146.4858152  88.1773917  68.3119840 145.9462651
  88.7311728  68.8683995 147.2407188  89.0876248  65.1788168 143.7990880
  89.1374253  65.0138175 144.7406403  88.9790172  64.3115427 143.4088761
  77.9712507  67.8576714 131.0882969  78.1200627  68.5412178 130.4349642
  78.7778950  67.8381804 131.6032425  86.3780011  61.1619096 145.1150187
  87.2789873  61.0225561 144.8234185  86.4527985  61.3273551 146.0548364
  80.7122816  58.5385951 143.9603373  79.8426125  58.8319517 143.6885962
  80.9482296  59.1226396 144.6810637  90.5894445  67.5985110 144.0432902
  90.2979253  67.9615090 144.8796363  89.9766576  66.8852118 143.8646234
  91.7890127  65.1637989 136.5635472  92.6237019  65.6027793 136.7273032
  91.9249256  64.6876643 135.7443718  88.8381633  62.7217724 142.5112960
  89.3135755  62.9145370 141.7031811  87.9147199  62.7776910 142.2656343
  75.7265140  63.8841891 132.0944038  75.4811182  62.9804221 132.2924248
  75.8961054  63.8859042 131.1523516  83.4161850  54.7565568 141.4768794
  83.9343794  55.4926595 141.1515282  83.0616983  55.0629561 142.3115553
  74.9960787  59.6170249 129.5930199  74.3030032  59.6914604 128.9370235
  74.7512539  58.8530593 130.1151716  83.6674444  51.1765850 136.9969690
  83.9476198  50.5089039 137.6230117  84.4525051  51.3694946 136.4844354
  81.4707912  70.3524844 128.5594716  80.8981880  70.9715031 128.1065188
  82.0440706  70.9024206 129.0934638  87.5383302  59.5983484 140.7441265
  88.4900725  59.6981582 140.7653489  87.3686753  58.8061753 141.2539350
  85.5597682  56.6839067 140.9300666  84.9647614  56.9644080 140.2347155
  85.2747378  57.1732968 141.7017407  84.6905172  70.6361994 129.6903299
  85.6235845  70.5707556 129.8936174  84.6028385  71.4718261 129.2317831
  87.3193189  69.9527865 126.6507246  87.2406820  69.6187728 127.5443004
  88.1402856  70.4449633 126.6498719  90.0171380  62.8189604 139.8583565
  89.9847700  61.8805605 140.0443249  90.6272004  62.8973641 139.1249390
  81.8554711  61.6885657 125.9010769  82.8013816  61.5591865 125.9699187
  81.4768956  60.9500319 126.3780197  90.1665869  59.6100647 139.9041848
  89.6504917  58.8259104 139.7171777  91.0505817  59.2819364 140.0688368
  87.8276596  53.3541663 135.8637661  87.6301417  53.0456751 136.7480993
  88.4376301  54.0803302 135.9935591  95.8347930  63.8805611 138.9989602
  96.5651318  63.6190899 139.5597305  95.2254875  63.1434333 139.0391670
  93.9163227  62.0213473 139.5964053  93.1896391  61.8869438 138.9880544
  93.5010514  62.3290302 140.4020771  81.7393403  65.7403403 147.3611426
  82.6596413  65.9182002 147.5551472  81.7042987  64.7959448 147.2091125
  80.0397628  59.6135633 125.8365654  79.1329084  59.3168746 125.9128368
  80.3173609  59.3165451 124.9699940  70.9575568  60.9341997 136.2864701
  70.6378353  60.0807305 135.9939075  70.4108997  61.1490575 137.0422668
  74.7355476  63.6504438 140.0034207  74.9541486  64.5821546 140.0222241
  75.1481250  63.2912412 140.7889011  81.6559694  54.1572523 131.9909895
  80.8460422  53.8119608 132.3665142  82.3444111  53.8480067 132.5797507
  83.5850242  53.2350570 133.6134192  84.1381281  53.6546023 134.2724215
  83.8220328  52.3086318 133.6557148  79.6083341  59.2237643 149.3936956
  79.5080068  60.1732000 149.3249047  79.3904883  58.8955882 148.5213026
  78.8096413  56.4722569 125.9777633  79.6715577  56.7977467 126.2373451
  78.9946757  55.6854064 125.4650699  70.8263828  64.5544908 138.2557822
  70.1327300  64.1398861 137.7427777  71.5736819  64.5965445 137.6591241
  86.9629049  55.3451095 133.1212856  86.3827718  56.0035899 132.7390909
  86.6964982  54.5228440 132.7100274  85.4132616  54.7456153 135.3234177
  85.9132394  54.8572687 134.5148496  86.0568224  54.4417206 135.9634985
  79.4714611  62.6534782 148.2102018  78.9881693  63.4535142 148.4165907
  79.5575550  62.6642727 147.2569462  72.7400571  64.4863162 136.1323837
  72.7171259  64.5850849 135.1805720  73.0501208  65.3328313 136.4541003
  75.3987949  66.5439317 140.2470451  76.3531202  66.5123259 140.1800383
  75.2000472  66.0829941 141.0620677  75.9887331  65.1140433 142.8141249
  76.8080220  65.6084512 142.8376086  76.2624139  64.1972401 142.7858817
  85.7453927  57.5051185 132.1769205  84.8579782  57.7900836 131.9589399
  86.1607916  57.3444949 131.3296482  89.0968463  57.5297706 135.8923544
  89.8728853  58.0194159 136.1648161  88.3716598  57.9555761 136.3495413
  91.5341022  58.2425326 136.9497485  92.1285513  58.0021062 136.2390793
  91.6067606  57.5232456 137.5771021  73.7538178  72.0858937 137.2640649
  73.6192646  71.3259337 136.6978647  73.3370240  72.8099836 136.7969438
  84.8897141  67.2695860 126.2717225  85.5932991  67.4745863 126.8874880
  84.1659789  67.8372622 126.5366308  85.7194951  63.0205721 132.3919495
  85.6630152  63.4774273 131.5527127  86.2723293  62.2596406 132.2142338
  89.5299757  58.8095453 133.2169614  89.2736691  58.4092089 134.0477822
  88.9052625  59.5239247 133.0919753  93.8412095  61.5491526 135.7240906
  93.2811653  61.6184716 136.4972468  93.2355598  61.3732511 135.0040402
  76.9107304  72.9828254 137.4759092  76.7939688  73.9273686 137.3737782
  76.0899750  72.6801815 137.8644891  86.7983838  67.7078389 128.3215685
  87.6329442  67.2759588 128.1393159  86.6368181  67.5360403 129.2492579
  86.4529730  64.2110503 129.6872024  86.3978534  64.0454774 128.7460468
  85.8275786  64.9186535 129.8434214  71.2422245  59.4478567 143.5133446
  71.8881109  58.9377521 144.0020671  71.0339396  60.1847249 144.0876871
  83.7675637  66.5159414 149.0125587  84.6366797  66.6900067 148.6512222
  83.2882389  67.3353831 148.8901316  79.7625856  53.7118612 129.2657342
  79.7504526  54.6560451 129.4225613  80.6549278  53.5288757 128.9716804
  77.9361818  73.6356515 140.6915020  78.8389064  73.6680126 141.0081515
  77.7099188  72.7056966 140.7061356  79.6915420  72.3887502 137.3525099
  78.7411051  72.3889364 137.2389471  79.9947906  71.6420237 136.8361134
  83.5777975  50.3061388 133.5203279  82.8110371  49.7519875 133.6659962
  83.9888680  50.3783257 134.3817431  75.5819736  56.5946184 147.6108460
  76.4451198  56.2382989 147.8211785  75.0085147  56.2560079 148.2983865
  95.4268113  78.2248040 138.4170861  96.0646523  78.1054788 137.7134201
  95.3088956  79.1728884 138.4758814  92.2357819  78.1775468 138.3532386
  91.8976331  78.0616533 137.4652921  93.1047588  77.7766634 138.3333392
  88.0944635  80.0310945 134.3429277  87.5309500  79.9400882 133.5745565
  87.9797030  79.2110849 134.8231770  85.6409067  81.5262136 137.1813498
  86.4330359  81.1852961 136.7659797  85.8805717  81.6357112 138.1015651
  93.6744194  83.6981913 129.6543742  93.0232174  84.2835993 129.2677756
  94.4688557  84.2288107 129.7138779  87.5999821  80.7871050 130.0530876
  88.3730697  80.2400037 129.9143752  87.9525220  81.6515299 130.2645338
  90.3641070  79.4924281 139.8499135  90.9604643  79.2680303 139.1356098
  90.4216042  78.7509026 140.4524583  89.9366099  76.9463716 127.6849326
  90.1891620  76.4245237 126.9232789  88.9990658  76.7829861 127.7876010
  94.9809382  75.9499494 135.4924069  95.7672471  75.5318917 135.1414486
  95.2448086  76.8545586 135.6605718  95.1519459  81.3872345 130.1912726
  94.5165292  81.4606971 130.9033631  94.8216865  81.9765943 129.5131806
 100.3817809  75.8874727 136.3957048 101.1142981  75.3173944 136.6294877
  99.6257165  75.4996328 136.8363554  89.6562388  78.8491822 129.8873701
  89.5398646  78.1736725 130.5554785  89.7664647  78.3624196 129.0705854
  91.9993929  78.3101969 133.5920390  91.6352136  77.7832590 134.3033312
  92.8561044  77.9200438 133.4186876  97.9043229  69.5996302 140.8551657
  97.5726554  70.4691712 140.6312872  97.3088843  69.2832586 141.5345687
  91.6399416  73.3391869 128.5881739  91.8073818  74.2072105 128.9552210
  91.4496585  73.5019150 127.6643028  87.8487230  78.2522644 136.2884274
  86.9237727  78.1198858 136.4961965  88.0971643  79.0316864 136.7854216
  97.7971892  74.3191388 137.9345007  96.8888770  74.2506796 137.6403768
  97.7459488  74.7963333 138.7626832  91.6188636  75.7949526 129.5728406
  91.4988262  76.2406577 130.4113886  90.9241225  76.1434844 129.0141944
  85.2096041  77.8955918 137.1228063  85.3388422  78.1490397 138.0367475
  84.5293493  78.4883626 136.8032718  89.3795529  88.5653168 133.2218537
  89.3019558  89.5160993 133.3007018  88.7757172  88.2199040 133.8793463
  99.6633539  72.5207826 139.7122881  99.0207919  72.8140359 139.0662675
  99.1588467  72.4060746 140.5176077  97.3173703  76.2670999 130.4008740
  98.2291559  76.4998386 130.2256437  96.8083350  76.8508043 129.8383818
  91.9545540  75.6268234 141.4103589  92.8006735  76.0507647 141.5538238
  91.8944178  74.9701858 142.1042152  95.9243285  81.2496818 137.7922321
  95.2952147  81.4142532 137.0898389  95.5368947  81.6638427 138.5633285
  99.8032517  82.1851256 135.1466685  99.1183555  82.5650157 134.5963718
  99.8876366  82.7946582 135.8798633  95.1044986  73.2872602 143.0684763
  94.8605917  74.0414663 142.5319039  95.3804916  73.6657950 143.9032010
  94.6609677  72.4429035 138.6498601  93.7994156  72.7410289 138.9415338
  94.6872112  72.6599434 137.7179633  91.4771247  80.9871226 135.0572406
  91.9409592  81.2658929 134.2677029  91.2128045  80.0854670 134.8745497
  88.3695328  80.5342707 137.9952170  88.9396685  80.9629976 137.3569654
  88.9603440  80.2525292 138.6936355  90.4140133  77.1094378 131.8661972
  91.1164176  77.5615422 132.3335898  90.0820761  76.4678197 132.4941865
  84.1565467  75.3677931 137.1679105  83.3664521  75.6235459 136.6919216
  84.6476714  76.1826269 137.2731146  86.1080212  75.7322510 134.1262582
  85.3111375  75.8441204 134.6446077  85.8805804  76.0709162 133.2603472
  82.4403170  75.6208421 139.5994096  82.6911208  76.5055431 139.8651672
  82.9762718  75.4413023 138.8269188 106.2635269  79.0521918 136.2669357
 105.5098978  78.4829317 136.1113362 106.3982811  79.0184583 137.2139992
  91.6533897  83.9235321 131.9424077  91.5179572  84.7686857 132.3708925
  92.1943710  84.1254598 131.1790011  88.1401237  70.0026901 148.6038432
  87.7468183  69.4493099 149.2786076  88.9567377  70.3137479 148.9944949
  85.1063295  81.4410759 132.5152002  85.6187815  82.2354009 132.6657566
  85.7586008  80.7437049 132.4485603  86.9158180  84.5576515 134.5974755
  87.0924808  85.4794480 134.4095739  87.7115013  84.2434934 135.0269135
  91.0569198  71.4184780 146.1958689  91.7978911  72.0191933 146.1163151
  91.2887121  70.6762418 145.6376731  86.2010536  76.6041147 144.4736918
  86.0864051  75.7026404 144.7744017  85.3455054  76.8504844 144.1221735
  88.0389495  86.0754689 140.5985097  88.5896920  85.9471752 139.8262091
  87.2000971  86.3749578 140.2479990  95.0026361  67.4465883 140.4722970
  94.6590630  68.3367524 140.3962081  95.3705324  67.2567540 139.6092555
  83.0712212  79.7699413 133.2911572  83.9087434  80.1796421 133.0745280
  83.2490479  78.8298855 133.2611766  94.9676644  77.4374494 128.9795405
  94.4523267  78.2079098 129.2183793  94.6953952  76.7639630 129.6028467
  92.5523755  72.2824195 134.0380644  91.6965351  71.8931045 133.8586282
  92.9650706  72.3616155 133.1780429  94.0822901  69.8170538 138.4372203
  93.5787697  69.7800673 137.6240009  94.3753508  70.7263281 138.4968860
  90.3265787  69.9009268 137.4438385  91.1918784  69.7052076 137.0844275
  90.3943296  69.6719619 138.3707742  99.9410918  80.1906848 130.9148579
  99.1640361  79.8518008 130.4703741 100.6202399  80.1959472 130.2403544
  94.7562947  75.3101586 130.8055186  94.4513082  75.6247735 131.6565330
  95.7093389  75.3883006 130.8482519  93.2009379  81.4691809 132.4548140
  92.6730740  80.7344569 132.1421378  92.6996881  82.2466486 132.2088109
  98.1802225  79.6640830 137.5715187  97.5225899  80.3540091 137.6595315
  98.9842624  80.0537262 137.9149173  87.9328106  72.1311475 134.8154752
  88.5071858  71.9086657 134.0827945  88.5199089  72.2000170 135.5683353
  96.9907684  78.0185202 135.6219129  97.5039565  78.6515194 136.1240838
  97.6408907  77.4186398 135.2562489  88.2597693  74.1615937 128.8350637
  87.4235006  74.4990623 129.1559912  88.1202463  74.0264916 127.8977774
  90.2350774  69.0052724 133.5429821  89.5815186  68.6901742 132.9186436
  90.1931248  68.3828465 134.2689644  91.3461979  79.2872019 125.4583113
  90.4389041  79.0561273 125.6574262  91.8433011  78.4909639 125.6457095
  94.2530058  87.9969527 128.3779800  93.5791757  88.3001223 128.9864757
  94.6395880  88.7998607 128.0285257  93.4688514  75.4934658 137.8677469
  92.5511076  75.7149605 137.7099157  93.8848658  75.5680968 137.0089176
  94.2523562  76.8926074 132.9980149  94.9995381  77.4047471 132.6887271
  94.5215152  76.5710126 133.8584543  92.5250212  79.3884614 129.9807104
  91.6161432  79.1043647 130.0779573  92.5545296  79.8083693 129.1210410
  97.7569480  82.9991204 133.7498271  97.3031807  82.1582114 133.8063462
  97.1263446  83.6352602 134.0873051  96.7002399  73.9283190 134.9798939
  95.9625156  73.4160576 135.3109181  96.9529173  73.4883571 134.1682215
  96.2002419  84.8367701 134.6848089  96.4925393  85.3972758 133.9660455
  96.7101040  85.1296262 135.4401248  96.8014027  66.7059442 135.5740708
  97.1072903  65.8456805 135.2866623  97.5266631  67.2977062 135.3739702
  83.0938383  77.1090128 133.9622306  82.8962783  76.5159489 133.2373372
  82.5385047  76.8042339 134.6798245  91.0735106  77.0013235 136.0816899
  91.1283716  76.0487071 136.0059376  90.2626308  77.1572674 136.5658197
  92.2226300  80.9293358 127.3195182  91.7845730  80.2129217 126.8600820
  92.9636741  81.1569473 126.7580274  89.0127466  75.6190295 133.8407278
  88.1995332  75.9184465 134.2472470  89.5086460  75.2245983 134.5581760
  91.1636044  85.6148052 135.7741542  91.1212223  85.8408898 134.8450075
  92.0798743  85.3811426 135.9227344  94.6101678  76.0832119 142.6722172
  94.9651066  76.3103592 143.5316637  95.2573809  76.4150496 142.0499427
 100.3399415  79.2050555 133.3771501 100.2017314  79.3952151 132.4492690
  99.9835634  79.9669938 133.8339552  88.5041541  73.1908650 139.4568513
  89.1440920  73.0497409 138.7591476  87.6719072  72.9043164 139.0807115
  89.2801845  82.4911081 135.5703505  90.0742443  81.9961401 135.3686080
  88.5693537  81.9628944 135.2071211  85.5884608  76.6354162 131.6463258
  84.6582197  76.5738618 131.8633220  85.6842080  76.1130115 130.8499899
  85.5070157  73.1608975 134.2341500  85.7676975  74.0754308 134.1250660
  86.3287330  72.6933418 134.3838112  86.9795083  74.5746732 141.4040324
  87.6518136  74.3664094 140.7552973  86.1524869  74.3768818 140.9645556
  92.8820655  71.2008673 143.4205985  92.2348570  71.8998623 143.3270461
  93.6521670  71.6344817 143.7882233  93.0584789  79.0389438 141.4802805
  93.9876849  79.1900598 141.3071772  92.6375819  79.1273459 140.6251451
  91.8573121  83.0640103 139.2501342  91.7184207  82.6958887 140.1227280
  91.0687717  83.5787742 139.0785300  92.4521273  88.1649199 130.5926879
  92.6273029  87.6937242 131.4072502  91.7654061  88.7914965 130.8208140
  93.4078336  82.4421705 136.6390180  93.0728169  82.4022475 137.5347830
  92.9082282  81.7766421 136.1660590  87.3822580  77.8489335 142.1642761
  87.2442378  77.1169574 142.7654300  88.2927504  77.7598235 141.8826949
  96.3437528  79.7877740 126.9127240  95.7266698  79.0624568 126.8160292
  95.8754016  80.5487100 126.5694314  90.0104881  77.5609295 141.6526441
  90.7204499  76.9202487 141.6113059  89.9674189  77.8122190 142.5752622
  88.7233815  74.5474513 143.4722080  88.1871172  74.0965251 144.1243677
  88.1350523  74.6820421 142.7292545  88.1336074  74.0063164 126.0348544
  87.2565540  73.8851965 125.6710791  88.6093827  73.2149242 125.7827433
  79.6538214  78.7940324 136.1290051  80.3409254  78.4802054 135.5411066
  79.4986342  79.6981688 135.8557303  84.4572936  73.6830520 140.5575075
  84.3731125  73.0756190 139.8225485  83.6355642  74.1739539 140.5584571
  91.3200000  86.3589454 133.2811065  90.5367522  86.9011134 133.3749289
  92.0192745  86.8763434 133.6805306  94.6296650  72.1684084 135.9245270
  95.1265349  71.4154046 135.6046340  93.8583631  72.2048400 135.3588479
 102.4826407  77.8724449 137.5663561 102.4716283  78.7549165 137.1957495
 101.6143787  77.5196000 137.3718098  95.7126431  80.9255771 133.4983693
  94.7782709  81.0457233 133.3288398  95.8903099  80.0228238 133.2343703
  91.2131619  74.3101467 135.6516955  90.8429406  73.7572507 136.3397860
  91.7090711  73.7059600 135.0991955  99.0998982  76.7673090 134.0333727
  99.5659434  77.6001082 133.9594030  99.5506482  76.3018072 134.7378986
  97.1675213  83.1116912 131.0319879  97.4435057  82.9973506 131.9413754
  96.2979712  82.7134396 130.9932053  97.0715645  69.1353677 138.0724629
  96.1578724  69.3657904 138.2406836  97.5008746  69.2192121 138.9238661
  96.8422103  77.3243569 140.5724523  96.1893553  77.5719477 139.9176976
  97.2202483  76.5107707 140.2387000  93.8029277  87.3603262 134.6752693
  93.9851672  86.5424918 135.1380445  94.6262263  87.5770955 134.2377583
  94.1371442  86.2871448 131.9367742  94.6659209  85.7763902 131.3237904
  94.3999662  85.9713978 132.8013275  84.6388535  84.3035317 139.6803075
  85.2241972  83.5579005 139.8130979  84.4413374  84.6139274 140.5639739
  87.4927190  87.3386564 134.6965518  86.8237566  87.8232692 134.2129558
  87.3540060  87.5855785 135.6108896  79.2306190  76.8740917 138.4007518
  79.2690289  76.3404508 139.1944636  78.7246483  76.3476123 137.7818495
  86.6096952  71.7205458 141.8970061  86.6738279  72.5820288 141.4847458
  86.5464072  71.1079459 141.1642419  86.0849225  73.7928590 145.5443095
  86.7121264  73.4105667 146.1580619  85.2277144  73.5742792 145.9098787
  82.8614768  75.6005019 131.4761450  83.1568209  74.6915698 131.4228503
  81.9602803  75.5792759 131.1542452  86.3909015  73.6761016 137.4588998
  85.6695600  74.2896983 137.3196472  87.1802270  74.2118781 137.3805644
  89.1935328  71.0115442 143.7329650  89.7169730  71.2577739 144.4955959
  88.9747661  71.8435477 143.3132787  84.5902609  73.2819117 131.6000775
  84.2615315  72.4016496 131.4175881  84.9441980  73.2266786 132.4877164
  93.8382188  84.9174020 136.1095760  93.6907150  83.9890727 136.2903330
  94.6635681  84.9394110 135.6252836  87.7044432  73.5692087 131.9676253
  88.0440505  74.0978008 131.2454861  88.1516553  73.9072493 132.7434819
  90.3987873  71.9529137 141.4179321  90.0584693  71.1536950 141.8200000
  89.6926879  72.2530848 140.8456154  91.0504345  69.0378450 139.8706644
  91.8730414  68.5638928 139.7485534  91.2942408  69.8168934 140.3705330
  89.6912579  72.0666708 130.1669545  90.4120942  72.4447961 129.6633262
  89.0677884  72.7855585 130.2704523  93.8343702  72.7711857 131.1027878
  94.0507317  73.6536495 130.8016706  93.3537769  72.3798071 130.3733520
  88.5742924  75.7297570 137.6798622  88.4287504  76.0437874 138.5722904
  88.0968127  76.3482471 137.1269521  90.4339307  72.7200118 137.7279512
  90.4200875  71.8241212 137.3911810  91.1511735  72.7270782 138.3617798
  92.2865437  73.1537459 139.7732639  92.0283215  74.0754529 139.7716970
  91.7550478  72.7567893 140.4633103  97.2311626  86.2588246 132.5522725
  97.4048504  85.6934668 131.7996577  97.7240517  87.0589141 132.3702215
  83.0488586  78.2702915 140.6186283  82.5042054  79.0462723 140.7506558
  83.9267936  78.6173719 140.4605405  89.8376202  71.6014499 132.9967082
  89.9592114  70.6731145 133.1957969  89.5478245  71.6153185 132.0845397
  92.7067393  69.2869409 136.1333802  92.7289090  69.3508742 135.1785781
  93.1235452  68.4473918 136.3274308 103.0851017  79.0224669 134.1713024
 103.5282163  78.2731994 133.7732148 102.2077527  79.0134805 133.7886756
  98.2186799  85.5755010 129.6519623  98.9137703  86.1961703 129.8706938
  98.5609949  84.7250361 129.9272001  83.8354608  77.3972811 143.5116440
  83.0936344  77.5455446 144.0981071  83.5147352  77.6581077 142.6483190
 100.1178222  83.0254716 131.1806954 100.6429546  83.3641988 130.4556274
 100.0300574  82.0901731 130.9970088  91.8018882  89.0926699 135.5402207
  91.3623873  88.6003078 136.2335064  92.5526999  88.5499667 135.2994282
  84.2811221  85.2838240 135.5426835  85.1069241  84.9842012 135.1625478
  83.9305273  84.5145862 135.9916624  89.2492755  84.6364708 137.6124508
  88.6272764  83.9735413 137.3126736  89.9197621  84.6625840 136.9298156
  82.4819826  83.2024566 136.5015768  81.6451735  82.7746741 136.3199770
  82.4543472  83.3957010 137.4386560  89.3217282  73.1146496 147.2057015
  89.3705437  73.9908619 146.8234784  89.8639796  72.5723889 146.6328658
  88.8106261  83.1868631 131.0882969  88.9594382  83.8704096 130.4349642
  89.6172705  83.1673721 131.6032425  91.5516570  73.8677868 143.9603373
  90.6819880  74.1611435 143.6885962  91.7876051  74.4518313 144.6810637
 102.6283882  80.4929907 136.5635472 103.4630773  80.9319711 136.7273032
 102.7643011  80.0168560 135.7443718  86.5658894  79.2133809 132.0944038
  86.3204936  78.3096139 132.2924248  86.7354809  79.2150959 131.1523516
  94.2555604  70.0857485 141.4768794  94.7737548  70.8218512 141.1515282
  93.9010737  70.3921479 142.3115553  85.8354542  74.9462167 129.5930199
  85.1423787  75.0206522 128.9370235  85.5906294  74.1822510 130.1151716
  94.5068198  66.5057768 136.9969690  94.7869952  65.8380957 137.6230117
  95.2918805  66.6986864 136.4844354  92.3101667  85.6816762 128.5594716
  91.7375634  86.3006949 128.1065188  92.8834461  86.2316124 129.0934638
  98.3777057  74.9275402 140.7441265  99.3294480  75.0273500 140.7653489
  98.2080507  74.1353670 141.2539350  96.3991436  72.0130985 140.9300666
  95.8041368  72.2935998 140.2347155  96.1141133  72.5024886 141.7017407
  95.5298927  85.9653912 129.6903299  96.4629600  85.8999474 129.8936174
  95.4422140  86.8010179 129.2317831  98.1586943  85.2819782 126.6507246
  98.0800575  84.9479646 127.5443004  98.9796610  85.7741550 126.6498719
 100.8565135  78.1481522 139.8583565 100.8241455  77.2097522 140.0443249
 101.4665758  78.2265558 139.1249390  92.6948465  77.0177575 125.9010769
  93.6407570  76.8883783 125.9699187  92.3162710  76.2792236 126.3780197
 101.0059623  74.9392565 139.9041848 100.4898672  74.1551022 139.7171777
 101.8899572  74.6111282 140.0688368  98.6670350  68.6833581 135.8637661
  98.4695171  68.3748669 136.7480993  99.2770056  69.4095220 135.9935591
  90.8791383  74.9427551 125.8365654  89.9722838  74.6460664 125.9128368
  91.1567364  74.6457369 124.9699940  81.7969323  76.2633914 136.2864701
  81.4772107  75.4099223 135.9939075  81.2502751  76.4782493 137.0422668
  85.5749231  78.9796355 140.0034207  85.7935240  79.9113463 140.0222241
  85.9875004  78.6204330 140.7889011  92.4953448  69.4864441 131.9909895
  91.6854177  69.1411526 132.3665142  93.1837865  69.1771984 132.5797507
  94.4243997  68.5642488 133.6134192  94.9775035  68.9837941 134.2724215
  94.6614083  67.6378236 133.6557148  89.6490167  71.8014486 125.9777633
  90.5109331  72.1269385 126.2373451  89.8340511  71.0145982 125.4650699
  81.6657583  79.8836826 138.2557822  80.9721054  79.4690779 137.7427777
  82.4130574  79.9257362 137.6591241  97.8022804  70.6743013 133.1212856
  97.2221473  71.3327817 132.7390909  97.5358736  69.8520357 132.7100274
  96.2526370  70.0748070 135.3234177  96.7526148  70.1864605 134.5148496
  96.8961978  69.7709123 135.9634985  83.5794326  79.8155080 136.1323837
  83.5565014  79.9142767 135.1805720  83.8894962  80.6620230 136.4541003
  86.2381703  81.8731235 140.2470451  87.1924957  81.8415177 140.1800383
  86.0394227  81.4121858 141.0620677  86.8281086  80.4432351 142.8141249
  87.6473975  80.9376429 142.8376086  87.1017893  79.5264319 142.7858817
  96.5847682  72.8343103 132.1769205  95.6973537  73.1192754 131.9589399
  97.0001671  72.6736866 131.3296482  99.9362218  72.8589624 135.8923544
 100.7122608  73.3486076 136.1648161  99.2110352  73.2847678 136.3495413
 102.3734776  73.5717243 136.9497485 102.9679267  73.3312979 136.2390793
 102.4461360  72.8524374 137.5771021  84.5931932  87.4150854 137.2640649
  84.4586400  86.6551255 136.6978647  84.1763994  88.1391754 136.7969438
  95.7290895  82.5987778 126.2717225  96.4326745  82.8037780 126.8874880
  95.0053544  83.1664540 126.5366308  96.5588705  78.3497639 132.3919495
  96.5023907  78.8066190 131.5527127  97.1117048  77.5888324 132.2142338
 100.3693511  74.1387371 133.2169614 100.1130446  73.7384007 134.0477822
  99.7446379  74.8531165 133.0919753 104.6805849  76.8783444 135.7240906
 104.1205407  76.9476633 136.4972468 104.0749353  76.7024429 135.0040402
  87.7501058  88.3120171 137.4759092  87.6333442  89.2565604 137.3737782
  86.9293504  88.0093733 137.8644891  97.6377593  83.0370307 128.3215685
  98.4723197  82.6051505 128.1393159  97.4761936  82.8652321 129.2492579
  97.2923485  79.5402420 129.6872024  97.2372289  79.3746692 128.7460468
  96.6669540  80.2478453 129.8434214  82.0816000  74.7770485 143.5133446
  82.7274863  74.2669439 144.0020671  81.8733151  75.5139166 144.0876871
  90.6019610  69.0410529 129.2657342  90.5898280  69.9852369 129.4225613
  91.4943032  68.8580675 128.9716804  90.5309174  87.7179420 137.3525099
  89.5804805  87.7181281 137.2389471  90.8341660  86.9712154 136.8361134
  94.4171730  65.6353306 133.5203279  93.6504126  65.0811793 133.6659962
  94.8282435  65.7075175 134.3817431  86.4213491  71.9238102 147.6108460
  87.2844952  71.5674907 147.8211785  85.8478901  71.5851996 148.2983865
 100.7759853  92.2755634 127.6849326 101.0285374  91.7537155 126.9232789
  99.8384412  92.1121779 127.7876010 100.4956142  94.1783739 129.8873701
 100.3792400  93.5028643 130.5554785 100.6058402  93.6916113 129.0705854
 102.4793170  88.6683786 128.5881739 102.6467572  89.5364023 128.9552210
 102.2890339  88.8311068 127.6643028 102.4582391  91.1241444 129.5728406
 102.3382016  91.5698495 130.4113886 101.7634979  91.4726761 129.0141944
  96.9473967  91.0614428 134.1262582  96.1505130  91.1733122 134.6446077
  96.7199559  91.4001080 133.2603472 105.8070398  92.7666411 128.9795405
 105.2917022  93.5371016 129.2183793 105.5347707  92.0931548 129.6028467
  99.0991448  89.4907854 128.8350637  98.2628760  89.8282541 129.1559912
  98.9596218  89.3556834 127.8977774 101.0744529  84.3344642 133.5429821
 100.4208941  84.0193659 132.9186436 101.0325003  83.7120383 134.2689644
 102.1855733  94.6163937 125.4583113 101.2782795  94.3853191 125.6574262
 102.6826765  93.8201556 125.6457095  93.9332137  92.4382046 133.9622306
  93.7356537  91.8451407 133.2373372  93.3778801  92.1334256 134.6798245
 103.0620055  96.2585276 127.3195182 102.6239485  95.5421135 126.8600820
 103.8030495  96.4861390 126.7580274  96.4278363  91.9646080 131.6463258
  95.4975951  91.9030536 131.8633220  96.5235835  91.4422033 130.8499899
  96.3463912  88.4900893 134.2341500  96.6070729  89.4046226 134.1250660
  97.1681084  88.0225335 134.3838112 107.1831282  95.1169657 126.9127240
 106.5660453  94.3916485 126.8160292 106.7147771  95.8779018 126.5694314
  98.9729828  89.3355082 126.0348544  98.0959294  89.2143882 125.6710791
  99.4487581  88.5441160 125.7827433  93.7008522  90.9296937 131.4761450
  93.9961963  90.0207615 131.4228503  92.7996558  90.9084676 131.1542452
  95.4296364  88.6111035 131.6000775  95.1009070  87.7308413 131.4175881
  95.7835734  88.5558703 132.4877164  98.5438187  88.8984004 131.9676253
  98.8834259  89.4269926 131.2454861  98.9910307  89.2364410 132.7434819
 100.5306334  87.3958626 130.1669545 101.2514696  87.7739879 129.6633262
  99.9071638  88.1147503 130.2704523 104.6737457  88.1003775 131.1027878
 104.8901071  88.9828413 130.8016706 104.1931524  87.7089988 130.3733520
 100.6769957  86.9306416 132.9967082 100.7985868  86.0023063 133.1957969
 100.3871999  86.9445102 132.0845397  97.4052649  94.5425727 132.0944038
  97.1598691  93.6388057 132.2924248  97.5748563  94.5442877 131.1523516
  96.6748296  90.2754084 129.5930199  95.9817541  90.3498439 128.9370235
  96.4300048  89.5114428 130.1151716 103.5342220  92.3469492 125.9010769
 104.4801325  92.2175700 125.9699187 103.1556465  91.6084154 126.3780197
 101.7185137  90.2719469 125.8365654 100.8116592  89.9752581 125.9128368
 101.9961118  89.9749287 124.9699940 103.3347203  84.8156358 131.9909895
 102.5247931  84.4703443 132.3665142 104.0231620  84.5063902 132.5797507
 105.2637751  83.8934405 133.6134192 105.8168790  84.3129859 134.2724215
 105.5007837  82.9670153 133.6557148 100.4883922  87.1306404 125.9777633
 101.3503086  87.4561302 126.2373451 100.6734266  86.3437900 125.4650699
 101.4413365  84.3702447 129.2657342 101.4292035  85.3144287 129.4225613
 102.3336787  84.1872592 128.9716804 105.2565484  80.9645224 133.5203279
 104.4897880  80.4103710 133.6659962 105.6676189  81.0367092 134.3817431
  61.1562932  14.7168282 116.3789049  60.5050911  15.3022363 115.9923062
  61.9507294  15.2474477 116.4384086  57.4184837   7.9650085 114.4094633
  57.6710357   7.4431607 113.6478096  56.4809396   7.8016231 114.5121316
  62.6338197  12.4058714 116.9158033  61.9984030  12.4793341 117.6278938
  62.3035603  12.9952313 116.2377112  56.8614266  19.5839537 119.9463844
  56.7838296  20.5347362 120.0252324  56.2575910  19.2385410 120.6038770
  64.7992440   7.2857369 117.1254046  65.7110296   7.5184756 116.9501744
  64.2902087   7.8694413 116.5629125  67.2851255  13.2037625 121.8711992
  66.6002293  13.5836526 121.3209025  67.3695104  13.8132952 122.6043939
  59.1352635  14.9421690 118.6669383  58.9998310  15.7873226 119.0954231
  59.6762448  15.1440968 117.9035317  62.4495381   8.4560863 115.7040712
  61.9342005   9.2265468 115.9429099  62.1772690   7.7826000 116.3273773
  67.4229656  11.2093218 117.6393885  66.6459098  10.8704377 117.1949047
  68.1021137  11.2145841 116.9648850  58.8280717  10.3058389 112.1828420
  57.9207778  10.0747642 112.3819569  59.3251749   9.5096008 112.3702402
  61.7348796  19.0155896 115.1025106  61.0610494  19.3187593 115.7110064
  62.1214618  19.8184977 114.7530563  60.0068950  10.4070984 116.7052410
  59.0980169  10.1230017 116.8024880  60.0364034  10.8270062 115.8455717
  65.2388218  14.0177573 120.4743578  64.7850545  13.1768483 120.5308768
  64.6082184  14.6538972 120.8118358  63.6821157  15.8554070 121.4093396
  63.9744131  16.4159127 120.6905762  64.1919777  16.1482631 122.1646555
  59.7045038  11.9479728 114.0440489  59.2664468  11.2315586 113.5846126
  60.4455479  12.1755842 113.4825580  67.8218153  10.2236925 120.1016807
  67.6836051  10.4138521 119.1737997  67.4654372  10.9856307 120.5584858
  59.9340011  19.1835569 117.3172185  60.1091766  18.7123612 118.1317808
  59.2472799  19.8101335 117.5453446  63.8256266  10.8064109 113.6372546
  63.2085436  10.0810937 113.5405599  63.3572754  11.5673469 113.2939621
  58.8018737  17.3775824 120.0056371  58.0186259  17.9197504 120.0994596
  59.5011483  17.8949804 120.4050612  64.6493951  14.1303281 117.7565186
  64.9253795  14.0159876 118.6659060  63.7798449  13.7320766 117.7177359
  61.2848015  18.3789632 121.3998000  61.4670409  17.5611288 121.8625752
  62.1081001  18.5957324 120.9622890  61.6190180  17.3057817 118.6613048
  62.1477947  16.7950272 118.0483210  61.8818400  16.9900347 119.5258581
  64.7130364  17.2774615 119.2768031  64.8867241  16.7121038 118.5241884
  65.2059255  18.0775510 119.0947521  70.5669755  10.0411038 120.8958331
  71.0100901   9.2918363 120.4977454  69.6896265  10.0321175 120.5132063
  65.7005536  16.5941380 116.3764930  66.3956441  17.2148072 116.5952244
  66.0428686  15.7436731 116.6517307  67.5996959  14.0441085 117.9052260
  68.1248283  14.3828358 117.1801580  67.5119312  13.1088101 117.7215395
  56.2924999  14.2055001 117.8128276  56.4413120  14.8890465 117.1594948
  57.0991443  14.1860091 118.3277731  59.7920405  16.7003131 115.2840023
  59.2194372  17.3193319 114.8310495  60.3653198  17.2502493 115.8179945
  63.0117665  16.9840282 116.4148605  63.9448338  16.9185843 116.6181481
  62.9240877  17.8196548 115.9563138  65.6405681  16.3006152 113.3752553
  65.5619313  15.9666015 114.2688311  66.4615348  16.7927920 113.3744025
  60.1767203   8.0363944 112.6256076  61.1226308   7.9070152 112.6944494
  59.7981448   7.2978606 113.1025504  58.3610120   5.9613921 112.5610961
  57.4541576   5.6647033 112.6373674  58.6386101   5.6643739 111.6945247
  63.2109633  13.6174147 112.9962531  63.9145483  13.8224150 113.6120187
  62.4872282  14.1850909 113.2611615  65.1196330  14.0556676 115.0460991
  65.9541934  13.6237875 114.8638466  64.9580673  13.8838690 115.9737886
  64.7742223  10.5588790 116.4117331  64.7191026  10.3933061 115.4705775
  64.1488278  11.2664823 116.5679520  73.7480605  24.5726328 125.1416168
  74.3859015  24.4533075 124.4379508  73.6301448  25.5207172 125.2004120
  70.5570312  24.5253756 125.0777693  70.2188823  24.4094820 124.1898228
  71.4260080  24.1244921 125.0578699  66.4157127  26.3789232 121.0674584
  65.8521993  26.2879169 120.2990871  66.3009522  25.5589137 121.5477076
  63.9621559  27.8740424 123.9058804  64.7542851  27.5331248 123.4905103
  64.2018210  27.9835399 124.8260957  71.9956686  30.0460200 116.3789049
  71.3444666  30.6314280 115.9923062  72.7901049  30.5766395 116.4384086
  65.9212313  27.1349337 116.7776183  66.6943189  26.5878324 116.6389059
  66.2737712  27.9993586 116.9890644  67.7597356  28.4625719 129.9843082
  67.4687222  29.3671350 129.8689749  68.3954340  28.5042247 130.6987152
  68.6853563  25.8402568 126.5744442  69.2817135  25.6158590 125.8601405
  68.7428534  25.0987313 127.1769890  68.2578591  23.2942003 114.4094633
  68.5104112  22.7723524 113.6478096  67.3203150  23.1308149 114.5121316
  73.3021874  22.2977781 122.2169376  74.0884963  21.8797205 121.8659793
  73.5660578  23.2023874 122.3851024  73.4731951  27.7350632 116.9158033
  72.8377784  27.8085258 117.6278938  73.1429358  28.3244231 116.2377112
  78.7030301  22.2353015 123.1202355  79.4355473  21.6652231 123.3540184
  77.9469657  21.8474615 123.5608860  67.9774880  25.1970109 116.6119008
  67.8611138  24.5215012 117.2800092  68.0877140  24.7102483 115.7951161
  70.3206421  24.6580256 120.3165697  69.9564628  24.1310877 121.0278619
  71.1773537  24.2678725 120.1432182  69.9611908  19.6870156 115.3127046
  70.1286310  20.5550392 115.6797517  69.7709077  19.8497438 114.3888335
  72.7187241  28.1487135 126.9792876  72.4187964  29.0512174 126.8708683
  72.3738300  27.8819318 127.8314029  66.1699722  24.6000932 123.0129580
  65.2450219  24.4677146 123.2207272  66.4184136  25.3795151 123.5099523
  76.1184385  20.6669675 124.6590313  75.2101262  20.5985083 124.3649074
  76.0671981  21.1441620 125.4872139  69.9401129  22.1427813 116.2973712
  69.8200754  22.5884864 117.1359193  69.2453717  22.4913131 115.7387251
  63.5308533  24.2434205 123.8473369  63.6600915  24.4968684 124.7612781
  62.8505985  24.8361913 123.5278025  67.7008021  34.9131455 119.9463844
  67.6232050  35.8639280 120.0252324  67.0969664  34.5677328 120.6038770
  77.9846031  18.8686113 126.4368187  77.3420411  19.1618646 125.7907982
  77.4800960  18.7539034 127.2421384  75.6386195  22.6149287 117.1254046
  76.5504051  22.8476673 116.9501744  75.1295842  23.1986331 116.5629125
  73.9226962  27.0373914 130.7615339  74.3310319  26.5956325 130.0169971
  73.2004224  26.4626542 131.0149532  74.2455777  27.5975105 124.5167628
  73.6164640  27.7620819 123.8143696  73.8581439  28.0116715 125.2878592
  78.1245009  28.5329543 121.8711992  77.4396047  28.9128444 121.3209025
  78.2088858  29.1424869 122.6043939  75.3795941  26.1789502 128.4707335
  75.5912836  26.8221262 127.7941716  75.3325689  25.3451818 128.0029265
  72.9822170  18.7907322 125.3743907  72.1206649  19.0888576 125.6660645
  73.0084604  19.0077721 124.4424940  69.7983739  27.3349513 121.7817713
  70.2622085  27.6137216 120.9922335  69.5340537  26.4332958 121.5990804
  66.6907820  26.8820995 124.7197476  67.2609177  27.3108263 124.0814961
  67.2815932  26.6003579 125.4181662  68.7352625  23.4572665 118.5907278
  69.4376668  23.9093709 119.0581205  68.4033254  22.8156484 119.2187171
  62.4777959  21.7156218 123.8924412  61.6877013  21.9713747 123.4164522
  62.9689206  22.5304556 123.9976452  76.4941769  29.0561457 126.6429693
  77.3159212  28.6541645 126.3612374  76.4904171  28.9529691 127.5945808
  64.4292704  22.0800797 120.8507888  63.6323868  22.1919492 121.3691384
  64.2018297  22.4187450 119.9848779  70.2598372  28.6045501 128.7990403
  70.3242805  29.0665908 129.6348575  69.5509296  27.9742865 128.9272713
  84.5847762  25.4000206 122.9914664  83.8311470  24.8307604 122.8358668
  84.7195303  25.3662870 123.9385299  69.9746390  30.2713608 118.6669383
  69.8392064  31.1165144 119.0954231  70.5156202  30.4732886 117.9035317
  63.4275787  27.7889046 119.2397308  63.9400308  28.5832296 119.3902873
  64.0798500  27.0915337 119.1730910  65.2370672  30.9054802 121.3220062
  65.4137300  31.8272767 121.1341046  66.0327505  30.5913222 121.7514441
  71.6014866  30.8937175 132.7969725  71.1578720  30.1073553 132.4790630
  72.2632080  31.0816325 132.1313616  66.3601987  32.4232976 127.3230404
  66.9109412  32.2950040 126.5507398  65.5213463  32.7227865 126.9725297
  73.6996104  31.1739974 130.8251127  73.6814579  31.9948856 130.3331396
  74.6216024  31.0494050 131.0501268  61.3924704  26.1177700 120.0156879
  62.2299926  26.5274709 119.7990587  61.5702972  25.1777143 119.9857073
  73.2889136  23.7852781 115.7040712  72.7735759  24.5557386 115.9429099
  73.0166444  23.1117917 116.3273773  70.8736247  18.6302482 120.7625950
  70.0177843  18.2409332 120.5831589  71.2863199  18.7094443 119.9025736
  72.4035394  16.1648825 125.1617510  71.9000189  16.1278960 124.3485315
  72.6966001  17.0741568 125.2214167  78.2623410  26.5385136 117.6393885
  77.4852853  26.1996295 117.1949047  78.9414891  26.5437759 116.9648850
  73.0775439  21.6579873 117.5300493  72.7725575  21.9726022 118.3810636
  74.0305881  21.7361293 117.5727826  71.5221871  27.8170096 119.1793447
  70.9943233  27.0822856 118.8666685  71.0209374  28.5944773 118.9333415
  76.5014717  26.0119117 124.2960493  75.8438391  26.7018378 124.3840622
  77.3055116  26.4015549 124.6394480  66.2540599  18.4789763 121.5400059
  66.8284351  18.2564944 120.8073252  66.8411581  18.5478457 122.2928660
  75.3120176  24.3663490 122.3464435  75.8252058  24.9993481 122.8486145
  75.9621400  23.7664685 121.9807795  66.5810186  20.5094224 115.5595944
  65.7447498  20.8468910 115.8805219  66.4414955  20.3743204 114.6223081
  68.5563266  15.3531012 120.2675128  67.9027679  15.0380029 119.6431743
  68.5143740  14.7306752 120.9934951  69.6674471  25.6350307 112.1828420
  68.7601533  25.4039560 112.3819569  70.1645503  24.8387926 112.3702402
  72.5742550  34.3447814 115.1025106  71.9004249  34.6479511 115.7110064
  72.9608372  35.1476894 114.7530563  71.7901007  21.8412945 124.5922776
  70.8723568  22.0627892 124.4344464  72.2061150  21.9159256 123.7334483
  72.5736054  23.2404361 119.7225456  73.3207873  23.7525758 119.4132578
  72.8427644  22.9188414 120.5829849  70.8462705  25.7362902 116.7052410
  69.9373924  25.4521934 116.8024880  70.8757788  26.1561980 115.8455717
  76.0781972  29.3469491 120.4743578  75.6244299  28.5060401 120.5308768
  75.4475939  29.9830889 120.8118358  75.0214892  20.2761477 121.7044245
  74.2837648  19.7638863 122.0354488  75.2741665  19.8361859 120.8927522
  74.5214911  31.1845988 121.4093396  74.8137886  31.7451045 120.6905762
  75.0313532  31.4774549 122.1646555  75.1226519  13.0537729 122.2986015
  75.4285396  12.1935093 122.0111930  75.8479124  13.6455349 122.0985008
  61.4150875  23.4568416 120.6867612  61.2175275  22.8637776 119.9618679
  60.8597539  23.1520626 121.4043551  69.3947599  23.3491522 122.8062206
  69.4496208  22.3965359 122.7304682  68.5838801  23.5050961 123.2903504
  70.5438792  27.2771645 114.0440489  70.1058222  26.5607504 113.5846126
  71.2849233  27.5047760 113.4825580  67.3339959  21.9668582 120.5652584
  66.5207824  22.2662752 120.9717777  67.8298953  21.5724271 121.2827067
  69.4848536  31.9626339 122.4986849  69.4424715  32.1887185 121.5695381
  70.4011235  31.7289713 122.6472650  78.6611907  25.5528842 120.1016807
  78.5229806  25.7430438 119.1737997  78.3048126  26.3148225 120.5584858
  78.6881287  27.6205369 125.1128079  79.1217793  27.5280658 125.9611133
  79.4012868  27.5962870 124.4748095  67.6014337  28.8389368 122.2948812
  68.3954936  28.3439688 122.0931387  66.8906030  28.3107231 121.9316517
  72.4209182  31.2207463 126.6461179  72.4746204  31.7898400 127.4138895
  71.5523963  31.3909348 126.2815217  63.9097101  22.9832450 118.3708565
  62.9794689  22.9216905 118.5878527  64.0054573  22.4608402 117.5745206
  63.8282650  19.5087262 120.9586806  64.0889467  20.4232596 120.8495967
  64.6499822  19.0411705 121.1083419  79.5496836  27.6629070 127.6460964
  79.7432726  28.5674880 127.8920239  79.4497455  27.2036489 128.4799549
  74.6111945  27.8135813 133.2201845  74.4597451  27.5846364 132.3031929
  74.6016625  28.7706414 133.2333190  71.3797281  25.3867725 128.2048111
  72.3089341  25.5378885 128.0317079  70.9588311  25.4751746 127.3496758
  70.1785613  29.4118390 125.9746649  70.0396699  29.0437174 126.8472587
  69.3900209  29.9266029 125.8030607  70.7733765  34.5127486 117.3172185
  70.9485521  34.0415530 118.1317808  70.0866553  35.1393253 117.5453446
  71.7290828  28.7899993 123.3635487  71.3940661  28.7500763 124.2593137
  71.2294774  28.1244708 122.8905897  74.6650020  26.1356027 113.6372546
  74.0479191  25.4102855 113.5405599  74.1966508  26.8965387 113.2939621
  76.3204152  30.8454935 131.2978327  76.2616698  30.1614155 130.6308910
  76.7223670  31.5873925 130.8458953  65.3394850  37.6616849 124.0912046
  65.5791449  38.2935373 124.7691064  64.4964047  37.3104889 124.3777405
  66.4548566  20.3541451 112.7593851  65.5778032  20.2330252 112.3956097
  66.9306319  19.5627529 112.5072739  76.3221559  28.8094519 129.5292306
  75.4348338  28.4720441 129.6518705  76.8920110  28.0777550 129.7661072
  57.9750706  25.1418611 122.8535358  58.6621746  24.8280341 122.2656373
  57.8198835  26.0459976 122.5802609  69.8522712  33.4695972 126.4953550
  69.7792884  34.2750943 127.0072854  69.4100105  33.6687937 125.6701571
  69.6412492  32.7067742 120.0056371  68.8580014  33.2489422 120.0994596
  70.3405237  33.2241721 120.4050612  72.9509142  18.5162371 122.6490577
  73.4477842  17.7632333 122.3291647  72.1796124  18.5526688 122.0833786
  80.8038899  24.2202737 124.2908868  80.7928776  25.1027452 123.9202801
  79.9356279  23.8674287 124.0963405  72.3121396  33.3682806 128.6511708
  73.0249368  34.0030270 128.5787610  71.8211425  33.4646672 127.8351710
  74.0338923  27.2734058 120.2229000  73.0995202  27.3935521 120.0533704
  74.2115591  26.3706525 119.9589010  69.5344111  20.6579754 122.3762261
  69.1641898  20.1050794 123.0643167  70.0303203  20.0537887 121.8237261
  77.4211474  23.1151378 120.7579034  77.8871926  23.9479369 120.6839337
  77.8718975  22.6496359 121.4624293  67.3633309  31.1177249 129.4717279
  68.0642769  31.7513732 129.6246673  66.8928424  31.4591981 128.7112918
  75.4887705  29.4595199 117.7565186  75.7647549  29.3451793 118.6659060
  74.6192204  29.0612684 117.7177359  75.3928137  15.4831965 124.7969935
  74.4791217  15.7136191 124.9652142  75.8221238  15.5670409 125.6483968
  75.1634595  23.6721856 127.2969829  74.5106046  23.9197764 126.6422282
  75.5414975  22.8585995 126.9632307  72.1241769  33.7081550 121.3998000
  72.3064164  32.8903206 121.8625752  72.9474755  33.9249242 120.9622890
  72.4583935  32.6349735 118.6613048  72.9871701  32.1242189 118.0483210
  72.7212154  32.3192265 119.5258581  62.9601027  30.6513604 126.4048382
  63.5454464  29.9057292 126.5376286  62.7625866  30.9617561 127.2885046
  65.8139683  33.6864851 121.4210824  65.1450058  34.1710979 120.9374864
  65.6752552  33.9334072 122.3354203  69.9544951  35.7208595 128.0193483
  70.5063259  35.8840216 128.7842568  70.2951145  36.3113033 127.3473507
  74.8055826  30.5469852 133.8742137  75.3495730  31.1599811 133.3797092
  74.2242670  31.1049431 134.3909150  61.1827260  21.9483306 118.2006756
  61.4780701  21.0393985 118.1473810  60.2815296  21.9271046 117.8787759
  73.0913339  33.6690571 125.0057165  72.9664478  32.8680310 124.4968110
  73.7492430  34.1636764 124.5171135  64.7121507  20.0239303 124.1834305
  63.9908093  20.6375271 124.0441778  65.5014763  20.5597068 124.1050951
  75.1548247  31.4699591 126.6336715  74.2078582  31.3504942 126.5615042
  75.5031020  30.5822089 126.7162976  62.9115101  19.6297404 118.3246081
  62.5827808  18.7494783 118.1421187  63.2654472  19.5745073 119.2122471
  72.1594680  31.2652307 122.8341067  72.0119643  30.3369014 123.0148637
  72.9848174  31.2872398 122.3498142  66.0256925  19.9170374 118.6921559
  66.3652997  20.4456295 117.9700168  66.4729045  20.2550780 119.4680126
  75.7628802  32.0880866 123.9205940  76.6875350  31.8823727 123.7830391
  75.5944105  31.8397267 124.8295281  68.0125072  18.4144995 116.8914852
  68.7333434  18.7926248 116.3878569  67.3890376  19.1333872 116.9949830
  72.1556195  19.1190144 117.8273184  72.3719809  20.0014782 117.5262012
  71.6750262  18.7276358 117.0978826  66.8955416  22.0775858 124.4043929
  66.7499997  22.3916161 125.2968210  66.4180620  22.6960758 123.8514827
  68.7551799  19.0678406 124.4524818  68.7413368  18.1719499 124.1157116
  69.4724227  19.0749069 125.0863104  75.5524118  32.6066533 119.2768031
  75.7260996  32.0412955 118.5241884  76.0453010  33.4067428 119.0947521
  68.1588695  17.9492786 119.7212389  68.2804606  17.0209432 119.9203276
  67.8690737  17.9631472 118.8090704  71.0279885  15.6347696 122.8579108
  71.0501582  15.6987029 121.9031088  71.4447944  14.7952205 123.0519615
  81.4063509  25.3702956 120.8958331  81.8494655  24.6210281 120.4977454
  80.5290020  25.3613092 120.5132063  76.5399291  31.9233297 116.3764930
  77.2350195  32.5439990 116.5952244  76.8822441  31.0728649 116.6517307
  78.4390714  29.3733003 117.9052260  78.9642038  29.7120276 117.1801580
  78.3513066  28.4380018 117.7215395  70.1010763  33.2867077 130.0342137
  70.4097889  33.0416223 130.9064836  70.8986245  33.4913715 129.5461007
  70.1231375  35.4404986 122.2647513  69.6836365  34.9481365 122.9580370
  70.8739492  34.8977954 122.0239589  62.6023714  31.6316527 122.2672142
  63.4281734  31.3320299 121.8870785  62.2517766  30.8624149 122.7161930
  67.5705247  30.9842995 124.3369815  66.9485256  30.3213700 124.0372043
  68.2410114  31.0104127 123.6543463  60.8032319  29.5502854 123.2261075
  59.9664227  29.1225028 123.0445076  60.7755964  29.7435297 124.1631866
  78.1284620  30.0065907 133.2103458  77.3380164  29.9890045 132.6707958
  77.8917975  30.5454200 133.9652495  78.2482495  26.8558373 130.5236187
  78.2980500  26.6908380 131.4651710  78.1396418  25.9885632 130.1334068
  67.1318754  29.5346919 117.8128276  67.2806874  30.2182383 117.1594948
  67.9385197  29.5152009 118.3277731  79.7500692  29.2755314 130.7678208
  79.4585500  29.6385295 131.6041669  79.1372823  28.5622323 130.5891540
  80.9496374  26.8408194 123.2880779  81.7843266  27.2797998 123.4518339
  81.0855503  26.3646847 122.4689024  77.9987880  24.3987929 129.2358266
  78.4742002  24.5915575 128.4277118  77.0753445  24.4547115 128.9901650
  64.8871387  25.5612096 118.8189345  64.6417429  24.6574426 119.0169555
  65.0567301  25.5629247 117.8768823  64.1567034  21.2940454 116.3175506
  63.4636279  21.3684809 115.6615542  63.9118786  20.5300797 116.8397023
  70.6314159  32.0295049 115.2840023  70.0588126  32.6485236 114.8310495
  71.2046953  32.5794411 115.8179945  76.6989549  21.2753689 127.4686572
  77.6506972  21.3751787 127.4898796  76.5292999  20.4831958 127.9784656
  74.7203929  18.3609272 127.6545973  74.1253861  18.6414285 126.9592461
  74.4353625  18.8503173 128.4262714  73.8511419  32.3132199 116.4148605
  74.7842092  32.2477761 116.6181481  73.7634632  33.1488466 115.9563138
  76.4799436  31.6298070 113.3752553  76.4013067  31.2957933 114.2688311
  77.3009102  32.1219837 113.3744025  79.1777627  24.4959809 126.5828872
  79.1453947  23.5575810 126.7688555  79.7878251  24.5743846 125.8494696
  71.0160958  23.3655862 112.6256076  71.9620062  23.2362070 112.6944494
  70.6375203  22.6270524 113.1025504  79.3272115  21.2870852 126.6287155
  78.8111164  20.5029309 126.4417084  80.2112064  20.9589569 126.7933674
  76.9882842  15.0311868 122.5882967  76.7907663  14.7226956 123.4726299
  77.5982548  15.7573507 122.7180897  84.9954177  25.5575816 125.7234908
  85.7257565  25.2961104 126.2842612  84.3861122  24.8204538 125.7636976
  83.0769474  23.6983678 126.3209360  82.3502637  23.5639643 125.7125851
  82.6616761  24.0060507 127.1266078  69.2003875  21.2905838 112.5610961
  68.2935330  20.9938951 112.6373674  69.4779856  20.9935656 111.6945247
  60.1181815  22.6112202 123.0110007  59.7984600  21.7577510 122.7184381
  59.5715243  22.8260780 123.7667975  63.8961723  25.3274643 126.7279514
  64.1147733  26.2591750 126.7467548  64.3087497  24.9682617 127.5134318
  70.8165941  15.8342728 118.7155202  70.0066669  15.4889813 119.0910448
  71.5050358  15.5250272 119.3042814  72.7456489  14.9120775 120.3379499
  73.2987528  15.3316228 120.9969522  72.9826575  13.9856523 120.3802455
  67.9702660  18.1492773 112.7022940  68.8321824  18.4747672 112.9618757
  68.1553004  17.3624269 112.1896006  59.9870075  26.2315113 124.9803129
  59.2933547  25.8169066 124.4673083  60.7343066  26.2735650 124.3836548
  76.1235296  17.0221300 119.8458163  75.5433965  17.6806104 119.4636215
  75.8571229  16.1998644 119.4345581  74.5738862  16.4226358 122.0479483
  75.0738641  16.5342892 121.2393802  75.2174470  16.1187410 122.6880292
  61.9006818  26.1633367 122.8569144  61.8777506  26.2621054 121.9051027
  62.2107454  27.0098518 123.1786310  64.5594196  28.2209522 126.9715758
  65.5137449  28.1893464 126.9045690  64.3606719  27.7600146 127.7865984
  74.9060174  19.1821390 118.9014511  74.0186029  19.4671041 118.6834706
  75.3214163  19.0215154 118.0541788  78.2574710  19.2067911 122.6168851
  79.0335100  19.6964364 122.8893467  77.5322844  19.6325965 123.0740720
  80.6947269  19.9195530 123.6742791  81.2891760  19.6791266 122.9636099
  80.7673852  19.2002661 124.3016327  62.9144424  33.7629141 123.9885956
  62.7798892  33.0029542 123.4223954  62.4976487  34.4870041 123.5214745
  74.0503387  28.9466065 112.9962531  74.7539238  29.1516067 113.6120187
  73.3266036  29.5142827 113.2611615  74.8801198  24.6975926 119.1164801
  74.8236399  25.1544478 118.2772434  75.4329540  23.9366611 118.9387644
  78.6906004  20.4865658 119.9414921  78.4342938  20.0862294 120.7723129
  78.0658872  21.2009452 119.8165060  83.0018342  23.2261731 122.4486212
  82.4417899  23.2954921 123.2217774  82.3961845  23.0502716 121.7285709
  66.0713550  34.6598458 124.2004399  65.9545934  35.6043891 124.0983089
  65.2505997  34.3572020 124.5890198  75.9590085  29.3848594 115.0460991
  76.7935689  28.9529793 114.8638466  75.7974428  29.2130608 115.9737886
  75.6135977  25.8880707 116.4117331  75.5584781  25.7224979 115.4705775
  74.9882032  26.5956740 116.5679520  68.9232103  15.3888816 115.9902649
  68.9110772  16.3330656 116.1470920  69.8155524  15.2058962 115.6962110
  67.0968064  35.3126720 127.4160327  67.9995311  35.3450331 127.7326822
  66.8705435  34.3827171 127.4306663  68.8521666  34.0657707 124.0770406
  67.9017297  34.0659568 123.9634778  69.1554153  33.3190441 123.5606440
  72.7384222  11.9831593 120.2448586  71.9716618  11.4290080 120.3905268
  73.1494927  12.0553462 121.1062737  84.5874360  39.9018245 125.1416168
  85.2252770  39.7824993 124.4379508  84.4695203  40.8499089 125.2004120
  81.3964066  39.8545673 125.0777693  81.0582578  39.7386738 124.1898228
  82.2653834  39.4536838 125.0578699  77.2550882  41.7081150 121.0674584
  76.6915747  41.6171087 120.2990871  77.1403277  40.8881054 121.5477076
  81.8783849  41.0080525 131.0363898  81.8672490  40.6133323 130.1644402
  82.0404489  40.2746598 131.6297670  82.8350441  45.3752117 116.3789049
  82.1838420  45.9606198 115.9923062  83.6294803  45.9058312 116.4384086
  76.7606068  42.4641255 116.7776183  77.5336944  41.9170242 116.6389059
  77.1131467  43.3285504 116.9890644  78.5991110  43.7917637 129.9843082
  78.3080976  44.6963268 129.8689749  79.2348095  43.8334165 130.6987152
  79.5247317  41.1694485 126.5744442  80.1210889  40.9450508 125.8601405
  79.5822289  40.4279231 127.1769890  79.0972346  38.6233921 114.4094633
  79.3497866  38.1015442 113.6478096  78.1596905  38.4600066 114.5121316
  84.1415628  37.6269699 122.2169376  84.9278718  37.2089122 121.8659793
  84.4054333  38.5315791 122.3851024  84.3125706  43.0642549 116.9158033
  83.6771539  43.1377176 117.6278938  83.9823112  43.6536148 116.2377112
  89.5424056  37.5644932 123.1202355  90.2749228  36.9944149 123.3540184
  88.7863411  37.1766533 123.5608860  78.8168634  40.5262027 116.6119008
  78.7004892  39.8506930 117.2800092  78.9270894  40.0394401 115.7951161
  81.1600175  39.9872174 120.3165697  80.7958383  39.4602795 121.0278619
  82.0167291  39.5970643 120.1432182  87.0649476  31.2766506 127.5796963
  86.7332801  32.1461917 127.3558178  86.4695089  30.9602790 128.2590994
  80.8005662  35.0162073 115.3127046  80.9680065  35.8842310 115.6797517
  80.6102831  35.1789355 114.3888335  83.5580995  43.4779052 126.9792876
  83.2581719  44.3804091 126.8708683  83.2132055  43.2111236 127.8314029
  77.0093477  39.9292849 123.0129580  76.0843973  39.7969063 123.2207272
  77.2577890  40.7087068 123.5099523  86.9578139  35.9961593 124.6590313
  86.0495017  35.9277001 124.3649074  86.9065735  36.4733538 125.4872139
  80.7794883  37.4719731 116.2973712  80.6594508  37.9176782 117.1359193
  80.0847472  37.8205049 115.7387251  74.3702288  39.5726123 123.8473369
  74.4994669  39.8260602 124.7612781  73.6899739  40.1653831 123.5278025
  81.0319005  37.4151238 132.6025211  80.2552339  37.9745158 132.5928075
  81.6709568  37.9008021 133.1240081  88.8239786  34.1978031 126.4368187
  88.1814166  34.4910564 125.7907982  88.3194714  34.0830951 127.2421384
  86.4779949  37.9441204 117.1254046  87.3897805  38.1768591 116.9501744
  85.9689596  38.5278248 116.5629125  79.2865377  40.2236692 132.1643178
  80.0280062  40.7621736 131.8878001  78.5802363  40.8502980 132.3214729
  84.7620717  42.3665832 130.7615339  85.1704073  41.9248243 130.0169971
  84.0397978  41.7918460 131.0149532  81.1151787  37.3038439 128.1348896
  81.9612982  37.7277852 128.2783545  81.0550425  36.6472063 128.8287459
  85.0849532  42.9267023 124.5167628  84.4558394  43.0912737 123.8143696
  84.6975194  43.3408632 125.2878592  88.9638764  43.8621460 121.8711992
  88.2789802  44.2420362 121.3209025  89.0482613  44.4716787 122.6043939
  84.2651232  34.9642807 129.7930070  84.0212164  35.7184868 129.2564345
  84.5411163  35.3428155 130.6277317  86.2189695  41.5081420 128.4707335
  86.4306590  42.1513179 127.7941716  86.1719443  40.6743736 128.0029265
  83.8215924  34.1199240 125.3743907  82.9600403  34.4180494 125.6660645
  83.8478359  34.3369639 124.4424940  80.6377493  42.6641431 121.7817713
  81.1015839  42.9429134 120.9922335  80.3734292  41.7624875 121.5990804
  77.5301575  42.2112912 124.7197476  78.1002932  42.6400181 124.0814961
  78.1209686  41.9295497 125.4181662  79.5746380  38.7864583 118.5907278
  80.2770423  39.2385627 119.0581205  79.2427008  38.1448402 119.2187171
  78.0226741  37.3776340 132.9658488  77.3925402  38.0592621 133.1993884
  77.9162829  37.2659421 132.0211626  73.3171714  37.0448136 123.8924412
  72.5270767  37.3005664 123.4164522  73.8082961  37.8596474 123.9976452
  87.3335523  44.3853375 126.6429693  88.1552967  43.9833562 126.3612374
  87.3297926  44.2821609 127.5945808  75.2686459  37.4092715 120.8507888
  74.4717622  37.5211409 121.3691384  75.0412051  37.7479367 119.9848779
  81.0992127  43.9337418 128.7990403  81.1636559  44.3957825 129.6348575
  80.3903050  43.3034783 128.9272713  71.6009416  37.2978626 126.3239403
  71.8517455  38.1825636 126.5896978  72.1368965  37.1183228 125.5514494
  95.4241516  40.7292123 122.9914664  94.6705225  40.1599521 122.8358668
  95.5589057  40.6954788 123.9385299  77.3007484  31.6797106 135.3283739
  76.9074429  31.1263304 136.0031383  78.1173624  31.9907684 135.7190256
  80.2175445  33.0954985 132.9203995  80.9585158  33.6962138 132.8408458
  80.4493368  32.3532622 132.3622038  75.3616783  38.2811352 131.1982225
  75.2470298  37.3796609 131.4989324  74.5061301  38.5275049 130.8467041
  82.4408621  46.2229092 132.7969725  81.9972475  45.4365471 132.4790630
  83.1025834  46.4108243 132.1313616  77.1995742  47.7524894 127.3230404
  77.7503167  47.6241957 126.5507398  76.3607218  48.0519783 126.9725297
  84.5389859  46.5031892 130.8251127  84.5208334  47.3240773 130.3331396
  85.4609779  46.3785967 131.0501268  80.9962913  44.0176022 131.6674635
  81.5291250  43.2564310 131.4373943  80.4676994  43.7249673 132.4098790
  84.1632608  29.1236088 127.1968277  83.8196877  30.0137729 127.1207387
  84.5311570  28.9337745 126.3337862  72.2318458  41.4469618 120.0156879
  73.0693680  41.8566626 119.7990587  72.4096726  40.5069060 119.9857073
  84.1282890  39.1144699 115.7040712  83.6129514  39.8849303 115.9429099
  83.8560199  38.4409835 116.3273773  81.7130001  33.9594399 120.7625950
  80.8571598  33.5701250 120.5831589  82.1256953  34.0386360 119.9025736
  83.2429148  31.4940743 125.1617510  82.7393944  31.4570878 124.3485315
  83.5359755  32.4033485 125.2214167  79.4872034  31.5779472 124.1683692
  80.3525031  31.3822281 123.8089581  79.5549543  31.3489824 125.0953049
  89.1017165  41.8677053 117.6393885  88.3246607  41.5288213 117.1949047
  89.7808646  41.8729677 116.9648850  83.9169194  36.9871791 117.5300493
  83.6119329  37.3017940 118.3810636  84.8699636  37.0653211 117.5727826
  82.3615625  43.1462014 119.1793447  81.8336987  42.4114774 118.8666685
  81.8603128  43.9236690 118.9333415  87.3408472  41.3411035 124.2960493
  86.6832146  42.0310296 124.3840622  88.1448871  41.7307467 124.6394480
  77.0934353  33.8081680 121.5400059  77.6678105  33.5856862 120.8073252
  77.6805336  33.8770375 122.2928660  86.1513930  39.6955407 122.3464435
  86.6645812  40.3285399 122.8486145  86.8015154  39.0956603 121.9807795
  77.4203940  35.8386141 115.5595944  76.5841252  36.1760828 115.8805219
  77.2808710  35.7035121 114.6223081  79.3957021  30.6822929 120.2675128
  78.7421433  30.3671946 119.6431743  79.3537495  30.0598670 120.9934951
  80.5068226  40.9642224 112.1828420  79.5995287  40.7331478 112.3819569
  81.0039258  40.1679844 112.3702402  83.4136305  49.6739732 115.1025106
  82.7398003  49.9771428 115.7110064  83.8002127  50.4768812 114.7530563
  82.6294761  37.1704863 124.5922776  81.7117323  37.3919810 124.4344464
  83.0454905  37.2451173 123.7334483  83.4129809  38.5696279 119.7225456
  84.1601628  39.0817676 119.4132578  83.6821398  38.2480331 120.5829849
  81.6856459  41.0654819 116.7052410  80.7767678  40.7813852 116.8024880
  81.7151543  41.4853898 115.8455717  86.9175727  44.6761409 120.4743578
  86.4638054  43.8352319 120.5308768  86.2869693  45.3122807 120.8118358
  85.8608646  35.6053395 121.7044245  85.1231403  35.0930781 122.0354488
  86.1135420  35.1653776 120.8927522  85.3608666  46.5137905 121.4093396
  85.6531640  47.0742963 120.6905762  85.8707286  46.8066466 122.1646555
  85.9620273  28.3829647 122.2986015  86.2679150  27.5227010 122.0111930
  86.6872878  28.9747267 122.0985008  72.2544629  38.7860333 120.6867612
  72.0569029  38.1929694 119.9618679  71.6991293  38.4812544 121.4043551
  80.2341353  38.6783440 122.8062206  80.2889963  37.7257276 122.7304682
  79.4232555  38.8342879 123.2903504  81.3832547  42.6063563 114.0440489
  80.9451977  41.8899422 113.5846126  82.1242988  42.8339678 113.4825580
  78.1733713  37.2960500 120.5652584  77.3601579  37.5954670 120.9717777
  78.6692707  36.9016188 121.2827067  83.7707925  37.7602324 129.3967478
  84.1257312  37.9873797 130.2561944  84.4180056  38.0920701 128.7744734
  89.5005662  40.8820760 120.1016807  89.3623560  41.0722356 119.1737997
  89.1441880  41.6440143 120.5584858  77.6647788  34.8678855 126.1813819
  78.3047167  34.7267614 125.4836783  76.8325318  34.5813369 125.8052421
  89.5275041  42.9497287 125.1128079  89.9611548  42.8572576 125.9611133
  90.2406622  42.9254787 124.4748095  83.2602936  46.5499381 126.6461179
  83.3139958  47.1190317 127.4138895  82.3917718  46.7201266 126.2815217
  74.7490855  38.3124367 118.3708565  73.8188443  38.2508823 118.5878527
  74.8448327  37.7900320 117.5745206  74.6676404  34.8379180 120.9586806
  74.9283222  35.7524513 120.8495967  75.4893577  34.3703623 121.1083419
  76.1401330  36.2516937 128.1285631  76.8124383  36.0434299 127.4798280
  75.3131116  36.0539023 127.6890863  90.3890591  42.9920988 127.6460964
  90.5826481  43.8966798 127.8920239  90.2891209  42.5328407 128.4799549
  82.0426902  32.8778878 130.1451292  81.3954817  33.5768828 130.0515768
  82.8127917  33.3115022 130.5127540  85.4505700  43.1427730 133.2201845
  85.2991206  42.9138282 132.3031929  85.4410379  44.0998332 133.2333190
  82.2191036  40.7159643 128.2048111  83.1483096  40.8670803 128.0317079
  81.7982066  40.8043664 127.3496758  81.0179368  44.7410308 125.9746649
  80.8790453  44.3729092 126.8472587  80.2293964  45.2557947 125.8030607
  81.6127520  49.8419404 117.3172185  81.7879275  49.3707447 118.1317808
  80.9260308  50.4685170 117.5453446  82.5684583  44.1191910 123.3635487
  82.2334415  44.0792680 124.2593137  82.0688529  43.4536626 122.8905897
  76.5428827  39.5259540 128.8888068  76.4048625  38.7939779 129.4899607
  77.4533750  39.4368440 128.6072256  85.5043775  41.4647945 113.6372546
  84.8872945  40.7394773 113.5405599  85.0360263  42.2257305 113.2939621
  79.1711127  39.2379500 128.3771748  79.8810746  38.5972692 128.3358366
  79.1280436  39.4892394 129.2997928  87.1597906  46.1746853 131.2978327
  87.1010452  45.4906073 130.6308910  87.5617425  46.9165843 130.8458953
  77.8840061  36.2244717 130.1967387  77.3477418  35.7735456 130.8488983
  77.2956770  36.3590626 129.4537851  77.2942320  35.6833369 112.7593851
  76.4171787  35.5622170 112.3956097  77.7700073  34.8919447 112.5072739
  87.1615313  44.1386437 129.5292306  86.2742092  43.8012359 129.6518705
  87.7313865  43.4069468 129.7661072  68.8144461  40.4710529 122.8535358
  69.5015500  40.1572259 122.2656373  68.6592589  41.3751893 122.5802609
  73.6179183  35.3600725 127.2820382  73.5337371  34.7526395 126.5470791
  72.7961889  35.8509743 127.2829878  80.6916467  48.7987889 126.4953550
  80.6186638  49.6042861 127.0072854  80.2493860  48.9979855 125.6701571
  83.7902897  33.8454289 122.6490577  84.2871596  33.0924251 122.3291647
  83.0189878  33.8818605 122.0833786  91.6432654  39.5494654 124.2908868
  91.6322530  40.4319370 123.9202801  90.7750033  39.1966205 124.0963405
  83.1515150  48.6974723 128.6511708  83.8643123  49.3322188 128.5787610
  82.6605179  48.7938589 127.8351710  84.8732677  42.6025976 120.2229000
  83.9388956  42.7227438 120.0533704  85.0509346  41.6998443 119.9589010
  80.3737865  35.9871672 122.3762261  80.0035653  35.4342712 123.0643167
  80.8696958  35.3829805 121.8237261  88.2605229  38.4443295 120.7579034
  88.7265681  39.2771287 120.6839337  88.7112729  37.9788277 121.4624293
  78.2027064  46.4469167 129.4717279  78.9036523  47.0805650 129.6246673
  77.7322179  46.7883898 128.7112918  86.3281460  44.7887116 117.7565186
  86.6041304  44.6743711 118.6659060  85.4585958  44.3904601 117.7177359
  86.2321891  30.8123882 124.7969935  85.3184971  31.0428109 124.9652142
  86.6614993  30.8962326 125.6483968  86.0028350  39.0013774 127.2969829
  85.3499800  39.2489682 126.6422282  86.3808730  38.1877912 126.9632307
  83.2977689  47.9641652 118.6613048  83.8265456  47.4534107 118.0483210
  83.5605909  47.6484183 119.5258581  82.0515923  39.7433585 133.7835867
  81.3756560  39.6427715 134.4538242  82.8743557  39.5872799 134.2471864
  68.3912437  38.5511122 125.1252825  68.4296536  38.0174713 125.9189943
  67.8852730  38.0246327 124.5063802  80.7938706  51.0500513 128.0193483
  81.3457014  51.2132134 128.7842568  81.1344899  51.6404950 127.3473507
  75.7703199  33.3975662 128.6215367  75.8344525  34.2590493 128.2092765
  75.7070319  32.7849664 127.8887726  75.2455472  35.4698795 132.2688402
  75.8727510  35.0875872 132.8825926  74.3883390  35.2512997 132.6344094
  85.6449580  45.8761770 133.8742137  86.1889484  46.4891728 133.3797092
  85.0636425  46.4341349 134.3909150  72.0221014  37.2775224 118.2006756
  72.3174455  36.3685903 118.1473810  71.1209050  37.2562964 117.8787759
  83.9307093  48.9982488 125.0057165  83.8058232  48.1972228 124.4968110
  84.5886184  49.4928682 124.5171135  75.5515261  35.3531221 124.1834305
  74.8301847  35.9667188 124.0441778  76.3408517  35.8888986 124.1050951
  85.9942001  46.7991508 126.6336715  85.0472337  46.6796859 126.5615042
  86.3424775  45.9114006 126.7162976  78.3541575  32.6885647 130.4574957
  78.8775977  32.9347944 131.2201266  78.1353908  33.5205682 130.0378094
  73.7508856  34.9589322 118.3246081  73.4221562  34.0786701 118.1421187
  74.1048227  34.9036990 119.2122471  82.9988435  46.5944224 122.8341067
  82.8513397  45.6660932 123.0148637  83.8241928  46.6164315 122.3498142
  76.8650679  35.2462292 118.6921559  77.2046752  35.7748213 117.9700168
  77.3122799  35.5842698 119.4680126  86.6022557  47.4172783 123.9205940
  87.5269104  47.2115645 123.7830391  86.4337860  47.1689184 124.8295281
  79.5594120  33.6299342 128.1424627  79.2190940  32.8307155 128.5445307
  78.8533126  33.9301053 127.5701460  80.2110592  30.7148655 126.5951950
  81.0336661  30.2409133 126.4730841  80.4548655  31.4939138 127.0950637
  78.8518826  33.7436913 116.8914852  79.5727189  34.1218166 116.3878569
  78.2284130  34.4625790 116.9949830  82.9949949  34.4482062 117.8273184
  83.2113563  35.3306700 117.5262012  82.5144016  34.0568276 117.0978826
  77.7349170  37.4067775 124.4043929  77.5893751  37.7208078 125.2968210
  77.2574374  38.0252676 123.8514827  79.5945553  34.3970323 124.4524818
  79.5807122  33.5011417 124.1157116  80.3117981  34.4040987 125.0863104
  81.4471684  34.8307664 126.4977946  81.1889462  35.7524734 126.4962276
  80.9156724  34.4338098 127.1878410  86.3917873  47.9358451 119.2768031
  86.5654750  47.3704873 118.5241884  86.8846764  48.7359346 119.0947521
  72.2094833  39.9473120 127.3431590  71.6648301  40.7232928 127.4751864
  73.0874182  40.2943924 127.1850711  78.9982449  33.2784704 119.7212389
  79.1198360  32.3501350 119.9203276  78.7084492  33.2923390 118.8090704
  81.8673640  30.9639614 122.8579108  81.8895336  31.0278947 121.9031088
  82.2841699  30.1244123 123.0519615  92.2457264  40.6994874 120.8958331
  92.6888410  39.9502199 120.4977454  91.3683774  40.6905010 120.5132063
  87.3793045  47.2525215 116.3764930  88.0743950  47.8731908 116.5952244
  87.7216195  46.4020566 116.6517307  72.9960854  39.0743016 130.2361747
  72.2542590  39.2225651 130.8226377  72.6753599  39.3351282 129.3728496
  89.2784468  44.7024921 117.9052260  89.8035792  45.0412193 117.1801580
  89.1906821  43.7671936 117.7215395  80.9404517  48.6158994 130.0342137
  81.2491644  48.3708141 130.9064836  81.7379999  48.8205633 129.5461007
  78.4823529  34.7916701 133.9302321  78.5311684  35.6678824 133.5480091
  79.0246043  34.2494094 133.3573964  88.9678374  45.3357824 133.2103458
  88.1773918  45.3181963 132.6707958  88.7311729  45.8746118 133.9652495
  89.0876249  42.1850291 130.5236187  89.1374254  42.0200298 131.4651710
  88.9790173  41.3177550 130.1334068  86.3780012  38.1681219 131.8395493
  87.2789875  38.0287683 131.5479491  86.4527986  38.3335673 132.7793671
  80.7122817  35.5448073 130.6848680  79.8426127  35.8381639 130.4131268
  80.9482298  36.1288518 131.4055943  90.5894446  44.6047232 130.7678208
  90.2979255  44.9677213 131.6041669  89.9766578  43.8914240 130.5891540
  91.7890129  42.1700112 123.2880779  92.6237020  42.6089916 123.4518339
  91.9249257  41.6938765 122.4689024  88.8381635  39.7279847 129.2358266
  89.3135756  39.9207493 128.4277118  87.9147200  39.7839033 128.9901650
  75.7265141  40.8904014 118.8189345  75.4811183  39.9866344 119.0169555
  75.8961056  40.8921164 117.8768823  83.4161851  31.7627690 128.2014100
  83.9343795  32.4988717 127.8760589  83.0616984  32.0691684 129.0360859
  74.9960789  36.6232372 116.3175506  74.3030034  36.6976727 115.6615542
  74.7512541  35.8592715 116.8397023  83.6674445  28.1827973 123.7214997
  83.9476199  27.5151162 124.3475423  84.4525052  28.3757068 123.2089661
  81.4707914  47.3586967 115.2840023  80.8981881  47.9777154 114.8310495
  82.0440707  47.9086328 115.8179945  87.5383304  36.6045607 127.4686572
  88.4900726  36.7043705 127.4898796  87.3686754  35.8123875 127.9784656
  85.5597683  33.6901190 127.6545973  84.9647615  33.9706203 126.9592461
  85.2747380  34.1795091 128.4262714  84.6905174  47.6424117 116.4148605
  85.6235847  47.5769679 116.6181481  84.6028386  48.4780384 115.9563138
  87.3193190  46.9589987 113.3752553  87.2406822  46.6249851 114.2688311
  88.1402857  47.4511755 113.3744025  90.0171381  39.8251727 126.5828872
  89.9847701  38.8867727 126.7688555  90.6272005  39.9035763 125.8494696
  81.8554712  38.6947780 112.6256076  82.8013817  38.5653988 112.6944494
  81.4768957  37.9562441 113.1025504  90.1665870  36.6162770 126.6287155
  89.6504918  35.8321227 126.4417084  91.0505818  36.2881487 126.7933674
  87.8276597  30.3603786 122.5882967  87.6301418  30.0518874 123.4726299
  88.4376302  31.0865424 122.7180897  95.8347931  40.8867733 125.7234908
  96.5651320  40.6253022 126.2842612  95.2254877  40.1496455 125.7636976
  93.9163228  39.0275596 126.3209360  93.1896392  38.8931561 125.7125851
  93.5010515  39.3352425 127.1266078  81.7393405  42.7465526 134.0856733
  82.6596414  42.9244125 134.2796779  81.7042988  41.8021571 133.9336432
  80.0397629  36.6197756 112.5610961  79.1329085  36.3230869 112.6373674
  80.3173610  36.3227574 111.6945247  70.9575570  37.9404119 123.0110007
  70.6378354  37.0869427 122.7184381  70.4108998  38.1552697 123.7667975
  74.7355477  40.6566560 126.7279514  74.9541487  41.5883668 126.7467548
  75.1481251  40.2974535 127.5134318  81.6559695  31.1634646 118.7155202
  80.8460423  30.8181731 119.0910448  82.3444112  30.8542189 119.3042814
  83.5850243  30.2412692 120.3379499  84.1381282  30.6608146 120.9969522
  83.8220330  29.3148441 120.3802455  79.6083343  36.2299766 136.1182263
  79.5080070  37.1794123 136.0494354  79.3904885  35.9018005 135.2458333
  78.8096414  33.4784691 112.7022940  79.6715578  33.8039589 112.9618757
  78.9946758  32.6916187 112.1896006  70.8263830  41.5607031 124.9803129
  70.1327301  41.1460984 124.4673083  71.5736821  41.6027567 124.3836548
  86.9629050  32.3513218 119.8458163  86.3827720  33.0098022 119.4636215
  86.6964983  31.5290562 119.4345581  85.4132617  31.7518275 122.0479483
  85.9132395  31.8634810 121.2393802  86.0568225  31.4479328 122.6880292
  79.4714613  39.6596905 134.9347324  78.9881694  40.4597265 135.1411213
  79.5575552  39.6704850 133.9814768  72.7400572  41.4925285 122.8569144
  72.7171260  41.5912972 121.9051027  73.0501209  42.3390435 123.1786310
  75.3987950  43.5501440 126.9715758  76.3531204  43.5185382 126.9045690
  75.2000474  43.0892063 127.7865984  75.9887332  42.1202556 129.5386556
  76.8080221  42.6146634 129.5621393  76.2624140  41.2034524 129.5104123
  85.7453928  34.5113308 118.9014511  84.8579784  34.7962959 118.6834706
  86.1607918  34.3507071 118.0541788  89.0968465  34.5359829 122.6168851
  89.8728855  35.0256281 122.8893467  88.3716599  34.9617883 123.0740720
  91.5341023  35.2487448 123.6742791  92.1285514  35.0083184 122.9636099
  91.6067607  34.5294579 124.3016327  84.8897142  44.2757983 112.9962531
  85.5932992  44.4807985 113.6120187  84.1659791  44.8434745 113.2611615
  85.7194952  40.0267844 119.1164801  85.6630154  40.4836395 118.2772434
  86.2723295  39.2658528 118.9387644  89.5299758  35.8157576 119.9414921
  89.2736692  35.4154211 120.7723129  88.9052626  36.5301370 119.8165060
  93.8412096  38.5553649 122.4486212  93.2811654  38.6246838 123.2217774
  93.2355599  38.3794634 121.7285709  86.7983839  44.7140512 115.0460991
  87.6329443  44.2821710 114.8638466  86.6368182  44.5422526 115.9737886
  86.4529732  41.2172625 116.4117331  86.3978535  41.0516897 115.4705775
  85.8275787  41.9248658 116.5679520  71.2422247  36.4540690 130.2378753
  71.8881110  35.9439643 130.7265978  71.0339398  37.1909371 130.8122178
  83.7675639  43.5221537 135.7370893  84.6366798  43.6962189 135.3757528
  83.2882390  44.3415954 135.6146623  79.7625857  30.7180734 115.9902649
  79.7504527  31.6622574 116.1470920  80.6549279  30.5350880 115.6962110
  77.9361819  50.6418638 127.4160327  78.8389066  50.6742248 127.7326822
  77.7099189  49.7119089 127.4306663  83.5777976  27.3123511 120.2448586
  82.8110372  26.7581997 120.3905268  83.9888681  27.3845380 121.1062737
  75.5819738  33.6008307 134.3353767  76.4451199  33.2445111 134.5457092
  75.0085148  33.2622201 135.0229171  95.4268114  55.2310163 125.1416168
  96.0646524  55.1116910 124.4379508  95.3088957  56.1791007 125.2004120
  92.2357821  55.1837591 125.0777693  91.8976332  55.0678656 124.1898228
  93.1047589  54.7828756 125.0578699  88.0944636  57.0373067 121.0674584
  87.5309502  56.9463004 120.2990871  87.9797031  56.2172972 121.5477076
  92.7177604  56.3372443 131.0363898  92.7066244  55.9425241 130.1644402
  92.8798243  55.6038515 131.6297670  85.6409068  58.5324259 123.9058804
  86.4330360  58.1915084 123.4905103  85.8805719  58.6419234 124.8260957
  93.6744195  60.7044035 116.3789049  93.0232175  61.2898116 115.9923062
  94.4688558  61.2350230 116.4384086  87.5999822  57.7933172 116.7776183
  88.3730698  57.2462159 116.6389059  87.9525221  58.6577422 116.9890644
  89.4384865  59.1209555 129.9843082  89.1474731  60.0255185 129.8689749
  90.0741849  59.1626082 130.6987152  90.3641072  56.4986403 126.5744442
  90.9604644  56.2742425 125.8601405  90.4216043  55.7571149 127.1769890
  89.9366100  53.9525838 114.4094633  90.1891621  53.4307360 113.6478096
  88.9990659  53.7891984 114.5121316  94.9809383  52.9561617 122.2169376
  95.7672472  52.5381040 121.8659793  95.2448087  53.8607709 122.3851024
  95.1519460  58.3934467 116.9158033  94.5165293  58.4669094 117.6278938
  94.8216867  58.9828066 116.2377112 100.3817810  52.8936850 123.1202355
 101.1142982  52.3236067 123.3540184  99.6257166  52.5058450 123.5608860
  89.6562389  55.8553944 116.6119008  89.5398647  55.1798848 117.2800092
  89.7664649  55.3686318 115.7951161  91.9993930  55.3164091 120.3165697
  91.6352137  54.7894712 121.0278619  92.8561046  54.9262561 120.1432182
  97.9043230  46.6058424 127.5796963  97.5726555  47.4753835 127.3558178
  97.3088844  46.2894708 128.2590994  91.6399417  50.3453991 115.3127046
  91.8073819  51.2134228 115.6797517  91.4496586  50.5081273 114.3888335
  94.3974750  58.8070970 126.9792876  94.0975473  59.7096009 126.8708683
  94.0525809  58.5403153 127.8314029  87.8487231  55.2584767 123.0129580
  86.9237728  55.1260981 123.2207272  88.0971645  56.0378986 123.5099523
  97.7971894  51.3253510 124.6590313  96.8888771  51.2568919 124.3649074
  97.7459490  51.8025455 125.4872139  91.6188638  52.8011649 116.2973712
  91.4988263  53.2468699 117.1359193  90.9241226  53.1496966 115.7387251
  85.2096042  54.9018040 123.8473369  85.3388424  55.1552519 124.7612781
  84.5293494  55.4945748 123.5278025  89.3795530  65.5715290 119.9463844
  89.3019559  66.5223116 120.0252324  88.7757173  65.2261163 120.6038770
  91.8712760  52.7443156 132.6025211  91.0946094  53.3037076 132.5928075
  92.5103323  53.2299939 133.1240081  99.6633540  49.5269949 126.4368187
  99.0207920  49.8202482 125.7907982  99.1588469  49.4122869 127.2421384
  97.3173704  53.2733122 117.1254046  98.2291560  53.5060509 116.9501744
  96.8083351  53.8570166 116.5629125  90.1259132  55.5528609 132.1643178
  90.8673816  56.0913653 131.8878001  89.4196117  56.1794898 132.3214729
  95.6014471  57.6957750 130.7615339  96.0097828  57.2540160 130.0169971
  94.8791733  57.1210377 131.0149532  91.9545542  52.6330356 128.1348896
  92.8006737  53.0569770 128.2783545  91.8944179  51.9763981 128.8287459
  95.9243286  58.2558940 124.5167628  95.2952149  58.4204654 123.8143696
  95.5368948  58.6700550 125.2878592  99.8032518  59.1913378 121.8711992
  99.1183556  59.5712280 121.3209025  99.8876367  59.8008705 122.6043939
  95.1044987  50.2934725 129.7930070  94.8605919  51.0476785 129.2564345
  95.3804917  50.6720072 130.6277317  97.0583450  56.8373337 128.4707335
  97.2700345  57.4805097 127.7941716  97.0113198  56.0035654 128.0029265
  94.6609679  49.4491158 125.3743907  93.7994158  49.7472411 125.6660645
  94.6872113  49.6661557 124.4424940  91.4771248  57.9933348 121.7817713
  91.9409594  58.2721051 120.9922335  91.2128046  57.0916793 121.5990804
  88.3695329  57.5404830 124.7197476  88.9396686  57.9692098 124.0814961
  88.9603441  57.2587415 125.4181662  90.4140134  54.1156501 118.5907278
  91.1164177  54.5677544 119.0581205  90.0820763  53.4740320 119.2187171
  88.8620496  52.7068257 132.9658488  88.2319156  53.3884538 133.1993884
  88.7556583  52.5951339 132.0211626  84.1565468  52.3740053 123.8924412
  83.3664522  52.6297582 123.4164522  84.6476715  53.1888391 123.9976452
  98.1729278  59.7145293 126.6429693  98.9946721  59.3125480 126.3612374
  98.1691680  59.6113527 127.5945808  86.1080213  52.7384633 120.8507888
  85.3111377  52.8503327 121.3691384  85.8805806  53.0771285 119.9848779
  91.9385881  59.2629336 128.7990403  92.0030314  59.7249743 129.6348575
  91.2296805  58.6326701 128.9272713  82.4403171  52.6270544 126.3239403
  82.6911209  53.5117554 126.5896978  82.9762719  52.4475145 125.5514494
 106.2635271  56.0584041 122.9914664 105.5098979  55.4891439 122.8358668
 106.3982812  56.0246706 123.9385299  91.6533899  60.9297443 118.6669383
  91.5179573  61.7748979 119.0954231  92.1943711  61.1316721 117.9035317
  88.1401238  47.0089023 135.3283739  87.7468184  46.4555222 136.0031383
  88.9567379  47.3199602 135.7190256  85.1063296  58.4472881 119.2397308
  85.6187817  59.2416132 119.3902873  85.7586009  57.7499172 119.1730910
  86.9158181  61.5638638 121.3220062  87.0924809  62.4856602 121.1341046
  87.7115014  61.2497057 121.7514441  91.0569199  48.4246902 132.9203995
  91.7978913  49.0254055 132.8408458  91.2887122  47.6824540 132.3622038
  86.2010537  53.6103270 131.1982225  86.0864052  52.7088527 131.4989324
  85.3455055  53.8566966 130.8467041  93.2802375  61.5521010 132.7969725
  92.8366229  60.7657388 132.4790630  93.9419589  61.7400160 132.1313616
  88.0389496  63.0816811 127.3230404  88.5896921  62.9533875 126.5507398
  87.2000972  63.3811701 126.9725297  95.3783613  61.8323810 130.8251127
  95.3602088  62.6532691 130.3331396  96.3003533  61.7077885 131.0501268
  91.8356667  59.3467939 131.6674635  92.3685004  58.5856227 131.4373943
  91.3070748  59.0541591 132.4098790  95.0026362  44.4528005 127.1968277
  94.6590632  45.3429647 127.1207387  95.3705325  44.2629663 126.3337862
  83.0712213  56.7761536 120.0156879  83.9087435  57.1858544 119.7990587
  83.2490481  55.8360978 119.9857073  94.9676645  54.4436616 115.7040712
  94.4523268  55.2141221 115.9429099  94.6953953  53.7701753 116.3273773
  92.5523756  49.2886317 120.7625950  91.6965352  48.8993168 120.5831589
  92.9650708  49.3678278 119.9025736  94.0822903  46.8232660 125.1617510
  93.5787698  46.7862796 124.3485315  94.3753509  47.7325403 125.2214167
  90.3265789  46.9071390 124.1683692  91.1918785  46.7114199 123.8089581
  90.3943297  46.6781742 125.0953049  99.9410919  57.1968971 117.6393885
  99.1640362  56.8580131 117.1949047 100.6202400  57.2021594 116.9648850
  94.7562948  52.3163708 117.5300493  94.4513084  52.6309858 118.3810636
  95.7093390  52.3945128 117.5727826  93.2009380  58.4753932 119.1793447
  92.6730742  57.7406691 118.8666685  92.6996883  59.2528608 118.9333415
  98.1802226  56.6702952 124.2960493  97.5225900  57.3602214 124.3840622
  98.9842625  57.0599384 124.6394480  87.9328108  49.1373598 121.5400059
  88.5071859  48.9148780 120.8073252  88.5199090  49.2062293 122.2928660
  96.9907685  55.0247325 122.3464435  97.5039567  55.6577317 122.8486145
  97.6408909  54.4248520 121.9807795  88.2597695  51.1678059 115.5595944
  87.4235007  51.5052746 115.8805219  88.1202464  51.0327039 114.6223081
  90.2350775  46.0114847 120.2675128  89.5815188  45.6963864 119.6431743
  90.1931249  45.3890587 120.9934951  91.3461980  56.2934142 112.1828420
  90.4389042  56.0623396 112.3819569  91.8433012  55.4971761 112.3702402
  94.2530059  65.0031649 115.1025106  93.5791758  65.3063346 115.7110064
  94.6395881  65.8060730 114.7530563  93.4688516  52.4996781 124.5922776
  92.5511077  52.7211728 124.4344464  93.8848659  52.5743091 123.7334483
  94.2523563  53.8988196 119.7225456  94.9995382  54.4109593 119.4132578
  94.5215153  53.5772249 120.5829849  92.5250214  56.3946737 116.7052410
  91.6161433  56.1105770 116.8024880  92.5545297  56.8145815 115.8455717
  97.7569481  60.0053326 120.4743578  97.3031808  59.1644236 120.5308768
  97.1263448  60.6414725 120.8118358  96.7002401  50.9345312 121.7044245
  95.9625157  50.4222699 122.0354488  96.9529174  50.4945694 120.8927522
  96.2002420  61.8429823 121.4093396  96.4925395  62.4034880 120.6905762
  96.7101041  62.1358384 122.1646555  96.8014028  43.7121564 122.2986015
  97.1072905  42.8518928 122.0111930  97.5266633  44.3039185 122.0985008
  83.0938384  54.1152251 120.6867612  82.8962784  53.5221612 119.9618679
  82.5385048  53.8104461 121.4043551  91.0735108  54.0075358 122.8062206
  91.1283717  53.0549194 122.7304682  90.2626310  54.1634797 123.2903504
  92.2226301  57.9355481 114.0440489  91.7845731  57.2191340 113.5846126
  92.9636742  58.1631595 113.4825580  89.0127468  52.6252417 120.5652584
  88.1995333  52.9246588 120.9717777  89.5086462  52.2308106 121.2827067
  91.1636045  62.6210174 122.4986849  91.1212224  62.8471021 121.5695381
  92.0798744  62.3873549 122.6472650  94.6101679  53.0894242 129.3967478
  94.9651067  53.3165715 130.2561944  95.2573810  53.4212619 128.7744734
 100.3399416  56.2112678 120.1016807 100.2017315  56.4014274 119.1737997
  99.9835635  56.9732060 120.5584858  88.5041542  50.1970773 126.1813819
  89.1440922  50.0559532 125.4836783  87.6719073  49.9105286 125.8052421
 100.3668796  58.2789205 125.1128079 100.8005302  58.1864494 125.9611133
 101.0800376  58.2546705 124.4748095  89.2801846  59.4973203 122.2948812
  90.0742445  59.0023523 122.0931387  88.5693539  58.9691066 121.9316517
  94.0996691  61.8791299 126.6461179  94.1533713  62.4482235 127.4138895
  93.2311472  62.0493184 126.2815217  85.5884610  53.6416285 118.3708565
  84.6582198  53.5800740 118.5878527  85.6842082  53.1192238 117.5745206
  85.5070159  50.1671098 120.9586806  85.7676976  51.0816431 120.8495967
  86.3287331  49.6995540 121.1083419  86.9795084  51.5808855 128.1285631
  87.6518137  51.3726217 127.4798280  86.1524871  51.3830941 127.6890863
 101.2284345  58.3212905 127.6460964 101.4220235  59.2258716 127.8920239
 101.1284964  57.8620324 128.4799549  92.8820656  48.2070796 130.1451292
  92.2348571  48.9060746 130.0515768  93.6521671  48.6406940 130.5127540
  96.2899454  58.4719648 133.2201845  96.1384960  58.2430200 132.3031929
  96.2804133  59.4290249 133.2333190  93.0584790  56.0451561 128.2048111
  93.9876850  56.1962720 128.0317079  92.6375820  56.1335582 127.3496758
  91.8573122  60.0702225 125.9746649  91.7184208  59.7021010 126.8472587
  91.0687718  60.5849865 125.8030607  92.4521274  65.1711322 117.3172185
  92.6273030  64.6999365 118.1317808  91.7654062  65.7977088 117.5453446
  93.4078337  59.4483828 123.3635487  93.0728170  59.4084598 124.2593137
  92.9082283  58.7828544 122.8905897  87.3822581  54.8551458 128.8888068
  87.2442379  54.1231697 129.4899607  88.2927505  54.7660358 128.6072256
  96.3437529  56.7939862 113.6372546  95.7266700  56.0686690 113.5405599
  95.8754017  57.5549223 113.2939621  90.0104882  54.5671417 128.3771748
  90.7204501  53.9264609 128.3358366  89.9674190  54.8184312 129.2997928
  97.9991661  61.5038771 131.2978327  97.9404207  60.8197991 130.6308910
  98.4011179  62.2457761 130.8458953  88.7233816  51.5536635 130.1967387
  88.1871173  51.1027374 130.8488983  88.1350524  51.6882544 129.4537851
  87.0182359  68.3200684 124.0912046  87.2578958  68.9519209 124.7691064
  86.1751556  67.9688724 124.3777405  88.1336075  51.0125287 112.7593851
  87.2565541  50.8914087 112.3956097  88.6093828  50.2211365 112.5072739
  98.0009068  59.4678355 129.5292306  97.1135847  59.1304276 129.6518705
  98.5707619  58.7361386 129.7661072  79.6538215  55.8002446 122.8535358
  80.3409255  55.4864176 122.2656373  79.4986344  56.7043811 122.5802609
  84.4572937  50.6892643 127.2820382  84.3731126  50.0818312 126.5470791
  83.6355644  51.1801661 127.2829878  91.5310221  64.1279807 126.4953550
  91.4580393  64.9334778 127.0072854  91.0887614  64.3271773 125.6701571
  91.3200001  63.3651577 120.0056371  90.5367523  63.9073257 120.0994596
  92.0192746  63.8825557 120.4050612  94.6296651  49.1746206 122.6490577
  95.1265351  48.4216169 122.3291647  93.8583633  49.2110523 122.0833786
 102.4826408  54.8786572 124.2908868 102.4716285  55.7611287 123.9202801
 101.6143788  54.5258123 124.0963405  93.9908905  64.0266641 128.6511708
  94.7036877  64.6614106 128.5787610  93.4998933  64.1230507 127.8351710
  95.7126432  57.9317894 120.2229000  94.7782710  58.0519356 120.0533704
  95.8903100  57.0290360 119.9589010  91.2131620  51.3163589 122.3762261
  90.8429407  50.7634630 123.0643167  91.7090712  50.7121723 121.8237261
  99.0998983  53.7735213 120.7579034  99.5659435  54.6063204 120.6839337
  99.5506484  53.3080194 121.4624293  89.0420818  61.7761084 129.4717279
  89.7430278  62.4097567 129.6246673  88.5715933  62.1175816 128.7112918
  97.1675214  60.1179034 117.7565186  97.4435058  60.0035629 118.6659060
  96.2979713  59.7196519 117.7177359  97.0715646  46.1415800 124.7969935
  96.1578726  46.3720027 124.9652142  97.5008747  46.2254244 125.6483968
  96.8422104  54.3305692 127.2969829  96.1893555  54.5781599 126.6422282
  97.2202484  53.5169830 126.9632307  93.8029278  64.3665385 121.3998000
  93.9851673  63.5487041 121.8625752  94.6262264  64.5833077 120.9622890
  94.1371444  63.2933570 118.6613048  94.6659210  62.7826025 118.0483210
  94.3999663  62.9776100 119.5258581  92.8909677  55.0725503 133.7835867
  92.2150314  54.9719632 134.4538242  93.7137311  54.9164717 134.2471864
  84.6388536  61.3097439 126.4048382  85.2241973  60.5641127 126.5376286
  84.4413375  61.6201396 127.2885046  87.4927192  64.3448687 121.4210824
  86.8237567  64.8294814 120.9374864  87.3540061  64.5917907 122.3354203
  79.2306191  53.8803040 125.1252825  79.2690291  53.3466630 125.9189943
  78.7246484  53.3538245 124.5063802  91.6332460  66.3792430 128.0193483
  92.1850768  66.5424052 128.7842568  91.9738654  66.9696868 127.3473507
  86.6096953  48.7267580 128.6215367  86.6738280  49.5882411 128.2092765
  86.5464074  48.1141582 127.8887726  86.0849226  50.7990713 132.2688402
  86.7121265  50.4167790 132.8825926  85.2277145  50.5804915 132.6344094
  96.4843335  61.2053688 133.8742137  97.0283239  61.8183646 133.3797092
  95.9030179  61.7633266 134.3909150  82.8614769  52.6067142 118.2006756
  83.1568210  51.6977820 118.1473810  81.9602805  52.5854881 117.8787759
  94.7700848  64.3274406 125.0057165  94.6451987  63.5264146 124.4968110
  95.4279939  64.8220599 124.5171135  86.3909016  50.6823138 124.1834305
  85.6695602  51.2959106 124.0441778  87.1802272  51.2180903 124.1050951
  96.8335756  62.1283426 126.6336715  95.8866091  62.0088777 126.5615042
  97.1818529  61.2405924 126.7162976  89.1935329  48.0177565 130.4574957
  89.7169731  48.2639861 131.2201266  88.9747663  48.8497600 130.0378094
  84.5902610  50.2881239 118.3246081  84.2615317  49.4078618 118.1421187
  84.9441981  50.2328908 119.2122471  93.8382189  61.9236142 122.8341067
  93.6907152  60.9952850 123.0148637  94.6635683  61.9456233 122.3498142
  87.7044434  50.5754209 118.6921559  88.0440506  51.1040130 117.9700168
  88.1516554  50.9134615 119.4680126  97.4416311  62.7464701 123.9205940
  98.3662859  62.5407562 123.7830391  97.2731614  62.4981102 124.8295281
  90.3987874  48.9591260 128.1424627  90.0584695  48.1599073 128.5445307
  89.6926881  49.2592971 127.5701460  91.0504346  46.0440572 126.5951950
  91.8730415  45.5701051 126.4730841  91.2942410  46.8231056 127.0950637
  89.6912581  49.0728831 116.8914852  90.4120943  49.4510084 116.3878569
  89.0677885  49.7917708 116.9949830  93.8343704  49.7773980 117.8273184
  94.0507318  50.6598618 117.5262012  93.3537771  49.3860193 117.0978826
  88.5742925  52.7359693 124.4043929  88.4287506  53.0499996 125.2968210
  88.0968129  53.3544593 123.8514827  90.4339308  49.7262241 124.4524818
  90.4200877  48.8303334 124.1157116  91.1511736  49.7332905 125.0863104
  92.2865439  50.1599581 126.4977946  92.0283216  51.0816652 126.4962276
  91.7550479  49.7630016 127.1878410  97.2311627  63.2650368 119.2768031
  97.4048505  62.6996791 118.5241884  97.7240519  64.0651263 119.0947521
  83.0488587  55.2765037 127.3431590  82.5042055  56.0524845 127.4751864
  83.9267937  55.6235842 127.1850711  89.8376204  48.6076621 119.7212389
  89.9592115  47.6793267 119.9203276  89.5478246  48.6215307 118.8090704
  92.7067394  46.2931532 122.8579108  92.7289091  46.3570865 121.9031088
  93.1235453  45.4536040 123.0519615 103.0851018  56.0286791 120.8958331
 103.5282164  55.2794116 120.4977454 102.2077529  56.0196928 120.5132063
  98.2186800  62.5817133 116.3764930  98.9137704  63.2023825 116.5952244
  98.5609950  61.7312484 116.6517307  83.8354609  54.4034934 130.2361747
  83.0936345  54.5517569 130.8226377  83.5147353  54.6643199 129.3728496
 100.1178223  60.0316838 117.9052260 100.6429547  60.3704111 117.1801580
 100.0300575  59.0963854 117.7215395  91.7798272  63.9450912 130.0342137
  92.0885398  63.7000059 130.9064836  92.5773754  64.1497550 129.5461007
  91.8018884  66.0988822 122.2647513  91.3623874  65.6065200 122.9580370
  92.5527001  65.5561789 122.0239589  84.2811223  62.2900362 122.2672142
  85.1069243  61.9904134 121.8870785  83.9305275  61.5207985 122.7161930
  89.2492756  61.6426831 124.3369815  88.6272765  60.9797536 124.0372043
  89.9197623  61.6687963 123.6543463  82.4819828  60.2086689 123.2261075
  81.6451736  59.7808863 123.0445076  82.4543473  60.4019132 124.1631866
  89.3217283  50.1208619 133.9302321  89.3705439  50.9970741 133.5480091
  89.8639797  49.5786012 133.3573964  99.8072129  60.6649742 133.2103458
  99.0167673  60.6473881 132.6707958  99.5705484  61.2038036 133.9652495
  99.9270004  57.5142208 130.5236187  99.9768009  57.3492216 131.4651710
  99.8183927  56.6469467 130.1334068  88.8106263  60.1930754 117.8128276
  88.9594383  60.8766218 117.1594948  89.6172706  60.1735844 118.3277731
  97.2173766  53.4973136 131.8395493  98.1183629  53.3579601 131.5479491
  97.2921741  53.6627591 132.7793671  91.5516572  50.8739991 130.6848680
  90.6819881  51.1673557 130.4131268  91.7876052  51.4580436 131.4055943
 101.4288201  59.9339150 130.7678208 101.1373009  60.2969130 131.6041669
 100.8160332  59.2206158 130.5891540 102.6283883  57.4992030 123.2880779
 103.4630775  57.9381834 123.4518339 102.7643012  57.0230683 122.4689024
  99.6775389  55.0571764 129.2358266 100.1529511  55.2499411 128.4277118
  98.7540954  55.1130950 128.9901650  86.5658896  56.2195932 118.8189345
  86.3204938  55.3158262 119.0169555  86.7354810  56.2213082 117.8768823
  94.2555606  47.0919608 128.2014100  94.7737549  47.8280635 127.8760589
  93.9010738  47.3983601 129.0360859  85.8354543  51.9524289 116.3175506
  85.1423788  52.0268644 115.6615542  85.5906295  51.1884633 116.8397023
  94.5068200  43.5119891 123.7214997  94.7869953  42.8443080 124.3475423
  95.2918807  43.7048986 123.2089661  92.3101668  62.6878884 115.2840023
  91.7375635  63.3069072 114.8310495  92.8834462  63.2378246 115.8179945
  98.3777058  51.9337525 127.4686572  99.3294481  52.0335622 127.4898796
  98.2080508  51.1415793 127.9784656  96.3991438  49.0193108 127.6545973
  95.8041370  49.2998120 126.9592461  96.1141134  49.5087009 128.4262714
  95.5298928  62.9716035 116.4148605  96.4629601  62.9061596 116.6181481
  95.4422141  63.8072301 115.9563138  98.1586945  62.2881905 113.3752553
  98.0800576  61.9541769 114.2688311  98.9796611  62.7803673 113.3744025
 100.8565136  55.1543644 126.5828872 100.8241456  54.2159645 126.7688555
 101.4665759  55.2327681 125.8494696  92.6948467  54.0239697 112.6256076
  93.6407571  53.8945905 112.6944494  92.3162712  53.2854359 113.1025504
 101.0059624  51.9454688 126.6287155 100.4898673  51.1613144 126.4417084
 101.8899573  51.6173404 126.7933674  98.6670351  45.6895703 122.5882967
  98.4695172  45.3810791 123.4726299  99.2770057  46.4157342 122.7180897
 106.6741686  56.2159651 125.7234908 107.4045074  55.9544939 126.2842612
 106.0648631  55.4788373 125.7636976 104.7556983  54.3567514 126.3209360
 104.0290146  54.2223479 125.7125851 104.3404270  54.6644342 127.1266078
  92.5787159  58.0757443 134.0856733  93.4990169  58.2536042 134.2796779
  92.5436742  57.1313489 133.9336432  90.8791384  51.9489674 112.5610961
  89.9722839  51.6522786 112.6373674  91.1567365  51.6519492 111.6945247
  81.7969324  53.2696037 123.0110007  81.4772109  52.4161345 122.7184381
  81.2502752  53.4844615 123.7667975  85.5749232  55.9858478 126.7279514
  85.7935242  56.9175586 126.7467548  85.9875006  55.6266452 127.5134318
  92.4953450  46.4926563 118.7155202  91.6854178  46.1473648 119.0910448
  93.1837867  46.1834107 119.3042814  94.4243998  45.5704610 120.3379499
  94.9775036  45.9900064 120.9969522  94.6614084  44.6440358 120.3802455
  90.4477097  51.5591684 136.1182263  90.3473824  52.5086041 136.0494354
  90.2298639  51.2309923 135.2458333  89.6490168  48.8076609 112.7022940
  90.5109332  49.1331507 112.9618757  89.8340513  48.0208105 112.1896006
  81.6657584  56.8898948 124.9803129  80.9721056  56.4752901 124.4673083
  82.4130575  56.9319485 124.3836548  97.8022805  47.6805135 119.8458163
  97.2221474  48.3389939 119.4636215  97.5358738  46.8582480 119.4345581
  96.2526371  47.0810193 122.0479483  96.7526150  47.1926727 121.2393802
  96.8961979  46.7771246 122.6880292  90.3108367  54.9888823 134.9347324
  89.8275449  55.7889183 135.1411213  90.3969306  54.9996767 133.9814768
  83.5794327  56.8217202 122.8569144  83.5565015  56.9204890 121.9051027
  83.8894963  57.6682353 123.1786310  86.2381705  58.8793357 126.9715758
  87.1924958  58.8477300 126.9045690  86.0394228  58.4183981 127.7865984
  86.8281087  57.4494473 129.5386556  87.6473976  57.9438552 129.5621393
  87.1017894  56.5326441 129.5104123  96.5847683  49.8405226 118.9014511
  95.6973538  50.1254876 118.6834706  97.0001672  49.6798989 118.0541788
  99.9362219  49.8651747 122.6168851 100.7122609  50.3548199 122.8893467
  99.2110353  50.2909801 123.0740720 102.3734778  50.5779366 123.6742791
 102.9679269  50.3375102 122.9636099 102.4461361  49.8586496 124.3016327
  84.5931933  64.4212977 123.9885956  84.4586401  63.6613378 123.4223954
  84.1763996  65.1453877 123.5214745  95.7290896  59.6049900 112.9962531
  96.4326747  59.8099903 113.6120187  95.0053545  60.1726662 113.2611615
  96.5588707  55.3559762 119.1164801  96.5023908  55.8128313 118.2772434
  97.1117049  54.5950446 118.9387644 100.3693513  51.1449493 119.9414921
 100.1130447  50.7446129 120.7723129  99.7446381  51.8593287 119.8165060
 104.6805850  53.8845567 122.4486212 104.1205408  53.9538756 123.2217774
 104.0749354  53.7086551 121.7285709  87.7501059  65.3182294 124.2004399
  87.6333443  66.2627726 124.0983089  86.9293506  65.0155855 124.5890198
  97.6377594  60.0432430 115.0460991  98.4723198  59.6113628 114.8638466
  97.4761937  59.8714443 115.9737886  97.2923486  56.5464543 116.4117331
  97.2372290  56.3808814 115.4705775  96.6669541  57.2540576 116.5679520
  82.0816001  51.7832607 130.2378753  82.7274865  51.2731561 130.7265978
  81.8733152  52.5201289 130.8122178  94.6069393  58.8513455 135.7370893
  95.4760553  59.0254107 135.3757528  94.1276145  59.6707872 135.6146623
  90.6019611  46.0472652 115.9902649  90.5898281  46.9914492 116.1470920
  91.4943033  45.8642797 115.6962110  88.7755573  65.9710556 127.4160327
  89.6782820  66.0034166 127.7326822  88.5492944  65.0411007 127.4306663
  90.5309175  64.7241542 124.0770406  89.5804806  64.7243404 123.9634778
  90.8341662  63.9774277 123.5606440  94.4171731  42.6415428 120.2448586
  93.6504127  42.0873915 120.3905268  94.8282436  42.7137297 121.1062737
  86.4213492  48.9300224 134.3353767  87.2844954  48.5737029 134.5457092
  85.8478903  48.5914119 135.0229171 106.2661869  70.5602081 125.1416168
 106.9040279  70.4408828 124.4379508 106.1482712  71.5082925 125.2004120
 103.0751575  70.5129509 125.0777693 102.7370087  70.3970573 124.1898228
 103.9441343  70.1120674 125.0578699  98.9338391  72.3664985 121.0674584
  98.3703256  72.2754922 120.2990871  98.8190786  71.5464890 121.5477076
 103.5571358  71.6664360 131.0363898 103.5459999  71.2717159 130.1644402
 103.7191998  70.9330433 131.6297670  96.4802823  73.8616177 123.9058804
  97.2724115  73.5207001 123.4905103  96.7199473  73.9711152 124.8260957
 104.5137950  76.0335953 116.3789049 103.8625929  76.6190033 115.9923062
 105.3082312  76.5642148 116.4384086  98.4393577  73.1225090 116.7776183
  99.2124453  72.5754077 116.6389059  98.7918976  73.9869339 116.9890644
 100.2778619  74.4501472 129.9843082  99.9868485  75.3547103 129.8689749
 100.9135604  74.4918000 130.6987152 101.2034826  71.8278321 126.5744442
 101.7998398  71.6034343 125.8601405 101.2609798  71.0863066 127.1769890
 100.7759855  69.2817756 114.4094633 101.0285375  68.7599277 113.6478096
  99.8384414  69.1183902 114.5121316 105.8203137  68.2853534 122.2169376
 106.6066227  67.8672958 121.8659793 106.0841842  69.1899627 122.3851024
 105.9913215  73.7226385 116.9158033 105.3559048  73.7961011 117.6278938
 105.6610621  74.3119984 116.2377112 111.2211565  68.2228768 123.1202355
 111.9536737  67.6527984 123.3540184 110.4650920  67.8350368 123.5608860
 100.4956143  71.1845862 116.6119008 100.3792401  70.5090765 117.2800092
 100.6058403  70.6978236 115.7951161 102.8387684  70.6456009 120.3165697
 102.4745892  70.1186630 121.0278619 103.6954800  70.2554478 120.1432182
 108.7436985  61.9350342 127.5796963 108.4120310  62.8045753 127.3558178
 108.1482598  61.6186626 128.2590994 102.4793171  65.6745909 115.3127046
 102.6467574  66.5426145 115.6797517 102.2890340  65.8373191 114.3888335
 105.2368504  74.1362888 126.9792876 104.9369228  75.0387927 126.8708683
 104.8919564  73.8695071 127.8314029  98.6880986  70.5876685 123.0129580
  97.7631482  70.4552899 123.2207272  98.9365399  71.3670904 123.5099523
 108.6365648  66.6545428 124.6590313 107.7282526  66.5860836 124.3649074
 108.5853244  67.1317373 125.4872139 102.4582392  68.1303566 116.2973712
 102.3382017  68.5760617 117.1359193 101.7634981  68.4788884 115.7387251
  96.0489797  70.2309958 123.8473369  96.1782178  70.4844437 124.7612781
  95.3687248  70.8237666 123.5278025 100.2189284  80.9007208 119.9463844
 100.1413314  81.8515033 120.0252324  99.6150928  80.5553081 120.6038770
 102.7106514  68.0735074 132.6025211 101.9339848  68.6328994 132.5928075
 103.3497077  68.5591857 133.1240081 110.5027295  64.8561866 126.4368187
 109.8601675  65.1494400 125.7907982 109.9982223  64.7414787 127.2421384
 108.1567458  68.6025040 117.1254046 109.0685314  68.8352426 116.9501744
 107.6477105  69.1862084 116.5629125 100.9652886  70.8820527 132.1643178
 101.7067571  71.4205571 131.8878001 100.2589872  71.5086816 132.3214729
 106.4408226  73.0249667 130.7615339 106.8491582  72.5832078 130.0169971
 105.7185487  72.4502295 131.0149532 102.7939296  67.9622274 128.1348896
 103.6400491  68.3861688 128.2783545 102.7337934  67.3055898 128.8287459
 106.7637041  73.5850858 124.5167628 106.1345903  73.7496572 123.8143696
 106.3762703  73.9992468 125.2878592 110.6426273  74.5205296 121.8711992
 109.9577311  74.9004197 121.3209025 110.7270122  75.1300622 122.6043939
 105.9438741  65.6226642 129.7930070 105.6999673  66.3768703 129.2564345
 106.2198672  66.0011990 130.6277317 107.8977204  72.1665255 128.4707335
 108.1094099  72.8097015 127.7941716 107.8506952  71.3327571 128.0029265
 105.5003433  64.7783076 125.3743907 104.6387912  65.0764329 125.6660645
 105.5265868  64.9953474 124.4424940 102.3165002  73.3225266 121.7817713
 102.7803348  73.6012969 120.9922335 102.0521801  72.4208711 121.5990804
  99.2089084  72.8696748 124.7197476  99.7790441  73.2984016 124.0814961
  99.7997195  72.5879332 125.4181662 101.2533889  69.4448418 118.5907278
 101.9557932  69.8969462 119.0581205 100.9214517  68.8032237 119.2187171
  99.7014250  68.0360175 132.9658488  99.0712911  68.7176456 133.1993884
  99.5950338  67.9243257 132.0211626  94.9959222  67.7031971 123.8924412
  94.2058276  67.9589500 123.4164522  95.4870470  68.5180309 123.9976452
 109.0123032  75.0437210 126.6429693 109.8340476  74.6417398 126.3612374
 109.0085435  74.9405444 127.5945808  96.9473968  68.0676550 120.8507888
  96.1505131  68.1795245 121.3691384  96.7199560  68.4063203 119.9848779
 102.7779635  74.5921254 128.7990403 102.8424068  75.0541661 129.6348575
 102.0690559  73.9618618 128.9272713  93.2796925  67.9562462 126.3239403
  93.5304964  68.8409471 126.5896978  93.8156474  67.7767063 125.5514494
 117.1029025  71.3875959 122.9914664 116.3492733  70.8183357 122.8358668
 117.2376566  71.3538623 123.9385299 102.4927653  76.2589361 118.6669383
 102.3573328  77.1040897 119.0954231 103.0337466  76.4608639 117.9035317
  98.9794993  62.3380941 135.3283739  98.5861938  61.7847139 136.0031383
  99.7961133  62.6491519 135.7190256  95.9457051  73.7764799 119.2397308
  96.4581571  74.5708049 119.3902873  96.5979763  73.0791090 119.1730910
  97.7551935  76.8930555 121.3220062  97.9318564  77.8148520 121.1341046
  98.5508769  76.5788975 121.7514441 101.8962954  63.7538820 132.9203995
 102.6372667  64.3545973 132.8408458 102.1280877  63.0116458 132.3622038
  97.0404292  68.9395187 131.1982225  96.9257807  68.0380445 131.4989324
  96.1848810  69.1858884 130.8467041 104.1196130  76.8812928 132.7969725
 103.6759984  76.0949306 132.4790630 104.7813343  77.0692078 132.1313616
  98.8783251  78.4108729 127.3230404  99.4290676  78.2825793 126.5507398
  98.0394727  78.7103618 126.9725297 106.2177368  77.1615728 130.8251127
 106.1995843  77.9824609 130.3331396 107.1397288  77.0369803 131.0501268
 102.6750422  74.6759857 131.6674635 103.2078759  73.9148145 131.4373943
 102.1464503  74.3833509 132.4098790 105.8420117  59.7819923 127.1968277
 105.4984386  60.6721565 127.1207387 106.2099079  59.5921581 126.3337862
  93.9105967  72.1053453 120.0156879  94.7481189  72.5150462 119.7990587
  94.0884235  71.1652896 119.9857073 105.8070399  69.7728534 115.7040712
 105.2917023  70.5433139 115.9429099 105.5347708  69.0993670 116.3273773
 103.3917510  64.6178235 120.7625950 102.5359107  64.2285085 120.5831589
 103.8044462  64.6970196 119.9025736 104.9216657  62.1524578 125.1617510
 104.4181453  62.1154713 124.3485315 105.2147264  63.0617321 125.2214167
 101.1659543  62.2363308 124.1683692 102.0312540  62.0406117 123.8089581
 101.2337052  62.0073660 125.0953049 110.7804674  72.5260889 117.6393885
 110.0034116  72.1872048 117.1949047 111.4596155  72.5313512 116.9648850
 105.5956703  67.6455626 117.5300493 105.2906838  67.9601775 118.3810636
 106.5487145  67.7237046 117.5727826 104.0403134  73.8045849 119.1793447
 103.5124496  73.0698609 118.8666685 103.5390637  74.5820526 118.9333415
 109.0195980  71.9994870 124.2960493 108.3619655  72.6894131 124.3840622
 109.8236380  72.3891302 124.6394480  98.7721862  64.4665516 121.5400059
  99.3465614  64.2440697 120.8073252  99.3592845  64.5354210 122.2928660
 107.8301439  70.3539243 122.3464435 108.3433321  70.9869234 122.8486145
 108.4802663  69.7540438 121.9807795  99.0991449  66.4969977 115.5595944
  98.2628761  66.8344663 115.8805219  98.9596219  66.3618957 114.6223081
 101.0744530  61.3406765 120.2675128 100.4208942  61.0255782 119.6431743
 101.0325004  60.7182505 120.9934951 102.1855735  71.6226060 112.1828420
 101.2782796  71.3915313 112.3819569 102.6826767  70.8263679 112.3702402
 105.0923814  80.3323567 115.1025106 104.4185512  80.6355264 115.7110064
 105.4789635  81.1352647 114.7530563 104.3082270  67.8288698 124.5922776
 103.3904832  68.0503645 124.4344464 104.7242414  67.9035009 123.7334483
 105.0917318  69.2280114 119.7225456 105.8389137  69.7401511 119.4132578
 105.3608907  68.9064167 120.5829849 103.3643968  71.7238655 116.7052410
 102.4555187  71.4397687 116.8024880 103.3939052  72.1437733 115.8455717
 108.5963235  75.3345244 120.4743578 108.1425563  74.4936154 120.5308768
 107.9657202  75.9706642 120.8118358 107.5396155  66.2637230 121.7044245
 106.8018912  65.7514616 122.0354488 107.7922929  65.8237612 120.8927522
 107.0396175  77.1721741 121.4093396 107.3319149  77.7326798 120.6905762
 107.5494795  77.4650302 122.1646555 107.6407782  59.0413482 122.2986015
 107.9466659  58.1810846 122.0111930 108.3660387  59.6331102 122.0985008
  93.9332138  69.4444169 120.6867612  93.7356538  68.8513529 119.9618679
  93.3778802  69.1396379 121.4043551 101.9128862  69.3367275 122.8062206
 101.9677472  68.3841112 122.7304682 101.1020064  69.4926714 123.2903504
 103.0620056  73.2647398 114.0440489 102.6239486  72.5483257 113.5846126
 103.8030497  73.4923513 113.4825580  99.8521222  67.9544335 120.5652584
  99.0389088  68.2538506 120.9717777 100.3480216  67.5600024 121.2827067
 102.0029800  77.9502092 122.4986849 101.9605979  78.1762938 121.5695381
 102.9192499  77.7165466 122.6472650 105.4495434  68.4186159 129.3967478
 105.8044821  68.6457633 130.2561944 106.0967565  68.7504536 128.7744734
 111.1793171  71.5404595 120.1016807 111.0411069  71.7306191 119.1737997
 110.8229389  72.3023978 120.5584858  99.3435297  65.5262690 126.1813819
  99.9834676  65.3851450 125.4836783  98.5112827  65.2397204 125.8052421
 111.2062550  73.6081122 125.1128079 111.6399057  73.5156411 125.9611133
 111.9194131  73.5838623 124.4748095 100.1195601  74.8265121 122.2948812
 100.9136199  74.3315441 122.0931387  99.4087293  74.2982984 121.9316517
 104.9390445  77.2083216 126.6461179 104.9927467  77.7774153 127.4138895
 104.0705227  77.3785101 126.2815217  96.4278364  68.9708203 118.3708565
  95.4975952  68.9092658 118.5878527  96.5235836  68.4484155 117.5745206
  96.3463913  65.4963015 120.9586806  96.6070731  66.4108349 120.8495967
  97.1681086  65.0287458 121.1083419  97.8188839  66.9100773 128.1285631
  98.4911892  66.7018135 127.4798280  96.9918625  66.7122859 127.6890863
 112.0678100  73.6504823 127.6460964 112.2613990  74.5550633 127.8920239
 111.9678718  73.1912242 128.4799549 103.7214411  63.5362714 130.1451292
 103.0742326  64.2352663 130.0515768 104.4915426  63.9698857 130.5127540
 107.1293209  73.8011566 133.2201845 106.9778715  73.5722117 132.3031929
 107.1197888  74.7582167 133.2333190 103.8978545  71.3743478 128.2048111
 104.8270605  71.5254638 128.0317079 103.4769575  71.4627499 127.3496758
 102.6966877  75.3994143 125.9746649 102.5577962  75.0312927 126.8472587
 101.9081473  75.9141782 125.8030607 103.2915029  80.5003239 117.3172185
 103.4666784  80.0291283 118.1317808 102.6047817  81.1269006 117.5453446
 104.2472092  74.7775746 123.3635487 103.9121924  74.7376516 124.2593137
 103.7476038  74.1120461 122.8905897  98.2216336  70.1843376 128.8888068
  98.0836134  69.4523614 129.4899607  99.1321259  70.0952276 128.6072256
 107.1831283  72.1231780 113.6372546 106.5660454  71.3978608 113.5405599
 106.7147772  72.8841140 113.2939621 100.8498636  69.8963335 128.3771748
 101.5598255  69.2556527 128.3358366 100.8067945  70.1476230 129.2997928
 108.8385415  76.8330688 131.2978327 108.7797961  76.1489908 130.6308910
 109.2404934  77.5749678 130.8458953  99.5627570  66.8828553 130.1967387
  99.0264927  66.4319291 130.8488983  98.9744279  67.0174462 129.4537851
  97.8576114  83.6492602 124.0912046  98.0972712  84.2811126 124.7691064
  97.0145310  83.2980642 124.3777405  98.9729829  66.3417204 112.7593851
  98.0959296  66.2206005 112.3956097  99.4487582  65.5503283 112.5072739
 108.8402822  74.7970272 129.5292306 107.9529601  74.4596194 129.6518705
 109.4101373  74.0653303 129.7661072  90.4931970  71.1294364 122.8535358
  91.1803009  70.8156094 122.2656373  90.3380098  72.0335729 122.5802609
  95.2966692  66.0184561 127.2820382  95.2124880  65.4110230 126.5470791
  94.4749398  66.5093579 127.2829878 102.3703976  79.4571725 126.4953550
 102.2974147  80.2626696 127.0072854 101.9281369  79.6563690 125.6701571
 102.1593755  78.6943495 120.0056371 101.3761277  79.2365175 120.0994596
 102.8586501  79.2117474 120.4050612 105.4690406  64.5038124 122.6490577
 105.9659105  63.7508086 122.3291647 104.6977387  64.5402441 122.0833786
 113.3220163  70.2078490 124.2908868 113.3110039  71.0903205 123.9202801
 112.4537542  69.8550040 124.0963405 104.8302659  79.3558559 128.6511708
 105.5430632  79.9906023 128.5787610 104.3392688  79.4522425 127.8351710
 106.5520186  73.2609811 120.2229000 105.6176465  73.3811274 120.0533704
 106.7296855  72.3582278 119.9589010 102.0525374  66.6455507 122.3762261
 101.6823162  66.0926547 123.0643167 102.5484467  66.0413641 121.8237261
 109.9392738  69.1027131 120.7579034 110.4053190  69.9355122 120.6839337
 110.3900238  68.6372112 121.4624293  99.8814573  77.1053002 129.4717279
 100.5824032  77.7389485 129.6246673  99.4109688  77.4467734 128.7112918
 108.0068969  75.4470952 117.7565186 108.2828813  75.3327546 118.6659060
 107.1373467  75.0488437 117.7177359 107.9109400  61.4707718 124.7969935
 106.9972480  61.7011944 124.9652142 108.3402502  61.5546162 125.6483968
 107.6815859  69.6597609 127.2969829 107.0287309  69.9073517 126.6422282
 108.0596239  68.8461748 126.9632307 104.6423033  79.6957303 121.3998000
 104.8245427  78.8778959 121.8625752 105.4656019  79.9124995 120.9622890
 104.9765198  78.6225488 118.6613048 105.5052965  78.1117942 118.0483210
 105.2393418  78.3068018 119.5258581 103.7303432  70.4017421 133.7835867
 103.0544069  70.3011550 134.4538242 104.5531066  70.2456634 134.2471864
  95.4782291  76.6389357 126.4048382  96.0635728  75.8933045 126.5376286
  95.2807129  76.9493314 127.2885046  98.3320946  79.6740604 121.4210824
  97.6631321  80.1586732 120.9374864  98.1933816  79.9209825 122.3354203
  90.0699946  69.2094957 125.1252825  90.1084045  68.6758548 125.9189943
  89.5640238  68.6830163 124.5063802 102.4726215  81.7084348 128.0193483
 103.0244523  81.8715970 128.7842568 102.8132408  82.2988786 127.3473507
  97.4490708  64.0559498 128.6215367  97.5132034  64.9174329 128.2092765
  97.3857828  63.4433499 127.8887726  96.9242980  66.1282630 132.2688402
  97.5515019  65.7459708 132.8825926  96.0670899  65.9096832 132.6344094
 107.3237089  76.5345606 133.8742137 107.8676993  77.1475564 133.3797092
 106.7423934  77.0925184 134.3909150  93.7008523  67.9359059 118.2006756
  93.9961964  67.0269738 118.1473810  92.7996559  67.9146799 117.8787759
 105.6094602  79.6566324 125.0057165 105.4845741  78.8556063 124.4968110
 106.2673693  80.1512517 124.5171135  97.2302770  66.0115056 124.1834305
  96.5089356  66.6251024 124.0441778  98.0196026  66.5472821 124.1050951
 107.6729510  77.4575344 126.6336715 106.7259846  77.3380695 126.5615042
 108.0212284  76.5697842 126.7162976 100.0329084  63.3469483 130.4574957
 100.5563486  63.5931779 131.2201266  99.8141417  64.1789517 130.0378094
  95.4296365  65.6173157 118.3246081  95.1009071  64.7370536 118.1421187
  95.7835736  65.5620826 119.2122471 104.6775944  77.2528060 122.8341067
 104.5300906  76.3244767 123.0148637 105.5029437  77.2748151 122.3498142
  98.5438188  65.9046127 118.6921559  98.8834260  66.4332048 117.9700168
  98.9910308  66.2426533 119.4680126 108.2810066  78.0756619 123.9205940
 109.2056613  77.8699480 123.7830391 108.1125369  77.8273020 124.8295281
 101.2381629  64.2883178 128.1424627 100.8978449  63.4890991 128.5445307
 100.5320635  64.5884888 127.5701460 101.8898101  61.3732490 126.5951950
 102.7124170  60.8992968 126.4730841 102.1336164  62.1522974 127.0950637
 100.5306335  64.4020749 116.8914852 101.2514698  64.7802001 116.3878569
  99.9071639  65.1209625 116.9949830 104.6737458  65.1065897 117.8273184
 104.8901072  65.9890535 117.5262012 104.1931525  64.7152111 117.0978826
  99.4136679  68.0651611 124.4043929  99.2681260  68.3791914 125.2968210
  98.9361883  68.6836511 123.8514827 101.2733062  65.0554159 124.4524818
 101.2594631  64.1595252 124.1157116 101.9905490  65.0624822 125.0863104
 103.1259193  65.4891499 126.4977946 102.8676971  66.4108570 126.4962276
 102.5944233  65.0921933 127.1878410 108.0705382  78.5942286 119.2768031
 108.2442259  78.0288708 118.5241884 108.5634273  79.3943181 119.0947521
  93.8882342  70.6056955 127.3431590  93.3435810  71.3816763 127.4751864
  94.7661691  70.9527760 127.1850711 100.6769958  63.9368539 119.7212389
 100.7985869  63.0085185 119.9203276 100.3872001  63.9507225 118.8090704
 103.5461149  61.6223449 122.8579108 103.5682845  61.6862782 121.9031088
 103.9629208  60.7827958 123.0519615 113.9244773  71.3578709 120.8958331
 114.3675919  70.6086034 120.4977454 113.0471283  71.3488845 120.5132063
 109.0580554  77.9109050 116.3764930 109.7531459  78.5315743 116.5952244
 109.4003704  77.0604402 116.6517307  94.6748363  69.7326851 130.2361747
  93.9330099  69.8809487 130.8226377  94.3541108  69.9935117 129.3728496
 110.9571977  75.3608756 117.9052260 111.4823301  75.6996029 117.1801580
 110.8694330  74.4255771 117.7215395 102.6192026  79.2742830 130.0342137
 102.9279153  79.0291976 130.9064836 103.4167508  79.4789468 129.5461007
 102.6412638  81.4280739 122.2647513 102.2017628  80.9357118 122.9580370
 103.3920755  80.8853707 122.0239589  95.1204977  77.6192280 122.2672142
  95.9462997  77.3196052 121.8870785  94.7699029  76.8499903 122.7161930
 100.0886510  76.9718748 124.3369815  99.4666520  76.3089453 124.0372043
 100.7591377  76.9979880 123.6543463  93.3213582  75.5378607 123.2261075
  92.4845490  75.1100781 123.0445076  93.2937228  75.7311050 124.1631866
 100.1611038  65.4500536 133.9302321 100.2099193  66.3262659 133.5480091
 100.7033552  64.9077929 133.3573964 110.6465883  75.9941660 133.2103458
 109.8561427  75.9765798 132.6707958 110.4099238  76.5329953 133.9652495
 110.7663758  72.8434126 130.5236187 110.8161763  72.6784133 131.4651710
 110.6577682  71.9761385 130.1334068  99.6500017  75.5222672 117.8128276
  99.7988138  76.2058136 117.1594948 100.4566461  75.5027762 118.3277731
 108.0567521  68.8265054 131.8395493 108.9577384  68.6871519 131.5479491
 108.1315495  68.9919509 132.7793671 102.3910326  66.2031909 130.6848680
 101.5213636  66.4965475 130.4131268 102.6269807  66.7872354 131.4055943
 112.2681955  75.2631067 130.7678208 111.9766764  75.6261048 131.6041669
 111.6554087  74.5498076 130.5891540 113.4677638  72.8283947 123.2880779
 114.3024529  73.2673751 123.4518339 113.6036766  72.3522600 122.4689024
 110.5169144  70.3863682 129.2358266 110.9923265  70.5791328 128.4277118
 109.5934709  70.4422868 128.9901650  97.4052650  71.5487849 118.8189345
  97.1598692  70.6450179 119.0169555  97.5748565  71.5505000 117.8768823
 105.0949360  62.4211526 128.2014100 105.6131304  63.1572553 127.8760589
 104.7404493  62.7275519 129.0360859  96.6748298  67.2816207 116.3175506
  95.9817543  67.3560562 115.6615542  96.4300050  66.5176551 116.8397023
 105.3461954  58.8411808 123.7214997 105.6263708  58.1734997 124.3475423
 106.1312561  59.0340904 123.2089661 103.1495423  78.0170802 115.2840023
 102.5769390  78.6360989 114.8310495 103.7228216  78.5670164 115.8179945
 109.2170813  67.2629442 127.4686572 110.1688235  67.3627540 127.4898796
 109.0474263  66.4707711 127.9784656 107.2385192  64.3485025 127.6545973
 106.6435124  64.6290038 126.9592461 106.9534889  64.8378926 128.4262714
 106.3692682  78.3007952 116.4148605 107.3023356  78.2353514 116.6181481
 106.2815895  79.1364219 115.9563138 108.9980699  77.6173823 113.3752553
 108.9194331  77.2833686 114.2688311 109.8190366  78.1095590 113.3744025
 111.6958890  70.4835562 126.5828872 111.6635210  69.5451563 126.7688555
 112.3059514  70.5619599 125.8494696 103.5342221  69.3531615 112.6256076
 104.4801326  69.2237823 112.6944494 103.1556466  68.6146277 113.1025504
 111.8453379  67.2746605 126.6287155 111.3292427  66.4905062 126.4417084
 112.7293327  66.9465322 126.7933674 109.5064106  61.0187621 122.5882967
 109.3088927  60.7102709 123.4726299 110.1163811  61.7449260 122.7180897
 117.5135440  71.5451569 125.7234908 118.2438829  71.2836857 126.2842612
 116.9042386  70.8080291 125.7636976 115.5950737  69.6859431 126.3209360
 114.8683901  69.5515396 125.7125851 115.1798024  69.9936260 127.1266078
 103.4180914  73.4049361 134.0856733 104.3383923  73.5827960 134.2796779
 103.3830497  72.4605406 133.9336432 101.7185138  67.2781591 112.5610961
 100.8116594  66.9814704 112.6373674 101.9961119  66.9811409 111.6945247
  92.6363079  68.5987955 123.0110007  92.3165863  67.7453263 122.7184381
  92.0896507  68.8136533 123.7667975  96.4142986  71.3150396 126.7279514
  96.6328996  72.2467503 126.7467548  96.8268760  70.9558370 127.5134318
 103.3347204  61.8218481 118.7155202 102.5247932  61.4765566 119.0910448
 104.0231621  61.5126025 119.3042814 105.2637752  60.8996528 120.3379499
 105.8168791  61.3191981 120.9969522 105.5007839  59.9732276 120.3802455
 101.2870852  66.8883601 136.1182263 101.1867578  67.8377958 136.0494354
 101.0692394  66.5601840 135.2458333 100.4883923  64.1368526 112.7022940
 101.3503087  64.4623425 112.9618757 100.6734267  63.3500022 112.1896006
  92.5051339  72.2190866 124.9803129  91.8114810  71.8044819 124.4673083
  93.2524330  72.2611403 124.3836548 108.6416559  63.0097053 119.8458163
 108.0615229  63.6681857 119.4636215 108.3752492  62.1874398 119.4345581
 107.0920126  62.4102111 122.0479483 107.5919904  62.5218645 121.2393802
 107.7355734  62.1063163 122.6880292 101.1502122  70.3180740 134.9347324
 100.6669203  71.1181100 135.1411213 101.2363061  70.3288685 133.9814768
  94.4188081  72.1509120 122.8569144  94.3958769  72.2496807 121.9051027
  94.7288718  72.9974271 123.1786310  97.0775459  74.2085275 126.9715758
  98.0318713  74.1769217 126.9045690  96.8787983  73.7475899 127.7865984
  97.6674841  72.7786391 129.5386556  98.4867730  73.2730470 129.5621393
  97.9411649  71.8618359 129.5104123 107.4241437  65.1697143 118.9014511
 106.5367292  65.4546794 118.6834706 107.8395427  65.0090907 118.0541788
 110.7755974  65.1943664 122.6168851 111.5516364  65.6840117 122.8893467
 110.0504108  65.6201718 123.0740720 113.2128532  65.9071284 123.6742791
 113.8073023  65.6667019 122.9636099 113.2855116  65.1878414 124.3016327
  95.4325688  79.7504894 123.9885956  95.2980156  78.9905295 123.4223954
  95.0157750  80.4745794 123.5214745 106.5684651  74.9341818 112.9962531
 107.2720501  75.1391820 113.6120187 105.8447300  75.5018580 113.2611615
 107.3982461  70.6851679 119.1164801 107.3417663  71.1420231 118.2772434
 107.9510804  69.9242364 118.9387644 111.2087267  66.4741411 119.9414921
 110.9524201  66.0738047 120.7723129 110.5840135  67.1885205 119.8165060
 115.5199605  69.2137484 122.4486212 114.9599163  69.2830674 123.2217774
 114.9143108  69.0378469 121.7285709  98.5894814  80.6474211 124.2004399
  98.4727198  81.5919644 124.0983089  97.7687260  80.3447773 124.5890198
 108.4771348  75.3724347 115.0460991 109.3116952  74.9405546 114.8638466
 108.3155691  75.2006361 115.9737886 108.1317241  71.8756460 116.4117331
 108.0766044  71.7100732 115.4705775 107.5063296  72.5832493 116.5679520
  92.9209756  67.1124525 130.2378753  93.5668619  66.6023479 130.7265978
  92.7126907  67.8493207 130.8122178 105.4463148  74.1805372 135.7370893
 106.3154307  74.3546025 135.3757528 104.9669899  74.9999789 135.6146623
 101.4413366  61.3764569 115.9902649 101.4292036  62.3206409 116.1470920
 102.3336788  61.1934715 115.6962110  99.6149328  81.3002473 127.4160327
 100.5176575  81.3326084 127.7326822  99.3886698  80.3702924 127.4306663
 101.3702930  80.0533460 124.0770406 100.4198561  80.0535322 123.9634778
 101.6735416  79.3066194 123.5606440 105.2565485  57.9707346 120.2448586
 104.4897881  57.4165833 120.3905268 105.6676190  58.0429215 121.1062737
  97.2607247  64.2592142 134.3353767  98.1238708  63.9028947 134.5457092
  96.6872657  63.9206037 135.0229171 117.1055623  85.8893998 125.1416168
 117.7434033  85.7700746 124.4379508 116.9876466  86.8374842 125.2004120
 113.9145330  85.8421426 125.0777693 113.5763841  85.7262491 124.1898228
 114.7835098  85.4412591 125.0578699 109.7732145  87.6956903 121.0674584
 109.2097011  87.6046840 120.2990871 109.6584540  86.8756807 121.5477076
 107.3196577  89.1908094 123.9058804 108.1117869  88.8498919 123.4905103
 107.5593228  89.3003069 124.8260957 115.3531704  91.3627871 116.3789049
 114.7019684  91.9481951 115.9923062 116.1476067  91.8934065 116.4384086
 109.2787331  88.4517008 116.7776183 110.0518207  87.9045995 116.6389059
 109.6312730  89.3161257 116.9890644 112.0428581  87.1570238 126.5744442
 112.6392153  86.9326261 125.8601405 112.1003552  86.4154984 127.1769890
 111.6153609  84.6109674 114.4094633 111.8679130  84.0891195 113.6478096
 110.6778168  84.4475819 114.5121316 116.6596892  83.6145452 122.2169376
 117.4459981  83.1964875 121.8659793 116.9235596  84.5191544 122.3851024
 116.8306969  89.0518302 116.9158033 116.1952802  89.1252929 117.6278938
 116.5004376  89.6411901 116.2377112 122.0605319  83.5520685 123.1202355
 122.7930491  82.9819902 123.3540184 121.3044675  83.1642286 123.5608860
 111.3349898  86.5137780 116.6119008 111.2186156  85.8382683 117.2800092
 111.4452158  86.0270154 115.7951161 113.6781439  85.9747927 120.3165697
 113.3139646  85.4478548 121.0278619 114.5348555  85.5846396 120.1432182
 119.5830739  77.2642259 127.5796963 119.2514064  78.1337670 127.3558178
 118.9876353  76.9478543 128.2590994 113.3186926  81.0037827 115.3127046
 113.4861328  81.8718063 115.6797517 113.1284095  81.1665108 114.3888335
 109.5274740  85.9168602 123.0129580 108.6025237  85.7844816 123.2207272
 109.7759154  86.6962822 123.5099523 119.4759403  81.9837346 124.6590313
 118.5676280  81.9152754 124.3649074 119.4246999  82.4609291 125.4872139
 113.2976147  83.4595484 116.2973712 113.1775772  83.9052535 117.1359193
 112.6028735  83.8080802 115.7387251 106.8883551  85.5601876 123.8473369
 107.0175933  85.8136355 124.7612781 106.2081003  86.1529584 123.5278025
 111.0583039  96.2299126 119.9463844 110.9807068  97.1806951 120.0252324
 110.4544682  95.8844998 120.6038770 121.3421049  80.1853784 126.4368187
 120.6995429  80.4786317 125.7907982 120.8375978  80.0706704 127.2421384
 118.9961213  83.9316957 117.1254046 119.9079069  84.1644344 116.9501744
 118.4870860  84.5154001 116.5629125 113.6333050  83.2914192 128.1348896
 114.4794246  83.7153605 128.2783545 113.5731688  82.6347816 128.8287459
 117.6030795  88.9142776 124.5167628 116.9739658  89.0788490 123.8143696
 117.2156457  89.3284385 125.2878592 121.4820027  89.8497214 121.8711992
 120.7971065  90.2296115 121.3209025 121.5663876  90.4592540 122.6043939
 116.7832496  80.9518560 129.7930070 116.5393428  81.7060621 129.2564345
 117.0592426  81.3303908 130.6277317 116.3397188  80.1074993 125.3743907
 115.4781667  80.4056247 125.6660645 116.3659622  80.3245392 124.4424940
 113.1558757  88.6517184 121.7817713 113.6197103  88.9304887 120.9922335
 112.8915555  87.7500628 121.5990804 110.0482838  88.1988665 124.7197476
 110.6184195  88.6275934 124.0814961 110.6390950  87.9171250 125.4181662
 112.0927643  84.7740336 118.5907278 112.7951686  85.2261380 119.0581205
 111.7608272  84.1324155 119.2187171 105.8352977  83.0323889 123.8924412
 105.0452031  83.2881417 123.4164522 106.3264224  83.8472227 123.9976452
 107.7867722  83.3968468 120.8507888 106.9898886  83.5087162 121.3691384
 107.5593315  83.7355120 119.9848779 104.1190680  83.2854379 126.3239403
 104.3698718  84.1701389 126.5896978 104.6550228  83.1058981 125.5514494
 127.9422780  86.7167876 122.9914664 127.1886488  86.1475275 122.8358668
 128.0770321  86.6830541 123.9385299 113.3321408  91.5881279 118.6669383
 113.1967082  92.4332814 119.0954231 113.8731220  91.7900556 117.9035317
 109.8188747  77.6672859 135.3283739 109.4255693  77.1139057 136.0031383
 110.6354888  77.9783437 135.7190256 106.7850805  89.1056717 119.2397308
 107.2975326  89.8999967 119.3902873 107.4373518  88.4083007 119.1730910
 108.5945690  92.2222473 121.3220062 108.7712318  93.1440438 121.1341046
 109.3902523  91.9080892 121.7514441 112.7356708  79.0830738 132.9203995
 113.4766422  79.6837891 132.8408458 112.9674631  78.3408375 132.3622038
 107.8798046  84.2687105 131.1982225 107.7651561  83.3672362 131.4989324
 107.0242564  84.5150802 130.8467041 109.7177005  93.7400647 127.3230404
 110.2684430  93.6117710 126.5507398 108.8788481  94.0395536 126.9725297
 116.6813871  75.1111841 127.1968277 116.3378141  76.0013482 127.1207387
 117.0492834  74.9213498 126.3337862 104.7499722  87.4345371 120.0156879
 105.5874944  87.8442379 119.7990587 104.9277990  86.4944813 119.9857073
 116.6464154  85.1020452 115.7040712 116.1310777  85.8725056 115.9429099
 116.3741462  84.4285588 116.3273773 114.2311265  79.9470153 120.7625950
 113.3752861  79.5577003 120.5831589 114.6438217  80.0262113 119.9025736
 115.7610412  77.4816496 125.1617510 115.2575207  77.4446631 124.3485315
 116.0541018  78.3909238 125.2214167 112.0053297  77.5655226 124.1683692
 112.8706294  77.3698034 123.8089581 112.0730806  77.3365577 125.0953049
 121.6198428  87.8552806 117.6393885 120.8427871  87.5163966 117.1949047
 122.2989909  87.8605430 116.9648850 116.4350457  82.9747544 117.5300493
 116.1300593  83.2893693 118.3810636 117.3880899  83.0528964 117.5727826
 114.8796889  89.1337767 119.1793447 114.3518251  88.3990527 118.8666685
 114.3784392  89.9112443 118.9333415 119.8589735  87.3286788 124.2960493
 119.2013409  88.0186049 124.3840622 120.6630134  87.7183220 124.6394480
 109.6115617  79.7957433 121.5400059 110.1859368  79.5732615 120.8073252
 110.1986599  79.8646128 122.2928660 118.6695194  85.6831160 122.3464435
 119.1827076  86.3161152 122.8486145 119.3196418  85.0832356 121.9807795
 109.9385204  81.8261894 115.5595944 109.1022516  82.1636581 115.8805219
 109.7989973  81.6910874 114.6223081 111.9138284  76.6698682 120.2675128
 111.2602697  76.3547700 119.6431743 111.8718758  76.0474423 120.9934951
 113.0249489  86.9517977 112.1828420 112.1176551  86.7207231 112.3819569
 113.5220521  86.1555597 112.3702402 115.9317568  95.6615485 115.1025106
 115.2579267  95.9647181 115.7110064 116.3183390  96.4644565 114.7530563
 115.1476025  83.1580616 124.5922776 114.2298586  83.3795563 124.4344464
 115.5636168  83.2326926 123.7334483 115.9311072  84.5572032 119.7225456
 116.6782891  85.0693429 119.4132578 116.2002662  84.2356084 120.5829849
 114.2037723  87.0530572 116.7052410 113.2948942  86.7689605 116.8024880
 114.2332806  87.4729651 115.8455717 119.4356990  90.6637162 120.4743578
 118.9819317  89.8228072 120.5308768 118.8050957  91.2998560 120.8118358
 118.3789910  81.5929148 121.7044245 117.6412666  81.0806534 122.0354488
 118.6316683  81.1529529 120.8927522 117.8789929  92.5013658 121.4093396
 118.1712904  93.0618716 120.6905762 118.3888550  92.7942219 122.1646555
 118.4801537  74.3705400 122.2986015 118.7860414  73.5102763 122.0111930
 119.2054142  74.9623020 122.0985008 104.7725893  84.7736086 120.6867612
 104.5750293  84.1805447 119.9618679 104.2172557  84.4688297 121.4043551
 112.7522617  84.6659193 122.8062206 112.8071226  83.7133029 122.7304682
 111.9413819  84.8218632 123.2903504 113.9013810  88.5939316 114.0440489
 113.4633240  87.8775175 113.5846126 114.6424251  88.8215431 113.4825580
 110.6914977  83.2836253 120.5652584 109.8782842  83.5830423 120.9717777
 111.1873971  82.8891941 121.2827067 112.8423554  93.2794010 122.4986849
 112.7999733  93.5054856 121.5695381 113.7586253  93.0457384 122.6472650
 116.2889188  83.7478077 129.3967478 116.6438576  83.9749550 130.2561944
 116.9361319  84.0796454 128.7744734 122.0186925  86.8696513 120.1016807
 121.8804824  87.0598109 119.1737997 121.6623144  87.6315896 120.5584858
 110.1829051  80.8554608 126.1813819 110.8228431  80.7143367 125.4836783
 109.3506582  80.5689122 125.8052421 110.9589355  90.1557039 122.2948812
 111.7529954  89.6607359 122.0931387 110.2481048  89.6274902 121.9316517
 107.2672119  84.3000120 118.3708565 106.3369707  84.2384576 118.5878527
 107.3629591  83.7776073 117.5745206 107.1857668  80.8254933 120.9586806
 107.4464485  81.7400266 120.8495967 108.0074840  80.3579376 121.1083419
 108.6582593  82.2392690 128.1285631 109.3305646  82.0310052 127.4798280
 107.8312380  82.0414776 127.6890863 114.5608165  78.8654631 130.1451292
 113.9136080  79.5644581 130.0515768 115.3309180  79.2990775 130.5127540
 114.7372299  86.7035396 128.2048111 115.6664359  86.8546556 128.0317079
 114.3163329  86.7919417 127.3496758 113.5360631  90.7286061 125.9746649
 113.3971717  90.3604845 126.8472587 112.7475227  91.2433700 125.8030607
 114.1308783  95.8295157 117.3172185 114.3060539  95.3583200 118.1317808
 113.4441571  96.4560923 117.5453446 115.0865846  90.1067663 123.3635487
 114.7515679  90.0668433 124.2593137 114.5869792  89.4412379 122.8905897
 109.0610090  85.5135293 128.8888068 108.9229888  84.7815532 129.4899607
 109.9715014  85.4244193 128.6072256 118.0225038  87.4523698 113.6372546
 117.4054209  86.7270526 113.5405599 117.5541526  88.2133058 113.2939621
 111.6892391  85.2255253 128.3771748 112.3992009  84.5848445 128.3358366
 111.6461699  85.4768147 129.2997928 110.4021325  82.2120470 130.1967387
 109.8658682  81.7611209 130.8488983 109.8138033  82.3466379 129.4537851
 109.8123584  81.6709122 112.7593851 108.9353050  81.5497923 112.3956097
 110.2881337  80.8795200 112.5072739 101.3325724  86.4586282 122.8535358
 102.0196764  86.1448012 122.2656373 101.1773853  87.3627646 122.5802609
 106.1360446  81.3476478 127.2820382 106.0518635  80.7402148 126.5470791
 105.3143153  81.8385496 127.2829878 112.9987510  94.0235412 120.0056371
 112.2155032  94.5657092 120.0994596 113.6980255  94.5409392 120.4050612
 116.3084160  79.8330042 122.6490577 116.8052860  79.0800004 122.3291647
 115.5371142  79.8694358 122.0833786 124.1613917  85.5370407 124.2908868
 124.1503794  86.4195123 123.9202801 123.2931297  85.1841958 124.0963405
 117.3913941  88.5901729 120.2229000 116.4570219  88.7103191 120.0533704
 117.5690609  87.6874196 119.9589010 112.8919129  81.9747425 122.3762261
 112.5216916  81.4218465 123.0643167 113.3878221  81.3705558 121.8237261
 120.7786492  84.4319048 120.7579034 121.2446944  85.2647040 120.6839337
 121.2293993  83.9664030 121.4624293 118.8462723  90.7762870 117.7565186
 119.1222567  90.6619464 118.6659060 117.9767222  90.3780354 117.7177359
 118.7503155  76.7999635 124.7969935 117.8366235  77.0303862 124.9652142
 119.1796256  76.8838079 125.6483968 118.5209613  84.9889527 127.2969829
 117.8681064  85.2365435 126.6422282 118.8989993  84.1753665 126.9632307
 115.4816787  95.0249220 121.3998000 115.6639182  94.2070876 121.8625752
 116.3049773  95.2416913 120.9622890 115.8158953  93.9517405 118.6613048
 116.3446719  93.4409860 118.0483210 116.0787172  93.6359936 119.5258581
 106.3176045  91.9681275 126.4048382 106.9029482  91.2224963 126.5376286
 106.1200884  92.2785231 127.2885046 109.1714701  95.0032522 121.4210824
 108.5025076  95.4878650 120.9374864 109.0327570  95.2501743 122.3354203
 100.9093700  84.5386875 125.1252825 100.9477800  84.0050466 125.9189943
 100.4033993  84.0122080 124.5063802 108.2884462  79.3851415 128.6215367
 108.3525789  80.2466246 128.2092765 108.2251583  78.7725417 127.8887726
 107.7636735  81.4574548 132.2688402 108.3908774  81.0751625 132.8825926
 106.9064654  81.2388750 132.6344094 104.5402278  83.2650977 118.2006756
 104.8355719  82.3561656 118.1473810 103.6390314  83.2438717 117.8787759
 108.0696525  81.3406974 124.1834305 107.3483110  81.9542941 124.0441778
 108.8589781  81.8764739 124.1050951 110.8722838  78.6761400 130.4574957
 111.3957240  78.9223697 131.2201266 110.6535172  79.5081435 130.0378094
 106.2690119  80.9465075 118.3246081 105.9402825  80.0662454 118.1421187
 106.6229490  80.8912743 119.2122471 115.5169698  92.5819978 122.8341067
 115.3694661  91.6536685 123.0148637 116.3423192  92.6040068 122.3498142
 109.3831942  81.2338045 118.6921559 109.7228015  81.7623966 117.9700168
 109.8304063  81.5718451 119.4680126 112.0775383  79.6175095 128.1424627
 111.7372204  78.8182908 128.5445307 111.3714390  79.9176806 127.5701460
 112.7291855  76.7024408 126.5951950 113.5517924  76.2284886 126.4730841
 112.9729919  77.4814891 127.0950637 111.3700090  79.7312666 116.8914852
 112.0908452  80.1093919 116.3878569 110.7465394  80.4501543 116.9949830
 115.5131213  80.4357815 117.8273184 115.7294827  81.3182453 117.5262012
 115.0325280  80.0444029 117.0978826 110.2530434  83.3943528 124.4043929
 110.1075015  83.7083831 125.2968210 109.7755638  84.0128429 123.8514827
 112.1126817  80.3846076 124.4524818 112.0988386  79.4887170 124.1157116
 112.8299245  80.3916740 125.0863104 113.9652947  80.8183417 126.4977946
 113.7070725  81.7400487 126.4962276 113.4337988  80.4213851 127.1878410
 118.9099136  93.9234204 119.2768031 119.0836014  93.3580626 118.5241884
 119.4028027  94.7235099 119.0947521 104.7276096  85.9348873 127.3431590
 104.1829564  86.7108681 127.4751864 105.6055446  86.2819677 127.1850711
 111.5163713  79.2660457 119.7212389 111.6379624  78.3377103 119.9203276
 111.2265755  79.2799143 118.8090704 114.3854903  76.9515367 122.8579108
 114.4076600  77.0154700 121.9031088 114.8022962  76.1119876 123.0519615
 124.7638527  86.6870627 120.8958331 125.2069673  85.9377952 120.4977454
 123.8865038  86.6780763 120.5132063 119.8974309  93.2400968 116.3764930
 120.5925213  93.8607661 116.5952244 120.2397459  92.3896319 116.6517307
 105.5142118  85.0618769 130.2361747 104.7723854  85.2101404 130.8226377
 105.1934862  85.3227035 129.3728496 121.7965732  90.6900674 117.9052260
 122.3217056  91.0287946 117.1801580 121.7088084  89.7547689 117.7215395
 113.4806393  96.7572657 122.2647513 113.0411383  96.2649036 122.9580370
 114.2314510  96.2145625 122.0239589 105.9598732  92.9484198 122.2672142
 106.7856751  92.6487970 121.8870785 105.6092784  92.1791820 122.7161930
 110.9280265  92.3010666 124.3369815 110.3060274  91.6381371 124.0372043
 111.5985132  92.3271798 123.6543463 104.1607337  90.8670524 123.2261075
 103.3239245  90.4392699 123.0445076 104.1330982  91.0602968 124.1631866
 111.0004792  80.7792454 133.9302321 111.0492948  81.6554577 133.5480091
 111.5427306  80.2369847 133.3573964 110.4893772  90.8514589 117.8128276
 110.6381892  91.5350054 117.1594948 111.2960215  90.8319679 118.3277731
 113.2304081  81.5323826 130.6848680 112.3607390  81.8257392 130.4131268
 113.4663561  82.1164271 131.4055943 124.3071392  88.1575865 123.2880779
 125.1418284  88.5965669 123.4518339 124.4430521  87.6814518 122.4689024
 108.2446405  86.8779767 118.8189345 107.9992447  85.9742097 119.0169555
 108.4142319  86.8796917 117.8768823 115.9343115  77.7503443 128.2014100
 116.4525058  78.4864470 127.8760589 115.5798247  78.0567437 129.0360859
 107.5142052  82.6108125 116.3175506 106.8211297  82.6852480 115.6615542
 107.2693804  81.8468468 116.8397023 116.1855709  74.1703726 123.7214997
 116.4657462  73.5026915 124.3475423 116.9706316  74.3632821 123.2089661
 113.9889177  93.3462720 115.2840023 113.4163144  93.9652907 114.8310495
 114.5621971  93.8962081 115.8179945 120.0564567  82.5921360 127.4686572
 121.0081990  82.6919458 127.4898796 119.8868017  81.7999628 127.9784656
 118.0778947  79.6776943 127.6545973 117.4828879  79.9581956 126.9592461
 117.7928643  80.1670844 128.4262714 117.2086437  93.6299870 116.4148605
 118.1417110  93.5645432 116.6181481 117.1209650  94.4656137 115.9563138
 119.8374454  92.9465740 113.3752553 119.7588085  92.6125604 114.2688311
 120.6584120  93.4387508 113.3744025 122.5352645  85.8127480 126.5828872
 122.5028965  84.8743480 126.7688555 123.1453268  85.8911516 125.8494696
 114.3735976  84.6823533 112.6256076 115.3195080  84.5529741 112.6944494
 113.9950221  83.9438194 113.1025504 122.6847133  82.6038523 126.6287155
 122.1686182  81.8196980 126.4417084 123.5687082  82.2757240 126.7933674
 120.3457860  76.3479539 122.5882967 120.1482681  76.0394627 123.4726299
 120.9557566  77.0741177 122.7180897 112.5578893  82.6073509 112.5610961
 111.6510348  82.3106622 112.6373674 112.8354874  82.3103327 111.6945247
 103.4756833  83.9279872 123.0110007 103.1559618  83.0745181 122.7184381
 102.9290261  84.1428450 123.7667975 107.2536741  86.6442313 126.7279514
 107.4722751  87.5759421 126.7467548 107.6662515  86.2850288 127.5134318
 114.1740959  77.1510399 118.7155202 113.3641687  76.8057484 119.0910448
 114.8625375  76.8417942 119.3042814 116.1031507  76.2288445 120.3379499
 116.6562545  76.6483899 120.9969522 116.3401593  75.3024194 120.3802455
 111.3277677  79.4660444 112.7022940 112.1896841  79.7915342 112.9618757
 111.5128022  78.6791940 112.1896006 103.3445093  87.5482784 124.9803129
 102.6508565  87.1336737 124.4673083 104.0918084  87.5903320 124.3836548
 119.4810314  78.3388971 119.8458163 118.9008983  78.9973775 119.4636215
 119.2146247  77.5166315 119.4345581 117.9313880  77.7394028 122.0479483
 118.4313659  77.8510563 121.2393802 118.5749488  77.4355081 122.6880292
 105.2581836  87.4801038 122.8569144 105.2352524  87.5788725 121.9051027
 105.5682472  88.3266188 123.1786310 107.9169214  89.5377193 126.9715758
 108.8712467  89.5061135 126.9045690 107.7181737  89.0767816 127.7865984
 108.5068596  88.1078309 129.5386556 109.3261485  88.6022387 129.5621393
 108.7805403  87.1910277 129.5104123 118.2635192  80.4989061 118.9014511
 117.3761047  80.7838712 118.6834706 118.6789181  80.3382824 118.0541788
 121.6149728  80.5235582 122.6168851 122.3910118  81.0132034 122.8893467
 120.8897862  80.9493636 123.0740720 124.0522287  81.2363201 123.6742791
 124.6466778  80.9958937 122.9636099 124.1248870  80.5170332 124.3016327
 106.2719442  95.0796812 123.9885956 106.1373910  94.3197213 123.4223954
 105.8551505  95.8037712 123.5214745 117.4078405  90.2633736 112.9962531
 118.1114256  90.4683738 113.6120187 116.6841054  90.8310498 113.2611615
 118.2376216  86.0143597 119.1164801 118.1811417  86.4712148 118.2772434
 118.7904558  85.2534282 118.9387644 122.0481022  81.8033329 119.9414921
 121.7917956  81.4029964 120.7723129 121.4233890  82.5177123 119.8165060
 126.3593359  84.5429402 122.4486212 125.7992917  84.6122591 123.2217774
 125.7536863  84.3670387 121.7285709 109.4288568  95.9766129 124.2004399
 109.3120952  96.9211562 124.0983089 108.6081015  95.6739691 124.5890198
 119.3165103  90.7016265 115.0460991 120.1510707  90.2697463 114.8638466
 119.1549446  90.5298279 115.9737886 118.9710995  87.2048378 116.4117331
 118.9159799  87.0392650 115.4705775 118.3457050  87.9124411 116.5679520
 103.7603510  82.4416443 130.2378753 104.4062374  81.9315397 130.7265978
 103.5520661  83.1785124 130.8122178 112.2807120  76.7056487 115.9902649
 112.2685790  77.6498327 116.1470920 113.1730542  76.5226633 115.6962110
 112.2096684  95.3825378 124.0770406 111.2592315  95.3827239 123.9634778
 112.5129171  94.6358112 123.5606440 116.0959240  73.2999264 120.2448586
 115.3291636  72.7457751 120.3905268 116.5069945  73.3721133 121.1062737
 108.1001001  79.5884060 134.3353767 108.9632463  79.2320864 134.5457092
 107.5266412  79.2497954 135.0229171 122.4547364  99.9401591 114.4094633
 122.7072884  99.4183113 113.6478096 121.5171923  99.7767737 114.5121316
 122.1743652 101.8429697 116.6119008 122.0579910 101.1674601 117.2800092
 122.2845912 101.3562071 115.7951161 124.1580680  96.3329744 115.3127046
 124.3255083  97.2009981 115.6797517 123.9677849  96.4957026 114.3888335
 124.1369901  98.7887402 116.2973712 124.0169526  99.2344452 117.1359193
 123.4422489  99.1372719 115.7387251 118.6261477  98.7260386 120.8507888
 117.8292640  98.8379080 121.3691384 118.3987069  99.0647038 119.9848779
 127.4857908 100.4312369 115.7040712 126.9704532 101.2016974 115.9429099
 127.2135217  99.7577506 116.3273773 120.7778958  97.1553812 115.5595944
 119.9416270  97.4928499 115.8805219 120.6383728  97.0202792 114.6223081
 122.7532039  91.9990600 120.2675128 122.0996451  91.6839617 119.6431743
 122.7112513  91.3766340 120.9934951 123.8643244 102.2809895 112.1828420
 122.9570305 102.0499149 112.3819569 124.3614276 101.4847514 112.3702402
 115.6119647 100.1028004 120.6867612 115.4144047  99.5097365 119.9618679
 115.0566311  99.7980214 121.4043551 124.7407565 103.9231234 114.0440489
 124.3026995 103.2067093 113.5846126 125.4818006 104.1507348 113.4825580
 118.1065873  99.6292038 118.3708565 117.1763461  99.5676493 118.5878527
 118.2023345  99.1067991 117.5745206 118.0251422  96.1546851 120.9586806
 118.2858240  97.0692184 120.8495967 118.8468595  95.6871293 121.1083419
 128.8618792 102.7815615 113.6372546 128.2447963 102.0562443 113.5405599
 128.3935281 103.5424976 113.2939621 120.6517338  97.0001040 112.7593851
 119.7746805  96.8789840 112.3956097 121.1275091  96.2087118 112.5072739
 115.3796032  98.5942895 118.2006756 115.6749473  97.6853573 118.1473810
 114.4784068  98.5730634 117.8787759 117.1083874  96.2756992 118.3246081
 116.7796580  95.3954371 118.1421187 117.4623245  96.2204661 119.2122471
 120.2225697  96.5629962 118.6921559 120.5621769  97.0915884 117.9700168
 120.6697817  96.9010368 119.4680126 122.2093844  95.0604584 116.8914852
 122.9302207  95.4385837 116.3878569 121.5859148  95.7793461 116.9949830
 126.3524967  95.7649733 117.8273184 126.5688581  96.6474371 117.5262012
 125.8719034  95.3735946 117.0978826 122.3557467  94.5952374 119.7212389
 122.4773378  93.6669021 119.9203276 122.0659510  94.6091060 118.8090704
 119.0840159 102.2071685 118.8189345 118.8386201 101.3034015 119.0169555
 119.2536074 102.2088835 117.8768823 118.3535807  97.9400042 116.3175506
 117.6605052  98.0144397 115.6615542 118.1087559  97.1760386 116.8397023
 125.2129730 100.0115450 112.6256076 126.1588835  99.8821658 112.6944494
 124.8343975  99.2730112 113.1025504 123.3972647  97.9365427 112.5610961
 122.4904103  97.6398539 112.6373674 123.6748628  97.6395245 111.6945247
 125.0134713  92.4802316 118.7155202 124.2035441  92.1349401 119.0910448
 125.7019130  92.1709860 119.3042814 126.9425261  91.5580363 120.3379499
 127.4956300  91.9775817 120.9969522 127.1795348  90.6316111 120.3802455
 122.1671432  94.7952362 112.7022940 123.0290596  95.1207260 112.9618757
 122.3521776  94.0083858 112.1896006 123.1200875  92.0348405 115.9902649
 123.1079545  92.9790245 116.1470920 124.0124297  91.8518550 115.6962110
 126.9352994  88.6291181 120.2448586 126.1685390  88.0749668 120.3905268
 127.3463699  88.7013050 121.1062737  56.8614268  -3.4098340 106.6709150
  56.7838297  -2.4590515 106.7497631  56.2575911  -3.7552468 107.3284077
  59.1352636  -8.0516187 105.3914690  58.9998311  -7.2064651 105.8199538
  59.6762449  -7.8496909 104.6280624  61.7348797  -3.9781981 101.8270413
  61.0610496  -3.6750284 102.4355371  62.1214619  -3.1752901 101.4775870
  59.9340012  -3.8102309 104.0417492  60.1091768  -4.2814266 104.8563115
  59.2472800  -3.1836543 104.2698753  58.8018739  -5.6162054 106.7301678
  58.0186261  -5.0740373 106.8239902  59.5011484  -5.0988074 107.1295919
  61.2848016  -4.6148245 108.1243306  61.4670411  -5.4326590 108.5871059
  62.1081002  -4.3980553 107.6868196  61.6190182  -5.6880060 105.3858355
  62.1477948  -6.1987606 104.7728517  61.8818401  -6.0037530 106.2503888
  59.7920406  -6.2934746 102.0085330  59.2194373  -5.6744559 101.5555802
  60.3653200  -5.7435384 102.5425252  63.0117666  -6.0097596 103.1393912
  63.9448339  -6.0752034 103.3426788  62.9240879  -5.1741329 102.6808445
  73.7480607   1.5788450 111.8661475  74.3859017   1.4595198 111.1624815
  73.6301450   2.5269294 111.9249427  70.5570313   1.5315878 111.8022999
  70.2188825   1.4156943 110.9143534  71.4260081   1.1307043 111.7824006
  66.4157129   3.3851355 107.7919890  65.8521994   3.2941292 107.0236178
  66.3009524   2.5651259 108.2722383  63.9621561   4.8802546 110.6304111
  64.7542853   4.5393371 110.2150410  64.2018211   4.9897521 111.5506264
  71.9956687   7.0522322 103.1034355  71.3444667   7.6376403 102.7168369
  72.7901050   7.5828517 103.1629393  65.9212315   4.1411460 103.5021490
  66.6943191   3.5940447 103.3634365  66.2737713   5.0055709 103.7135951
  67.7597357   5.4687842 116.7088389  67.4687223   6.3733473 116.5935055
  68.3954341   5.5104369 117.4232458  68.6853564   2.8464690 113.2989749
  69.2817136   2.6220713 112.5846711  68.7428536   2.1049436 113.9015196
  68.2578592   0.3004126 101.1339939  68.5104113  -0.2214353 100.3723402
  67.3203151   0.1370271 101.2366623  73.3021875  -0.6960096 108.9414683
  74.0884964  -1.1140673 108.5905100  73.5660580   0.2085996 109.1096331
  73.4731953   4.7412754 103.6403340  72.8377786   4.8147381 104.3524244
  73.1429359   5.3306353 102.9622419  67.9774881   2.2032232 103.3364314
  67.8611139   1.5277135 104.0045399  68.0877141   1.7164606 102.5196468
  70.3206422   1.6642379 107.0411004  69.9564629   1.1373000 107.7523925
  71.1773538   1.2740848 106.8677489  69.9611909  -3.3067722 102.0372352
  70.1286311  -2.4387485 102.4042823  69.7709078  -3.1440440 101.1133641
  72.7187242   5.1549257 113.7038183  72.4187965   6.0574296 113.5953990
  72.3738302   4.8881441 114.5559335  66.1699724   1.6063054 109.7374887
  65.2450220   1.4739268 109.9452579  66.4184137   2.3857273 110.2344829
  69.9401130  -0.8510064 103.0219019  69.8200755  -0.4053013 103.8604499
  69.2453718  -0.5024746 102.4632557  63.5308535   1.2496328 110.5718676
  63.6600916   1.5030807 111.4858088  62.8505986   1.8424036 110.2523331
  67.7008022  11.9193578 106.6709150  67.6232052  12.8701403 106.7497631
  67.0969666  11.5739450 107.3284077  75.6386196  -0.3788591 103.8499353
  76.5504052  -0.1461204 103.6747051  75.1295843   0.2048453 103.2874432
  73.9226964   4.0436037 117.4860646  74.3310320   3.6018447 116.7415278
  73.2004225   3.4688664 117.7394839  74.2455778   4.6037228 111.2412935
  73.6164641   4.7682942 110.5389002  73.8581440   5.0178837 112.0123899
  78.1245010   5.5391665 108.5957298  77.4396048   5.9190567 108.0454332
  78.2088860   6.1486992 109.3289246  75.3795942   3.1851624 115.1952642
  75.5912837   3.8283384 114.5187023  75.3325690   2.3513941 114.7274572
  69.7983740   4.3411636 108.5063020  70.2622086   4.6199339 107.7167642
  69.5340538   3.4395080 108.3236110  66.6907821   3.8883117 111.4442783
  67.2609178   4.3170386 110.8060267  67.2815933   3.6065702 112.1426969
  68.7352626   0.4634788 105.3152585  69.4376670   0.9155832 105.7826511
  68.4033255  -0.1781393 105.9432478  62.4777960  -1.2781659 110.6169718
  61.6877014  -1.0224131 110.1409829  62.9689208  -0.4633321 110.7221759
  76.4941770   6.0623580 113.3674999  77.3159214   5.6603767 113.0857681
  76.4904173   5.9591814 114.3191115  64.4292706  -0.9137080 107.5753195
  63.6323869  -0.8018386 108.0936691  64.2018298  -0.5750428 106.7094086
  70.2598373   5.6107623 115.5235710  70.3242806   6.0728030 116.3593882
  69.5509297   4.9804988 115.6518020  84.5847763   2.4062328 109.7159971
  83.8311471   1.8369726 109.5603975  84.7195304   2.3724993 110.6630605
  69.9746391   7.2775731 105.3914690  69.8392066   8.1227266 105.8199538
  70.5156203   7.4795008 104.6280624  63.4275788   4.7951169 105.9642615
  63.9400309   5.5894419 106.1148180  64.0798501   4.0977459 105.8976217
  65.2370673   7.9116925 108.0465368  65.4137301   8.8334890 107.8586352
  66.0327507   7.5975344 108.4759748  71.6014867   7.8999297 119.5215032
  71.1578722   7.1135676 119.2035937  72.2632081   8.0878448 118.8558923
  66.3601989   9.4295099 114.0475711  66.9109414   9.3012162 113.2752705
  65.5213464   9.7289988 113.6970603  73.6996105   8.1802097 117.5496433
  73.6814581   9.0010978 117.0576703  74.6216025   8.0556172 117.7746575
  61.3924705   3.1239823 106.7402186  62.2299927   3.5336831 106.5235893
  61.5702973   2.1839265 106.7102379  73.2889137   0.7914904 102.4286019
  72.7735761   1.5619508 102.6674406  73.0166446   0.1180040 103.0519080
  78.2623411   3.5447258 104.3639192  77.4852854   3.2058418 103.9194354
  78.9414892   3.5499881 103.6894157  73.0775440  -1.3358004 104.2545800
  72.7725576  -1.0211855 105.1055943  74.0305883  -1.2576584 104.2973133
  71.5221872   4.8232219 105.9038754  70.9943234   4.0884979 105.5911991
  71.0209375   5.6006895 105.6578722  76.5014718   3.0181240 111.0205800
  75.8438393   3.7080501 111.1085929  77.3055117   3.4077671 111.3639786
  66.2540600  -4.5148115 108.2645365  66.8284352  -4.7372933 107.5318558
  66.8411582  -4.4459420 109.0173967  75.3120177   1.3725612 109.0709742
  75.8252059   2.0055604 109.5731452  75.9621401   0.7726808 108.7053102
  66.5810187  -2.4843654 102.2841251  65.7447499  -2.1468967 102.6050525
  66.4414957  -2.6194674 101.3468387  69.6674472   2.6412429  98.9073727
  68.7601534   2.4101683  99.1064876  70.1645504   1.8450049  99.0947708
  72.5742551  11.3509936 101.8270413  71.9004250  11.6541633 102.4355371
  72.9608373  12.1539017 101.4775870  71.7901008  -1.1524932 111.3168082
  70.8723569  -0.9309985 111.1589770  72.2061152  -1.0778622 110.4579790
  72.5736056   0.2466483 106.4470763  73.3207875   0.7587881 106.1377885
  72.8427645  -0.0749464 107.3075156  70.8462706   2.7425024 103.4297717
  69.9373925   2.4584057 103.5270187  70.8757790   3.1624103 102.5701024
  76.0781973   6.3531614 107.1988884  75.6244300   5.5122524 107.2554075
  75.4475940   6.9893012 107.5363665  74.5214913   8.1908110 108.1338703
  74.8137887   8.7513167 107.4151068  75.0313533   8.4836671 108.8891862
  61.4150876   0.4630538 107.4112919  61.2175276  -0.1300101 106.6863986
  60.8597540   0.1582748 108.1288858  69.3947600   0.3553645 109.5307512
  69.4496210  -0.5972519 109.4549989  68.5838802   0.5113084 110.0148811
  70.5438794   4.2833768 100.7685795  70.1058224   3.5669627 100.3091433
  71.2849235   4.5109883 100.2070887  67.3339960  -1.0269295 107.2897891
  66.5207825  -0.7275125 107.6963083  67.8298954  -1.4213607 108.0072373
  69.4848538   8.9688461 109.2232156  69.4424717   9.1949308 108.2940688
  70.4011237   8.7351836 109.3717957  78.6611908   2.5590965 106.8262114
  78.5229807   2.7492561 105.8983303  78.3048127   3.3210348 107.2830165
  78.6881288   4.6267492 111.8373386  79.1217795   4.5342781 112.6856440
  79.4012869   4.6024992 111.1993402  67.6014338   5.8451490 109.0194118
  68.3954937   5.3501811 108.8176693  66.8906031   5.3169354 108.6561824
  72.4209183   8.2269586 113.3706486  72.4746205   8.7960522 114.1384202
  71.5523964   8.3971471 113.0060523  63.9097102  -0.0105428 105.0953871
  62.9794690  -0.0720972 105.3123833  64.0054574  -0.5329475 104.2990512
  63.8282651  -3.4850615 107.6832113  64.0889468  -2.5705282 107.5741273
  64.6499823  -3.9526172 107.8328726  79.5496838   4.6691193 114.3706271
  79.7432728   5.5737003 114.6165546  79.4497456   4.2098612 115.2044856
  74.6111946   4.8197935 119.9447152  74.4597453   4.5908487 119.0277235
  74.6016626   5.7768537 119.9578497  71.3797283   2.3929848 114.9293418
  72.3089343   2.5441008 114.7562385  70.9588313   2.4813869 114.0742064
  70.1785614   6.4180512 112.6991956  70.0396700   6.0499297 113.5717894
  69.3900211   6.9328152 112.5275913  70.7733766  11.5189609 104.0417492
  70.9485522  11.0477652 104.8563115  70.0866554  12.1455375 104.2698753
  71.7290830   5.7962115 110.0880793  71.3940662   5.7562885 110.9838443
  71.2294775   5.1306831 109.6151204  74.6650021   3.1418149 100.3617853
  74.0479192   2.4164978 100.2650906  74.1966510   3.9027510 100.0184927
  76.3204153   7.8517058 118.0223633  76.2616699   7.1676278 117.3554216
  76.7223671   8.5936048 117.5704259  65.3394852  14.6678972 110.8157352
  65.5791450  15.2997496 111.4936371  64.4964048  14.3167012 111.1022712
  66.4548567  -2.6396426  99.4839157  65.5778034  -2.7607625  99.1201404
  66.9306320  -3.4310348  99.2318046  76.3221560   5.8156642 116.2537613
  75.4348339   5.4782564 116.3764012  76.8920111   5.0839673 116.4906378
  57.9750707   2.1480734 109.5780664  58.6621747   1.8342464 108.9901680
  57.8198836   3.0522098 109.3047916  69.8522714  10.4758094 113.2198856
  69.7792885  11.2813066 113.7318161  69.4100107  10.6750060 112.3946878
  69.6412493   9.7129864 106.7301678  68.8580015  10.2551544 106.8239902
  70.3405238  10.2303844 107.1295919  80.8038901   1.2264859 111.0154175
  80.7928777   2.1089575 110.6448108  79.9356280   0.8736410 110.8208712
  72.3121397  10.3744928 115.3757015  73.0249369  11.0092393 115.3032916
  71.8211426  10.4708794 114.5597017  74.0338924   4.2796181 106.9474307
  73.0995203   4.3997643 106.7779011  74.2115592   3.3768648 106.6834316
  69.5344112  -2.3358123 109.1007568  69.1641900  -2.8887083 109.7888473
  70.0303205  -2.9399990 108.5482568  77.4211475   0.1213500 107.4824341
  77.8871928   0.9541492 107.4084643  77.8718976  -0.3441518 108.1869599
  67.3633311   8.1239372 116.1962586  68.0642770   8.7575855 116.3491980
  66.8928426   8.4654103 115.4358225  75.4887706   6.4657321 104.4810493
  75.7647550   6.3513916 105.3904367  74.6192205   6.0674806 104.4422666
  75.1634597   0.6783979 114.0215136  74.5106047   0.9259887 113.3667589
  75.5414977  -0.1351883 113.6877613  72.1241771  10.7143672 108.1243306
  72.3064165   9.8965328 108.5871059  72.9474757  10.9311364 107.6868196
  72.4583936   9.6411857 105.3858355  72.9871702   9.1304312 104.7728517
  72.7212156   9.3254388 106.2503888  62.9601029   7.6575727 113.1293688
  63.5454466   6.9119415 113.2621593  62.7625867   7.9679683 114.0130352
  65.8139684  10.6926974 108.1456131  65.1450059  11.1773102 107.6620171
  65.6752554  10.9396194 109.0599509  69.9544953  12.7270718 114.7438789
  70.5063261  12.8902339 115.5087874  70.2951146  13.3175155 114.0718814
  74.8055827   7.5531975 120.5987444  75.3495731   8.1661933 120.1042398
  74.2242672   8.1111553 121.1154457  61.1827261  -1.0454571 104.9252063
  61.4780702  -1.9543893 104.8719117  60.2815297  -1.0666832 104.6033065
  73.0913340  10.6752693 111.7302471  72.9664479   9.8742433 111.2213417
  73.7492431  11.1698886 111.2416441  64.7121508  -2.9698574 110.9079612
  63.9908094  -2.3562607 110.7687085  65.5014764  -2.4340810 110.8296258
  75.1548248   8.4761713 113.3582021  74.2078584   8.3567064 113.2860348
  75.5031021   7.5884211 113.4408283  62.9115103  -3.3640473 105.0491388
  62.5827809  -4.2443094 104.8666494  63.2654473  -3.4192805 105.9367777
  72.1594681   8.2714429 109.5586374  72.0119644   7.3431137 109.7393944
  72.9848175   8.2934520 109.0743449  66.0256926  -3.0767504 105.4166866
  66.3652998  -2.5481582 104.6945474  66.4729046  -2.7387097 106.1925432
  75.7628803   9.0942988 110.6451246  76.6875351   8.8885849 110.5075698
  75.5944107   8.8459389 111.5540588  68.0125073  -4.5792882 103.6160159
  68.7333435  -4.2011629 103.1123875  67.3890377  -3.8604005 103.7195137
  66.8955417  -0.9162020 111.1289235  66.7499998  -0.6021717 112.0213517
  66.4180621  -0.2977119 110.5760134  75.5524120   9.6128656 106.0013338
  75.7260997   9.0475078 105.2487190  76.0453011  10.4129550 105.8192828
  81.4063511   2.3765079 107.6203638  81.8494657   1.6272404 107.2222761
  80.5290021   2.3675215 107.2377370  76.5399292   8.9295420 103.1010236
  77.2350197   9.5502113 103.3197551  76.8822442   8.0790771 103.3762614
  78.4390715   6.3795126 104.6297567  78.9642039   6.7182398 103.9046887
  78.3513068   5.4442141 104.4460702  70.1010764  10.2929199 116.7587444
  70.4097890  10.0478346 117.6310143  70.8986246  10.4975838 116.2706314
  70.1231376  12.4467109 108.9892820  69.6836366  11.9543487 109.6825677
  70.8739493  11.9040076 108.7484895  62.6023715   8.6378650 108.9917448
  63.4281735   8.3382422 108.6116092  62.2517767   7.8686272 109.4407237
  67.5705248   7.9905118 111.0615122  66.9485257   7.3275823 110.7617350
  68.2410115   8.0166250 110.3788770  60.8032320   6.5564976 109.9506382
  59.9664228   6.1287150 109.7690383  60.7755965   6.7497419 110.8877173
  78.1284621   7.0128029 119.9348765  77.3380165   6.9952168 119.3953264
  77.8917976   7.5516323 120.6897801  78.2482496   3.8620496 117.2481493
  78.2980501   3.6970503 118.1897016  78.1396420   2.9947755 116.8579374
  67.1318755   6.5409041 104.5373582  67.2806875   7.2244506 103.8840255
  67.9385198   6.5214131 105.0523038  79.7500693   6.2817437 117.4923515
  79.4585501   6.6447418 118.3286976  79.1372824   5.5684445 117.3136847
  80.9496375   3.8470317 110.0126085  81.7843267   4.2860121 110.1763646
  81.0855504   3.3708970 109.1934331  77.9987881   1.4050052 115.9603573
  78.4742003   1.5977698 115.1522424  77.0753447   1.4609238 115.7146957
  64.8871388   2.5674219 105.5434651  64.6417430   1.6636549 105.7414861
  65.0567302   2.5691369 104.6014129  64.1567035  -1.6997424 103.0420813
  63.4636280  -1.6253069 102.3860849  63.9118787  -2.4637080 103.5642330
  70.6314160   9.0357172 102.0085330  70.0588128   9.6547359 101.5555802
  71.2046954   9.5856533 102.5425252  73.8511420   9.3194322 103.1393912
  74.7842093   9.2539883 103.3426788  73.7634633  10.1550589 102.6808445
  76.4799437   8.6360192 100.0997860  76.4013068   8.3020056 100.9933617
  77.3009104   9.1281960 100.0989332  79.1777628   1.5021931 113.3074178
  79.1453948   0.5637932 113.4933862  79.7878252   1.5805968 112.5740003
  71.0160959   0.3717984  99.3501382  71.9620064   0.2424193  99.4189800
  70.6375204  -0.3667354  99.8270810  84.9954178   2.5637938 112.4480215
  85.7257566   2.3023226 113.0087918  84.3861123   1.8266660 112.4882283
  83.0769475   0.7045801 113.0454666  82.3502639   0.5701766 112.4371158
  82.6616762   1.0122629 113.8511384  69.2003876  -1.7032039  99.2856267
  68.2935332  -1.9998926  99.3618981  69.4779857  -2.0002221  98.4190554
  60.1181817  -0.3825676 109.7355314  59.7984601  -1.2360368 109.4429688
  59.5715245  -0.1677098 110.4913281  63.8961724   2.3336765 113.4524820
  64.1147734   3.2653873 113.4712854  64.3087498   1.9744740 114.2379624
  59.9870077   3.2377236 111.7048435  59.2933548   2.8231189 111.1918390
  60.7343068   3.2797772 111.1081854  61.9006819   3.1695489 109.5814450
  61.8777507   3.2683177 108.6296333  62.2107456   4.0160640 109.9031616
  64.5594197   5.2271645 113.6961065  65.5137450   5.1955587 113.6290996
  64.3606721   4.7662268 114.5111291  62.9144426  10.7691264 110.7131263
  62.7798894  10.0091665 110.1469261  62.4976488  11.4932164 110.2460051
  74.0503389   5.9528188  99.7207838  74.7539239   6.1578190 100.3365493
  73.3266037   6.5204949  99.9856921  74.8801199   1.7038049 105.8410108
  74.8236400   2.1606600 105.0017740  75.4329541   0.9428733 105.6632951
  66.0713552  11.6660581 110.9249705  65.9545936  12.6106014 110.8228396
  65.2505998  11.3634143 111.3135504  75.9590086   6.3910717 101.7706298
  76.7935690   5.9591915 101.5883773  75.7974429   6.2192730 102.6983192
  75.6135978   2.8942830 103.1362637  75.5584782   2.7287101 102.1951081
  74.9882034   3.6018863 103.2924827  67.0968066  12.3188843 114.1405634
  67.9995312  12.3512453 114.4572129  66.8705436  11.3889294 114.1551969
  68.8521668  11.0719829 110.8015712  67.9017299  11.0721691 110.6880085
  69.1554154  10.3252564 110.2851747  84.5874361  16.9080368 111.8661475
  85.2252771  16.7887115 111.1624815  84.4695204  17.8561212 111.9249427
  81.3964068  16.8607796 111.8022999  81.0582579  16.7448861 110.9143534
  82.2653836  16.4598961 111.7824006  77.2550883  18.7143272 107.7919890
  76.6915748  18.6233209 107.0236178  77.1403278  17.8943177 108.2722383
  81.8783850  18.0142648 117.7609205  81.8672491  17.6195446 116.8889709
  82.0404490  17.2808720 118.3542976  74.8015315  20.2094464 110.6304111
  75.5936607  19.8685289 110.2150410  75.0411965  20.3189439 111.5506264
  82.8350442  22.3814240 103.1034355  82.1838422  22.9668320 102.7168369
  83.6294805  22.9120435 103.1629393  76.7606069  19.4703377 103.5021490
  77.5336945  18.9232364 103.3634365  77.1131468  20.3347627 103.7135951
  78.5991112  20.7979759 116.7088389  78.3080978  21.7025390 116.5935055
  79.2348096  20.8396287 117.4232458  79.5247318  18.1756608 113.2989749
  80.1210891  17.9512630 112.5846711  79.5822290  17.4341353 113.9015196
  79.0972347  15.6296043 101.1339939  79.3497868  15.1077565 100.3723402
  78.1596906  15.4662189 101.2366623  84.1415630  14.6331822 108.9414683
  84.9278719  14.2151245 108.5905100  84.4054334  15.5377914 109.1096331
  84.3125707  20.0704672 103.6403340  83.6771540  20.1439299 104.3524244
  83.9823113  20.6598271 102.9622419  89.5424057  14.5707055 109.8447661
  90.2749229  14.0006272 110.0785491  88.7863413  14.1828655 110.2854167
  78.8168636  17.5324149 103.3364314  78.7004894  16.8569053 104.0045399
  78.9270896  17.0456523 102.5196468  81.1600177  16.9934296 107.0411004
  80.7958384  16.4664917 107.7523925  82.0167292  16.6032765 106.8677489
  87.0649477   8.2828629 114.3042270  86.7332802   9.1524040 114.0803485
  86.4695091   7.9664913 114.9836300  80.8005664  12.0224196 102.0372352
  80.9680066  12.8904433 102.4042823  80.6102833  12.1851478 101.1133641
  83.5580997  20.4841175 113.7038183  83.2581720  21.3866214 113.5953990
  83.2132056  20.2173358 114.5559335  77.0093478  16.9354972 109.7374887
  76.0843975  16.8031186 109.9452579  77.2577891  17.7149191 110.2344829
  86.9578141  13.0023715 111.3835620  86.0495018  12.9339124 111.0894381
  86.9065736  13.4795660 112.2117445  80.7794884  14.4781854 103.0219019
  80.6594510  14.9238904 103.8604499  80.0847473  14.8267171 102.4632557
  74.3702289  16.5788245 110.5718676  74.4994670  16.8322724 111.4858088
  73.6899741  17.1715953 110.2523331  78.5401777  27.2485495 106.6709150
  78.4625806  28.1993320 106.7497631  77.9363420  26.9031368 107.3284077
  81.0319006  14.4213361 119.3270517  80.2552340  14.9807281 119.3173382
  81.6709569  14.9070144 119.8485387  88.8239787  11.2040154 113.1613494
  88.1814167  11.4972687 112.5153288  88.3194715  11.0893074 113.9666690
  86.4779951  14.9503327 103.8499353  87.3897807  15.1830714 103.6747051
  85.9689598  15.5340371 103.2874432  79.2865379  17.2298814 118.8888484
  80.0280063  17.7683858 118.6123308  78.5802364  17.8565103 119.0460036
  84.7620718  19.3727955 117.4860646  85.1704074  18.9310365 116.7415278
  84.0397980  18.7980582 117.7394839  81.1151788  14.3100561 114.8594203
  81.9612983  14.7339975 115.0028852  81.0550426  13.6534186 115.5532766
  85.0849533  19.9329145 111.2412935  84.4558395  20.0974859 110.5389002
  84.6975195  20.3470755 112.0123899  88.9638765  20.8683583 108.5957298
  88.2789803  21.2482484 108.0454332  89.0482614  21.4778910 109.3289246
  84.2651234  11.9704930 116.5175376  84.0212165  12.7246990 115.9809652
  84.5411164  12.3490277 117.3522623  86.2189696  18.5143542 115.1952642
  86.4306592  19.1575302 114.5187023  86.1719445  17.6805859 114.7274572
  83.8215925  11.1261363 112.0989214  82.9600404  11.4242616 112.3905952
  83.8478360  11.3431762 111.1670247  80.6377495  19.6703553 108.5063020
  81.1015840  19.9491256 107.7167642  80.3734293  18.7686998 108.3236110
  77.5301576  19.2175035 111.4442783  78.1002933  19.6462303 110.8060267
  78.1209688  18.9357620 112.1426969  79.5746381  15.7926706 105.3152585
  80.2770424  16.2447749 105.7826511  79.2427009  15.1510525 105.9432478
  78.0226742  14.3838462 119.6903794  77.3925403  15.0654743 119.9239191
  77.9162830  14.2721544 118.7456932  73.3171715  14.0510258 110.6169718
  72.5270769  14.3067787 110.1409829  73.8082962  14.8658596 110.7221759
  87.3335524  21.3915498 113.3674999  88.1552968  20.9895685 113.0857681
  87.3297927  21.2883732 114.3191115  75.2686460  14.4154838 107.5753195
  74.4717623  14.5273532 108.0936691  75.0412052  14.7541490 106.7094086
  81.0992128  20.9399541 115.5235710  81.1636560  21.4019948 116.3593882
  80.3903052  20.3096906 115.6518020  71.6009418  14.3040749 113.0484709
  71.8517456  15.1887759 113.3142285  72.1368966  14.1245350 112.2759801
  95.4241517  17.7354246 109.7159971  94.6705226  17.1661644 109.5603975
  95.5589059  17.7016911 110.6630605  80.8140145  22.6067648 105.3914690
  80.6785820  23.4519184 105.8199538  81.3549958  22.8086926 104.6280624
  77.3007485   8.6859228 122.0529045  76.9074431   8.1325427 122.7276689
  78.1173625   8.9969807 122.4435563  74.2669543  20.1243086 105.9642615
  74.7794063  20.9186337 106.1148180  74.9192256  19.4269377 105.8976217
  76.0764428  23.2408843 108.0465368  76.2531056  24.1626807 107.8586352
  76.8721261  22.9267262 108.4759748  80.2175446  10.1017107 119.6449302
  80.9585159  10.7024260 119.5653764  80.4493369   9.3594745 119.0867344
  75.3616784  15.2873475 117.9227531  75.2470299  14.3858732 118.2234630
  74.5061302  15.5337171 117.5712348  82.4408622  23.2291215 119.5215032
  81.9972476  22.4427593 119.2035937  83.1025835  23.4170365 118.8558923
  77.1995743  24.7587016 114.0475711  77.7503168  24.6304080 113.2752705
  76.3607219  25.0581905 113.6970603  84.5389860  23.5094015 117.5496433
  84.5208335  24.3302896 117.0576703  85.4609780  23.3848090 117.7746575
  80.9962914  21.0238144 118.3919942  81.5291251  20.2626432 118.1619250
  80.4676995  20.7311796 119.1344096  84.1632609   6.1298210 113.9213583
  83.8196878   7.0199852 113.8452694  84.5311572   5.9399868 113.0583168
  72.2318460  18.4531741 106.7402186  73.0693682  18.8628749 106.5235893
  72.4096727  17.5131183 106.7102379  84.1282892  16.1206821 102.4286019
  83.6129515  16.8911426 102.6674406  83.8560200  15.4471957 103.0519080
  81.7130003  10.9656522 107.4871257  80.8571599  10.5763372 107.3076896
  82.1256955  11.0448483 106.6271042  83.2429149   8.5002865 111.8862817
  82.7393945   8.4633001 111.0730622  83.5359756   9.4095608 111.9459473
  79.4872035   8.5841595 110.8928998  80.3525032   8.3884404 110.5334888
  79.5549544   8.3551947 111.8198355  89.1017166  18.8739176 104.3639192
  88.3246609  18.5350335 103.9194354  89.7808647  18.8791799 103.6894157
  83.9169195  13.9933913 104.2545800  83.6119330  14.3080063 105.1055943
  84.8699637  14.0715333 104.2973133  82.3615627  20.1524137 105.9038754
  81.8336988  19.4176896 105.5911991  81.8603129  20.9298813 105.6578722
  87.3408473  18.3473157 111.0205800  86.6832147  19.0372419 111.1085929
  88.1448872  18.7369589 111.3639786  77.0934354  10.8143803 108.2645365
  77.6678106  10.5918984 107.5318558  77.6805337  10.8832498 109.0173967
  86.1513932  16.7017530 109.0709742  86.6645813  17.3347522 109.5731452
  86.8015155  16.1018725 108.7053102  77.4203941  12.8448264 102.2841251
  76.5841254  13.1822951 102.6050525  77.2808711  12.7097244 101.3468387
  79.3957022   7.6885052 106.9920435  78.7421434   7.3734069 106.3677049
  79.3537496   7.0660792 107.7180258  80.5068227  17.9704347  98.9073727
  79.5995289  17.7393600  99.1064876  81.0039259  17.1741966  99.0947708
  83.4136306  26.6801854 101.8270413  82.7398005  26.9833551 102.4355371
  83.8002128  27.4830935 101.4775870  82.6294762  14.1766985 111.3168082
  81.7117324  14.3981932 111.1589770  83.0454906  14.2513296 110.4579790
  83.4129810  15.5758401 106.4470763  84.1601629  16.0879798 106.1377885
  83.6821400  15.2542454 107.3075156  81.6856460  18.0716942 103.4297717
  80.7767680  17.7875975 103.5270187  81.7151544  18.4916020 102.5701024
  86.9175728  21.6823531 107.1988884  86.4638055  20.8414441 107.2554075
  86.2869694  22.3184930 107.5363665  85.8608647  12.6115517 108.4289552
  85.1231404  12.0992904 108.7599794  86.1135421  12.1715899 107.6172829
  85.3608667  23.5200028 108.1338703  85.6531641  24.0805085 107.4151068
  85.8707288  23.8128589 108.8891862  85.9620275   5.3891769 109.0231321
  86.2679151   4.5289133 108.7357236  86.6872879   5.9809390 108.8230315
  72.2544631  15.7922456 107.4112919  72.0569031  15.1991817 106.6863986
  71.6991295  15.4874666 108.1288858  80.2341354  15.6845562 109.5307512
  80.2889964  14.7319399 109.4549989  79.4232556  15.8405002 110.0148811
  81.3832548  19.6125686 100.7685795  80.9451978  18.8961544 100.3091433
  82.1242989  19.8401800 100.2070887  78.1733714  14.3022622 107.2897891
  77.3601580  14.6016793 107.6963083  78.6692709  13.9078311 108.0072373
  80.3242292  24.2980379 109.2232156  80.2818471  24.5241225 108.2940688
  81.2404991  24.0643754 109.3717957  83.7707926  14.7664447 116.1212785
  84.1257314  14.9935920 116.9807251  84.4180057  15.0982823 115.4990040
  89.5005663  17.8882883 106.8262114  89.3623562  18.0784479 105.8983303
  89.1441882  18.6502265 107.2830165  77.6647789  11.8740978 112.9059126
  78.3047168  11.7329737 112.2082089  76.8325320  11.5875491 112.5297728
  89.5275043  19.9559410 111.8373386  89.9611549  19.8634699 112.6856440
  90.2406623  19.9316910 111.1993402  78.4408093  21.1743408 109.0194118
  79.2348691  20.6793728 108.8176693  77.7299785  20.6461271 108.6561824
  83.2602937  23.5561504 113.3706486  83.3139960  24.1252440 114.1384202
  82.3917719  23.7263389 113.0060523  74.7490856  15.3186490 105.0953871
  73.8188445  15.2570945 105.3123833  74.8448328  14.7962443 104.2990512
  74.6676405  11.8441303 107.6832113  74.9283223  12.7586636 107.5741273
  75.4893578  11.3765745 107.8328726  76.1401331  13.2579060 114.8530937
  76.8124384  13.0496422 114.2043586  75.3131117  13.0601146 114.4136170
  90.3890592  19.9983110 114.3706271  90.5826482  20.9028921 114.6165546
  90.2891210  19.5390529 115.2044856  82.0426903   9.8841001 116.8696598
  81.3954818  10.5830950 116.7761075  82.8127918  10.3177145 117.2372846
  85.4505701  20.1489853 119.9447152  85.2991207  19.9200405 119.0277235
  85.4410380  21.1060454 119.9578497  82.2191037  17.7221766 114.9293418
  83.1483097  17.8732925 114.7562385  81.7982067  17.8105786 114.0742064
  81.0179369  21.7472430 112.6991956  80.8790455  21.3791215 113.5717894
  80.2293965  22.2620070 112.5275913  81.6127521  26.8481527 104.0417492
  81.7879277  26.3769570 104.8563115  80.9260309  27.4747293 104.2698753
  82.5684584  21.1254033 110.0880793  82.2334417  21.0854803 110.9838443
  82.0688530  20.4598749 109.6151204  76.5428828  16.5321663 115.6133375
  76.4048626  15.8001902 116.2144914  77.4533752  16.4430563 115.3317562
  85.5043776  18.4710067 100.3617853  84.8872946  17.7456895 100.2650906
  85.0360264  19.2319427 100.0184927  79.1711129  16.2441622 115.1017054
  79.8810747  15.6034814 115.0603673  79.1280437  16.4954517 116.0243235
  87.1597907  23.1808976 118.0223633  87.1010454  22.4968196 117.3554216
  87.5617426  23.9227966 117.5704259  77.8840063  13.2306840 116.9212694
  77.3477420  12.7797579 117.5734290  77.2956771  13.3652749 116.1783158
  76.1788606  29.9970889 110.8157352  76.4185204  30.6289414 111.4936371
  75.3357803  29.6458929 111.1022712  77.2942322  12.6895491  99.4839157
  76.4171788  12.5684292  99.1201404  77.7700075  11.8981570  99.2318046
  87.1615315  21.1448559 116.2537613  86.2742093  20.8074481 116.3764012
  87.7313866  20.4131591 116.4906378  68.8144462  17.4772651 109.5780664
  69.5015502  17.1634381 108.9901680  68.6592591  18.3814016 109.3047916
  73.6179184  12.3662848 114.0065688  73.5337373  11.7588517 113.2716098
  72.7961890  12.8571866 114.0075184  80.6916468  25.8050012 113.2198856
  80.6186640  26.6104983 113.7318161  80.2493861  26.0041978 112.3946878
  80.4806248  25.0421782 106.7301678  79.6973770  25.5843462 106.8239902
  81.1798993  25.5595761 107.1295919  83.7902898  10.8516411 109.3735883
  84.2871597  10.0986374 109.0536953  83.0189879  10.8880728 108.8079093
  91.6432655  16.5556777 111.0154175  91.6322531  17.4381492 110.6448108
  90.7750035  16.2028328 110.8208712  83.1515152  25.7036846 115.3757015
  83.8643124  26.3384311 115.3032916  82.6605180  25.8000712 114.5597017
  84.8732679  19.6088099 106.9474307  83.9388957  19.7289561 106.7779011
  85.0509347  18.7060565 106.6834316  80.3737867  12.9933794 109.1007568
  80.0035654  12.4404835 109.7888473  80.8696959  12.3891928 108.5482568
  88.2605230  15.4505418 107.4824341  88.7265682  16.2833409 107.4084643
  88.7112730  14.9850399 108.1869599  78.2027065  23.4531289 116.1962586
  78.9036525  24.0867772 116.3491980  77.7322180  23.7946021 115.4358225
  86.3281461  21.7949239 104.4810493  86.6041305  21.6805834 105.3904367
  85.4585960  21.3966724 104.4422666  86.2321893   7.8186005 111.5215242
  85.3184972   8.0490232 111.6897449  86.6614994   7.9024449 112.3729274
  86.0028351  16.0075897 114.0215136  85.3499801  16.2551804 113.3667589
  86.3808731  15.1940035 113.6877613  82.9635525  26.0435590 108.1243306
  83.1457920  25.2257246 108.5871059  83.7868511  26.2603282 107.6868196
  83.2977690  24.9703775 105.3858355  83.8265457  24.4596230 104.7728517
  83.5605910  24.6546305 106.2503888  82.0515924  16.7495708 120.5081173
  81.3756561  16.6489837 121.1783548  82.8743558  16.5934922 120.9717170
  73.7994783  22.9867644 113.1293688  74.3848220  22.2411332 113.2621593
  73.6019622  23.2971601 114.0130352  76.6533438  26.0218892 108.1456131
  75.9843814  26.5065019 107.6620171  76.5146308  26.2688112 109.0599509
  68.3912438  15.5573245 111.8498132  68.4296537  15.0236835 112.6435250
  67.8852731  15.0308450 111.2309109  80.7938707  28.0562635 114.7438789
  81.3457015  28.2194257 115.5087874  81.1344900  28.6467073 114.0718814
  75.7703200  10.4037785 115.3460674  75.8344527  11.2652616 114.9338072
  75.7070320   9.7911787 114.6133032  75.2455473  12.4760918 118.9933708
  75.8727512  12.0937995 119.6071232  74.3883392  12.2575120 119.3589401
  85.6449581  22.8823893 120.5987444  86.1889485  23.4953851 120.1042398
  85.0636426  23.4403471 121.1154457  72.0221016  14.2837347 104.9252063
  72.3174457  13.3748025 104.8719117  71.1209051  14.2625086 104.6033065
  83.9307094  26.0044611 111.7302471  83.8058234  25.2034351 111.2213417
  84.5886185  26.4990804 111.2416441  75.5515263  12.3593343 110.9079612
  74.8301848  12.9729311 110.7687085  76.3408518  12.8951108 110.8296258
  85.9942003  23.8053631 113.3582021  85.0472338  23.6858982 113.2860348
  86.3424776  22.9176129 113.4408283  78.3541576   9.6947770 117.1820263
  78.8775978   9.9410066 117.9446573  78.1353909  10.5267805 116.7623401
  73.7508857  11.9651444 105.0491388  73.4221563  11.0848823 104.8666494
  74.1048228  11.9099113 105.9367777  82.9988436  23.6006347 109.5586374
  82.8513398  22.6723054 109.7393944  83.8241929  23.6226438 109.0743449
  76.8650680  12.2524414 105.4166866  77.2046753  12.7810335 104.6945474
  77.3122801  12.5904820 106.1925432  86.6022558  24.4234906 110.6451246
  87.5269105  24.2177767 110.5075698  86.4337861  24.1751307 111.5540588
  79.5594121  10.6361465 114.8669934  79.2190941   9.8369278 115.2690614
  78.8533127  10.9363176 114.2946767  80.2110593   7.7210777 113.3197257
  81.0336662   7.2471256 113.1976147  80.4548656   8.5001261 113.8195943
  78.8518827  10.7499036 103.6160159  79.5727190  11.1280289 103.1123875
  78.2284132  11.4687913 103.7195137  82.9949950  11.4544185 104.5518491
  83.2113565  12.3368823 104.2507319  82.5144017  11.0630398 103.8224133
  77.7349172  14.4129898 111.1289235  77.5893752  14.7270201 112.0213517
  77.2574375  15.0314798 110.5760134  79.5945555  11.4032446 111.1770125
  79.5807123  10.5073539 110.8402423  80.3117983  11.4103110 111.8108411
  81.4471685  11.8369786 113.2223252  81.1889463  12.7586857 113.2207583
  80.9156726  11.4400221 113.9123717  86.3917874  24.9420573 106.0013338
  86.5654752  24.3766996 105.2487190  86.8846765  25.7421468 105.8192828
  72.2094834  16.9535242 114.0676897  71.6648302  17.7295050 114.1997171
  73.0874184  17.3006047 113.9096018  78.9982450  10.2846826 106.4457695
  79.1198362   9.3563472 106.6448583  78.7084493  10.2985512 105.5336011
  81.8673641   7.9701737 109.5824415  81.8895338   8.0341070 108.6276395
  82.2841700   7.1306245 109.7764921  92.2457265  17.7056996 107.6203638
  92.6888411  16.9564321 107.2222761  91.3683775  17.6967133 107.2377370
  87.3793047  24.2587338 103.1010236  88.0743951  24.8794030 103.3197551
  87.7216197  23.4082689 103.3762614  72.9960856  16.0805139 116.9607054
  72.2542592  16.2287774 117.5471684  72.6753600  16.3413404 116.0973803
  89.2784470  21.7087043 104.6297567  89.8035794  22.0474316 103.9046887
  89.1906822  20.7734059 104.4460702  80.9404518  25.6221117 116.7587444
  81.2491645  25.3770264 117.6310143  81.7380000  25.8267755 116.2706314
  80.9625130  27.7759026 108.9892820  80.5230121  27.2835405 109.6825677
  81.7133247  27.2331994 108.7484895  73.4417469  23.9670567 108.9917448
  74.2675489  23.6674339 108.6116092  73.0911521  23.1978190 109.4407237
  78.4099003  23.3197036 111.0615122  77.7879012  22.6567741 110.7617350
  79.0803869  23.3458167 110.3788770  71.6426074  21.8856894 109.9506382
  70.8057983  21.4579068 109.7690383  71.6149720  22.0789337 110.8877173
  78.4823530  11.7978824 120.6547628  78.5311686  12.6740946 120.2725397
  79.0246044  11.2556217 120.0819271  88.9678376  22.3419947 119.9348765
  88.1773919  22.3244086 119.3953264  88.7311730  22.8808241 120.6897801
  89.0876251  19.1912413 117.2481493  89.1374256  19.0262421 118.1897016
  88.9790174  18.3239672 116.8579374  77.9712509  21.8700959 104.5373582
  78.1200630  22.5536423 103.8840255  78.7778953  21.8506049 105.0523038
  86.3780013  15.1743341 118.5640800  87.2789876  15.0349806 118.2724798
  86.4527988  15.3397796 119.5038978  80.7122818  12.5510196 117.4093986
  79.8426128  12.8443762 117.1376575  80.9482299  13.1350641 118.1301250
  90.5894448  21.6109355 117.4923515  90.2979256  21.9739335 118.3286976
  89.9766579  20.8976363 117.3136847  91.7890130  19.1762235 110.0126085
  92.6237021  19.6152039 110.1763646  91.9249259  18.7000888 109.1934331
  88.8381636  16.7341969 115.9603573  89.3135757  16.9269616 115.1522424
  87.9147201  16.7901155 115.7146957  75.7265142  17.8966137 105.5434651
  75.4811184  16.9928467 105.7414861  75.8961057  17.8983287 104.6014129
  83.4161852   8.7689813 114.9259407  83.9343796   9.5050840 114.6005895
  83.0616985   9.0753806 115.7606166  74.9960790  13.6294494 103.0420813
  74.3030035  13.7038849 102.3860849  74.7512542  12.8654838 103.5642330
  83.6674446   5.1890095 110.4460303  83.9476200   4.5213285 111.0720730
  84.4525053   5.3819191 109.9334967  81.4707915  24.3649089 102.0085330
  80.8981882  24.9839276 101.5555802  82.0440709  24.9148451 102.5425252
  87.5383305  13.6107729 114.1931879  88.4900728  13.7105827 114.2144103
  87.3686755  12.8185998 114.7029963  85.5597684  10.6963313 114.3791279
  84.9647616  10.9768325 113.6837768  85.2747381  11.1857214 115.1508021
  84.6905175  24.6486239 103.1393912  85.6235848  24.5831801 103.3426788
  84.6028388  25.4842506 102.6808445  87.3193191  23.9652110 100.0997860
  87.2406823  23.6311973 100.9933617  88.1402858  24.4573878 100.0989332
  90.0171383  16.8313849 113.3074178  89.9847703  15.8929850 113.4933862
  90.6272006  16.9097886 112.5740003  81.8554713  15.7009902  99.3501382
  82.8013818  15.5716110  99.4189800  81.4768958  14.9624564  99.8270810
  90.1665871  13.6224893 113.3532461  89.6504920  12.8383349 113.1662390
  91.0505820  13.2943609 113.5178981  87.8276598   7.3665908 109.3128274
  87.6301419   7.0580996 110.1971606  88.4376304   8.0927547 109.4426204
  95.8347932  17.8929856 112.4480215  96.5651321  17.6315144 113.0087918
  95.2254878  17.1558578 112.4882283  93.9163230  16.0337719 113.0454666
  93.1896393  15.8993683 112.4371158  93.5010516  16.3414547 113.8511384
  81.7393406  19.7527648 120.8102039  82.6596415  19.9306247 121.0042086
  81.7042989  18.8083694 120.6581738  80.0397631  13.6259878  99.2856267
  79.1329086  13.3292991  99.3618981  80.3173612  13.3289697  98.4190554
  70.9575571  14.9466242 109.7355314  70.6378355  14.0931550 109.4429688
  70.4108999  15.1614820 110.4913281  74.7355479  17.6628683 113.4524820
  74.9541488  18.5945791 113.4712854  75.1481252  17.3036657 114.2379624
  81.6559696   8.1696768 105.4400509  80.8460425   7.8243853 105.8155755
  82.3444113   7.8604312 106.0288120  83.5850245   7.2474815 107.0624805
  84.1381283   7.6670268 107.7214828  83.8220331   6.3210563 107.1047761
  79.6083344  13.2361889 122.8427569  79.5080071  14.1856246 122.7739660
  79.3904886  12.9080128 121.9703639  78.8096415  10.4846814  99.4268247
  79.6715579  10.8101712  99.6864064  78.9946759   9.6978310  98.9141312
  70.8263831  18.5669153 111.7048435  70.1327302  18.1523106 111.1918390
  71.5736822  18.6089690 111.1081854  86.9629052   9.3575340 106.5703470
  86.3827721  10.0160144 106.1881522  86.6964984   8.5352685 106.1590887
  85.4132618   8.7580398 108.7724790  85.9132396   8.8696932 107.9639109
  86.0568226   8.4541451 109.4125598  79.4714614  16.6659027 121.6592631
  78.9881696  17.4659388 121.8656520  79.5575553  16.6766972 120.7060075
  72.7400574  18.4987407 109.5814450  72.7171262  18.5975094 108.6296333
  73.0501210  19.3452558 109.9031616  75.3987951  20.5563562 113.6961065
  76.3531205  20.5247505 113.6290996  75.2000475  20.0954186 114.5111291
  75.9887334  19.1264678 116.2631862  76.8080223  19.6208757 116.2866700
  76.2624141  18.2096646 116.2349430  85.7453930  11.5175431 105.6259818
  84.8579785  11.8025081 105.4080013  86.1607919  11.3569194 104.7787095
  89.0968466  11.5421952 109.3414157  89.8728856  12.0318404 109.6138774
  88.3716600  11.9680006 109.7986027  91.5341025  12.2549571 110.3988098
  92.1285515  12.0145307 109.6881406  91.6067608  11.5356701 111.0261634
  73.7538180  26.0983182 110.7131263  73.6192648  25.3383583 110.1469261
  73.3370242  26.8224082 110.2460051  84.8897143  21.2820105  99.7207838
  85.5932993  21.4870108 100.3365493  84.1659792  21.8496867  99.9856921
  85.7194953  17.0329966 105.8410108  85.6630155  17.4898518 105.0017740
  86.2723296  16.2720651 105.6632951  89.5299759  12.8219698 106.6660228
  89.2736694  12.4216334 107.4968435  88.9052627  13.5363492 106.5410367
  93.8412097  15.5615772 109.1731519  93.2811655  15.6308961 109.9463081
  93.2355601  15.3856756 108.4531015  76.9107306  26.9952499 110.9249705
  76.7939690  27.9397931 110.8228396  76.0899752  26.6926060 111.3135504
  86.7983841  21.7202634 101.7706298  87.6329445  21.2883833 101.5883773
  86.6368184  21.5484648 102.6983192  86.4529733  18.2234748 103.1362637
  86.3978537  18.0579019 102.1951081  85.8275788  18.9310781 103.2924827
  71.2422248  13.4602812 116.9624059  71.8881111  12.9501766 117.4511285
  71.0339399  14.1971494 117.5367485  83.7675640  20.5283660 122.4616200
  84.6366800  20.7024312 122.1002835  83.2882391  21.3478076 122.3391929
  79.7625858   7.7242857 102.7147956  79.7504528   8.6684697 102.8716226
  80.6549280   7.5413002 102.4207417  77.9361820  27.6480761 114.1405634
  78.8389067  27.6804371 114.4572129  77.7099190  26.7181212 114.1551969
  79.6915422  26.4011747 110.8015712  78.7411053  26.4013609 110.6880085
  79.9947908  25.6544482 110.2851747  83.5777978   4.3185633 106.9693892
  82.8110374   3.7644120 107.1150575  83.9888683   4.3907502 107.8308044
  75.5819739  10.6070429 121.0599074  76.4451200  10.2507234 121.2702398
  75.0085149  10.2684324 121.7474478  95.4268116  32.2372286 111.8661475
  96.0646526  32.1179033 111.1624815  95.3088959  33.1853129 111.9249427
  92.2357822  32.1899714 111.8022999  91.8976334  32.0740778 110.9143534
  93.1047590  31.7890879 111.7824006  88.0944638  34.0435190 107.7919890
  87.5309503  33.9525127 107.0236178  87.9797033  33.2235095 108.2722383
  92.7177605  33.3434565 117.7609205  92.7066246  32.9487364 116.8889709
  92.8798244  32.6100638 118.3542976  85.6409070  35.5386382 110.6304111
  86.4330362  35.1977206 110.2150410  85.8805720  35.6481357 111.5506264
  93.6744196  37.7106158 103.1034355  93.0232176  38.2960238 102.7168369
  94.4688559  38.2412353 103.1629393  87.5999824  34.7995295 103.5021490
  88.3730700  34.2524282 103.3634365  87.9525222  35.6639544 103.7135951
  89.4384866  36.1271677 116.7088389  89.1474732  37.0317308 116.5935055
  90.0741850  36.1688205 117.4232458  90.3641073  33.5048526 113.2989749
  90.9604645  33.2804548 112.5846711  90.4216045  32.7633271 113.9015196
  89.9366101  30.9587961 101.1339939  90.1891622  30.4369482 100.3723402
  88.9990660  30.7954106 101.2366623  94.9809384  29.9623739 108.9414683
  95.7672473  29.5443163 108.5905100  95.2448089  30.8669832 109.1096331
  95.1519462  35.3996590 103.6403340  94.5165295  35.4731216 104.3524244
  94.8216868  35.9890189 102.9622419 100.3817811  29.8998973 109.8447661
 101.1142983  29.3298189 110.0785491  99.6257167  29.5120573 110.2854167
  89.6562390  32.8616067 103.3364314  89.5398648  32.1860970 104.0045399
  89.7664650  32.3748441 102.5196468  91.9993931  32.3226214 107.0411004
  91.6352138  31.7956835 107.7523925  92.8561047  31.9324683 106.8677489
  97.9043232  23.6120547 114.3042270  97.5726556  24.4815958 114.0803485
  97.3088845  23.2956831 114.9836300  91.6399418  27.3516114 102.0372352
  91.8073820  28.2196350 102.4042823  91.4496587  27.5143395 101.1133641
  94.3974751  35.8133093 113.7038183  94.0975474  36.7158131 113.5953990
  94.0525811  35.5465276 114.5559335  87.8487233  32.2646890 109.7374887
  86.9237729  32.1323104 109.9452579  88.0971646  33.0441109 110.2344829
  97.7971895  28.3315633 111.3835620  96.8888772  28.2631041 111.0894381
  97.7459491  28.8087578 112.2117445  91.6188639  29.8073771 103.0219019
  91.4988264  30.2530822 103.8604499  90.9241227  30.1559089 102.4632557
  85.2096044  31.9080163 110.5718676  85.3388425  32.1614642 111.4858088
  84.5293495  32.5007871 110.2523331  89.3795531  42.5777413 106.6709150
  89.3019561  43.5285238 106.7497631  88.7757175  42.2323286 107.3284077
  91.8712761  29.7505278 119.3270517  91.0946095  30.3099199 119.3173382
  92.5103324  30.2362061 119.8485387  99.6633541  26.5332071 113.1613494
  99.0207922  26.8264604 112.5153288  99.1588470  26.4184992 113.9666690
  97.3173705  30.2795244 103.8499353  98.2291561  30.5122631 103.6747051
  96.8083352  30.8632289 103.2874432  90.1259133  32.5590732 118.8888484
  90.8673817  33.0975776 118.6123308  89.4196119  33.1857021 119.0460036
  95.6014473  34.7019872 117.4860646  96.0097829  34.2602283 116.7415278
  94.8791734  34.1272500 117.7394839  91.9545543  29.6392479 114.8594203
  92.8006738  30.0631893 115.0028852  91.8944180  28.9826103 115.5532766
  95.9243287  35.2621063 111.2412935  95.2952150  35.4266777 110.5389002
  95.5368949  35.6762672 112.0123899  99.8032519  36.1975501 108.5957298
  99.1183557  36.5774402 108.0454332  99.8876369  36.8070827 109.3289246
  95.1044988  27.2996847 116.5175376  94.8605920  28.0538908 115.9809652
  95.3804919  27.6782195 117.3522623  97.0583451  33.8435460 115.1952642
  97.2700346  34.4867220 114.5187023  97.0113199  33.0097776 114.7274572
  94.6609680  26.4553280 112.0989214  93.7994159  26.7534534 112.3905952
  94.6872114  26.6723679 111.1670247  91.4771249  34.9995471 108.5063020
  91.9409595  35.2783174 107.7167642  91.2128047  34.0978916 108.3236110
  88.3695330  34.5466953 111.4442783  88.9396687  34.9754221 110.8060267
  88.9603442  34.2649537 112.1426969  90.4140135  31.1218623 105.3152585
  91.1164179  31.5739667 105.7826511  90.0820764  30.4802442 105.9432478
  88.8620497  29.7130380 119.6903794  88.2319157  30.3946661 119.9239191
  88.7556585  29.6013462 118.7456932  84.1565469  29.3802176 110.6169718
  83.3664523  29.6359705 110.1409829  84.6476717  30.1950514 110.7221759
  98.1729279  36.7207415 113.3674999  98.9946723  36.3187602 113.0857681
  98.1691682  36.6175649 114.3191115  86.1080215  29.7446755 107.5753195
  85.3111378  29.8565450 108.0936691  85.8805807  30.0833407 106.7094086
  91.9385882  36.2691458 115.5235710  92.0030315  36.7311866 116.3593882
  91.2296806  35.6388823 115.6518020  82.4403172  29.6332666 113.0484709
  82.6911211  30.5179676 113.3142285  82.9762721  29.4537268 112.2759801
 106.2635272  33.0646164 109.7159971 105.5098980  32.4953562 109.5603975
 106.3982813  33.0308828 110.6630605  91.6533900  37.9359566 105.3914690
  91.5179575  38.7811102 105.8199538  92.1943712  38.1378844 104.6280624
  88.1401240  24.0151146 122.0529045  87.7468185  23.4617344 122.7276689
  88.9567380  24.3261724 122.4435563  85.1063297  35.4535004 105.9642615
  85.6187818  36.2478254 106.1148180  85.7586010  34.7561294 105.8976217
  86.9158182  38.5700760 108.0465368  87.0924810  39.4918725 107.8586352
  87.7115016  38.2559180 108.4759748  91.0569201  25.4309025 119.6449302
  91.7978914  26.0316178 119.5653764  91.2887123  24.6886663 119.0867344
  86.2010539  30.6165392 117.9227531  86.0864054  29.7150649 118.2234630
  85.3455056  30.8629089 117.5712348  93.2802376  38.5583132 119.5215032
  92.8366230  37.7719511 119.2035937  93.9419590  38.7462283 118.8558923
  88.0389497  40.0878934 114.0475711  88.5896923  39.9595997 113.2752705
  87.2000973  40.3873823 113.6970603  95.3783614  38.8385932 117.5496433
  95.3602090  39.6594813 117.0576703  96.3003534  38.7140008 117.7746575
  91.8356669  36.3530062 118.3919942  92.3685005  35.5918350 118.1619250
  91.3070750  36.0603714 119.1344096  95.0026363  21.4590128 113.9213583
  94.6590633  22.3491770 113.8452694  95.3705326  21.2691786 113.0583168
  83.0712214  33.7823658 106.7402186  83.9087436  34.1920667 106.5235893
  83.2490482  32.8423100 106.7102379  94.9676646  31.4498739 102.4286019
  94.4523270  32.2203344 102.6674406  94.6953955  30.7763875 103.0519080
  92.5523757  26.2948440 107.4871257  91.6965354  25.9055290 107.3076896
  92.9650709  26.3740401 106.6271042  94.0822904  23.8294783 111.8862817
  93.5787699  23.7924918 111.0730622  94.3753511  24.7387526 111.9459473
  90.3265790  23.9133513 110.8928998  91.1918787  23.7176321 110.5334888
  90.3943299  23.6843865 111.8198355  99.9410920  34.2031094 104.3639192
  99.1640363  33.8642253 103.9194354 100.6202401  34.2083717 103.6894157
  94.7562949  29.3225831 104.2545800  94.4513085  29.6371980 105.1055943
  95.7093392  29.4007251 104.2973133  93.2009381  35.4816054 105.9038754
  92.6730743  34.7468814 105.5911991  92.6996884  36.2590731 105.6578722
  98.1802227  33.6765075 111.0205800  97.5225902  34.3664336 111.1085929
  98.9842626  34.0661507 111.3639786  87.9328109  26.1435721 108.2645365
  88.5071861  25.9210902 107.5318558  88.5199091  26.2124415 109.0173967
  96.9907686  32.0309448 109.0709742  97.5039568  32.6639439 109.5731452
  97.6408910  31.4310643 108.7053102  88.2597696  28.1740182 102.2841251
  87.4235008  28.5114868 102.6050525  88.1202466  28.0389161 101.3468387
  90.2350777  23.0176970 106.9920435  89.5815189  22.7025987 106.3677049
  90.1931251  22.3952710 107.7180258  91.3461981  33.2996265  98.9073727
  90.4389043  33.0685518  99.1064876  91.8433013  32.5033884  99.0947708
  94.2530060  42.0093772 101.8270413  93.5791759  42.3125469 102.4355371
  94.6395882  42.8122852 101.4775870  93.4688517  29.5058903 111.3168082
  92.5511078  29.7273850 111.1589770  93.8848661  29.5805214 110.4579790
  94.2523565  30.9050319 106.4470763  94.9995384  31.4171716 106.1377885
  94.5215154  30.5834372 107.3075156  92.5250215  33.4008860 103.4297717
  91.6161434  33.1167892 103.5270187  92.5545299  33.8207938 102.5701024
  97.7569482  37.0115449 107.1988884  97.3031809  36.1706359 107.2554075
  97.1263449  37.6476847 107.5363665  96.7002402  27.9407435 108.4289552
  95.9625159  27.4284821 108.7599794  96.9529175  27.5007817 107.6172829
  96.2002422  38.8491946 108.1338703  96.4925396  39.4097003 107.4151068
  96.7101042  39.1420507 108.8891862  96.8014029  20.7183687 109.0231321
  97.1072906  19.8581050 108.7357236  97.5266634  21.3101307 108.8230315
  83.0938385  31.1214374 107.4112919  82.8962785  30.5283734 106.6863986
  82.5385049  30.8166584 108.1288858  91.0735109  31.0137480 109.5307512
  91.1283719  30.0611317 109.4549989  90.2626311  31.1696919 110.0148811
  92.2226303  34.9417603 100.7685795  91.7845733  34.2253462 100.3091433
  92.9636744  35.1693718 100.2070887  89.0127469  29.6314540 107.2897891
  88.1995334  29.9308710 107.6963083  89.5086463  29.2370229 108.0072373
  91.1636047  39.6272297 109.2232156  91.1212225  39.8533143 108.2940688
  92.0798746  39.3935671 109.3717957  94.6101680  30.0956364 116.1212785
  94.9651068  30.3227837 116.9807251  95.2573812  30.4274741 115.4990040
 100.3399417  33.2174800 106.8262114 100.2017316  33.4076396 105.8983303
  99.9835636  33.9794183 107.2830165  88.5041544  27.2032895 112.9059126
  89.1440923  27.0621654 112.2082089  87.6719074  26.9167409 112.5297728
 100.3668797  35.2851327 111.8373386 100.8005304  35.1926616 112.6856440
 101.0800378  35.2608828 111.1993402  89.2801847  36.5035326 109.0194118
  90.0742446  36.0085646 108.8176693  88.5693540  35.9753189 108.6561824
  94.0996692  38.8853421 113.3706486  94.1533714  39.4544358 114.1384202
  93.2311473  39.0555306 113.0060523  85.5884611  30.6478408 105.0953871
  84.6582199  30.5862863 105.3123833  85.6842083  30.1254360 104.2990512
  85.5070160  27.1733220 107.6832113  85.7676977  28.0878554 107.5741273
  86.3287332  26.7057663 107.8328726  86.9795085  28.5870978 114.8530937
  87.6518139  28.3788340 114.2043586  86.1524872  28.3893064 114.4136170
 101.2284347  35.3275028 114.3706271 101.4220237  36.2320838 114.6165546
 101.1284965  34.8682447 115.2044856  92.8820657  25.2132918 116.8696598
  92.2348572  25.9122868 116.7761075  93.6521673  25.6469062 117.2372846
  96.2899455  35.4781771 119.9447152  96.1384962  35.2492322 119.0277235
  96.2804135  36.4352372 119.9578497  93.0584792  33.0513683 114.9293418
  93.9876852  33.2024843 114.7562385  92.6375822  33.1397704 114.0742064
  91.8573123  37.0764348 112.6991956  91.7184209  36.7083132 113.5717894
  91.0687720  37.5911987 112.5275913  92.4521275  42.1773444 104.0417492
  92.6273031  41.7061487 104.8563115  91.7654063  42.8039210 104.2698753
  93.4078339  36.4545950 110.0880793  93.0728171  36.4146720 110.9838443
  92.9082284  35.7890666 109.6151204  87.3822583  31.8613581 115.6133375
  87.2442381  31.1293819 116.2144914  88.2927506  31.7722481 115.3317562
  96.3437530  33.8001985 100.3617853  95.7266701  33.0748813 100.2650906
  95.8754019  34.5611345 100.0184927  90.0104883  31.5733540 115.1017054
  90.7204502  30.9326732 115.0603673  89.9674191  31.8246435 116.0243235
  97.9991662  38.5100893 118.0223633  97.9404208  37.8260113 117.3554216
  98.4011180  39.2519883 117.5704259  88.7233817  28.5598758 116.9212694
  88.1871174  28.1089496 117.5734290  88.1350526  28.6944667 116.1783158
  87.0182361  45.3262807 110.8157352  87.2578959  45.9581331 111.4936371
  86.1751557  44.9750847 111.1022712  88.1336076  28.0187409  99.4839157
  87.2565542  27.8976210  99.1201404  88.6093829  27.2273487  99.2318046
  98.0009069  36.4740477 116.2537613  97.1135848  36.1366399 116.3764012
  98.5707620  35.7423508 116.4906378  79.6538216  32.8064569 109.5780664
  80.3409256  32.4926299 108.9901680  79.4986345  33.7105934 109.3047916
  84.4572938  27.6954765 114.0065688  84.3731127  27.0880435 113.2716098
  83.6355645  28.1863784 114.0075184  91.5310223  41.1341929 113.2198856
  91.4580394  41.9396901 113.7318161  91.0887616  41.3333895 112.3946878
  91.3200002  40.3713699 106.7301678  90.5367524  40.9135380 106.8239902
  92.0192747  40.8887679 107.1295919  94.6296652  26.1808329 109.3735883
  95.1265352  25.4278291 109.0536953  93.8583634  26.2172646 108.8079093
 102.4826410  31.8848694 111.0154175 102.4716286  32.7673410 110.6448108
 101.6143789  31.5320245 110.8208712  93.9908906  41.0328763 115.3757015
  94.7036878  41.6676228 115.3032916  93.4998935  41.1292629 114.5597017
  95.7126433  34.9380016 106.9474307  94.7782712  35.0581479 106.7779011
  95.8903101  34.0352483 106.6834316  91.2131621  28.3225712 109.1007568
  90.8429409  27.7696752 109.7888473  91.7090714  27.7183845 108.5482568
  99.0998984  30.7797335 107.4824341  99.5659437  31.6125327 107.4084643
  99.5506485  30.3142317 108.1869599  89.0420820  38.7823207 116.1962586
  89.7430279  39.4159690 116.3491980  88.5715935  39.1237939 115.4358225
  97.1675215  37.1241157 104.4810493  97.4435059  37.0097751 105.3904367
  96.2979714  36.7258642 104.4422666  97.0715647  23.1477922 111.5215242
  96.1578727  23.3782149 111.6897449  97.5008749  23.2316367 112.3729274
  96.8422106  31.3367814 114.0215136  96.1893556  31.5843722 113.3667589
  97.2202486  30.5231953 113.6877613  93.8029279  41.3727508 108.1243306
  93.9851674  40.5549164 108.5871059  94.6262266  41.5895200 107.6868196
  94.1371445  40.2995693 105.3858355  94.6659211  39.7888147 104.7728517
  94.3999665  39.9838223 106.2503888  92.8909679  32.0787625 120.5081173
  92.2150316  31.9781755 121.1783548  93.7137313  31.9226839 120.9717170
  84.6388538  38.3159562 113.1293688  85.2241975  37.5703250 113.2621593
  84.4413376  38.6263519 114.0130352  87.4927193  41.3510809 108.1456131
  86.8237568  41.8356937 107.6620171  87.3540063  41.5980030 109.0599509
  79.2306192  30.8865162 111.8498132  79.2690292  30.3528753 112.6435250
  78.7246485  30.3600368 111.2309109  91.6332462  43.3854553 114.7438789
  92.1850770  43.5486174 115.5087874  91.9738655  43.9758991 114.0718814
  86.6096955  25.7329703 115.3460674  86.6738281  26.5944534 114.9338072
  86.5464075  25.1203704 114.6133032  86.0849227  27.8052835 118.9933708
  86.7121266  27.4229913 119.6071232  85.2277146  27.5867037 119.3589401
  96.4843336  38.2115810 120.5987444  97.0283240  38.8245769 120.1042398
  95.9030181  38.7695389 121.1154457  82.8614770  29.6129264 104.9252063
  83.1568211  28.7039943 104.8719117  81.9602806  29.5917004 104.6033065
  94.7700849  41.3336528 111.7302471  94.6451988  40.5326268 111.2213417
  95.4279940  41.8282722 111.2416441  86.3909017  27.6885261 110.9079612
  85.6695603  28.3021229 110.7687085  87.1802273  28.2243026 110.8296258
  96.8335757  39.1345549 113.3582021  95.8866093  39.0150900 113.2860348
  97.1818530  38.2468047 113.4408283  89.1935331  25.0239687 117.1820263
  89.7169732  25.2701984 117.9446573  88.9747664  25.8559722 116.7623401
  84.5902612  27.2943362 105.0491388  84.2615318  26.4140741 104.8666494
  84.9441982  27.2391031 105.9367777  93.8382190  38.9298265 109.5586374
  93.6907153  38.0014972 109.7393944  94.6635684  38.9518355 109.0743449
  87.7044435  27.5816332 105.4166866  88.0440507  28.1102253 104.6945474
  88.1516555  27.9196738 106.1925432  97.4416312  39.7526823 110.6451246
  98.3662860  39.5469685 110.5075698  97.2731616  39.5043225 111.5540588
  90.3987876  25.9653383 114.8669934  90.0584696  25.1661196 115.2690614
  89.6926882  26.2655093 114.2946767  91.0504347  23.0502695 113.3197257
  91.8730417  22.5763173 113.1976147  91.2942411  23.8293179 113.8195943
  89.6912582  26.0790953 103.6160159  90.4120944  26.4572206 103.1123875
  89.0677886  26.7979830 103.7195137  93.8343705  26.7836102 104.5518491
  94.0507319  27.6660740 104.2507319  93.3537772  26.3922316 103.8224133
  88.5742926  29.7421816 111.1289235  88.4287507  30.0562119 112.0213517
  88.0968130  30.3606716 110.5760134  90.4339309  26.7324364 111.1770125
  90.4200878  25.8365457 110.8402423  91.1511737  26.7395027 111.8108411
  92.2865440  27.1661704 113.2223252  92.0283218  28.0878774 113.2207583
  91.7550480  26.7692138 113.9123717  97.2311629  40.2712491 106.0013338
  97.4048506  39.7058913 105.2487190  97.7240520  41.0713386 105.8192828
  83.0488588  32.2827160 114.0676897  82.5042056  33.0586968 114.1997171
  83.9267938  32.6297964 113.9096018  89.8376205  25.6138744 106.4457695
  89.9592116  24.6855390 106.6448583  89.5478247  25.6277430 105.5336011
  92.7067395  23.2993654 109.5824415  92.7289092  23.3632987 108.6276395
  93.1235454  22.4598163 109.7764921 103.0851020  33.0348914 107.6203638
 103.5282166  32.2856239 107.2222761 102.2077530  33.0259050 107.2377370
  98.2186801  39.5879255 103.1010236  98.9137706  40.2085948 103.3197551
  98.5609951  38.7374607 103.3762614  83.8354610  31.4097056 116.9607054
  83.0936346  31.5579692 117.5471684  83.5147354  31.6705322 116.0973803
 100.1178224  37.0378961 104.6297567 100.6429548  37.3766234 103.9046887
 100.0300577  36.1025976 104.4460702  91.7798273  40.9513035 116.7587444
  92.0885399  40.7062181 117.6310143  92.5773755  41.1559673 116.2706314
  91.8018885  43.1050944 108.9892820  91.3623875  42.6127323 109.6825677
  92.5527002  42.5623912 108.7484895  84.2811224  39.2962485 108.9917448
  85.1069244  38.9966257 108.6116092  83.9305276  38.5270107 109.4407237
  89.2492757  38.6488953 111.0615122  88.6272766  37.9859658 110.7617350
  89.9197624  38.6750085 110.3788770  82.4819829  37.2148811 109.9506382
  81.6451737  36.7870986 109.7690383  82.4543474  37.4081255 110.8877173
  89.3217285  27.1270741 120.6547628  89.3705440  28.0032864 120.2725397
  89.8639799  26.5848134 120.0819271  99.8072130  37.6711865 119.9348765
  99.0167674  37.6536003 119.3953264  99.5705485  38.2100158 120.6897801
  99.9270005  34.5204331 117.2481493  99.9768010  34.3554338 118.1897016
  99.8183929  33.6531590 116.8579374  88.8106264  37.1992877 104.5373582
  88.9594384  37.8828341 103.8840255  89.6172707  37.1797967 105.0523038
  97.2173768  30.5035259 118.5640800  98.1183630  30.3641724 118.2724798
  97.2921742  30.6689714 119.5038978  91.5516573  27.8802114 117.4093986
  90.6819882  28.1735680 117.1376575  91.7876053  28.4642559 118.1301250
 101.4288202  36.9401272 117.4923515 101.1373010  37.3031253 118.3286976
 100.8160333  36.2268281 117.3136847 102.6283884  34.5054152 110.0126085
 103.4630776  34.9443956 110.1763646 102.7643013  34.0292805 109.1934331
  99.6775390  32.0633887 115.9603573 100.1529512  32.2561533 115.1522424
  98.7540956  32.1193073 115.7146957  86.5658897  33.2258054 105.5434651
  86.3204939  32.3220384 105.7414861  86.7354811  33.2275205 104.6014129
  94.2555607  24.0981731 114.9259407  94.7737551  24.8342758 114.6005895
  93.9010740  24.4045724 115.7606166  85.8354544  28.9586412 103.0420813
  85.1423789  29.0330767 102.3860849  85.5906296  28.1946755 103.5642330
  94.5068201  20.5182013 110.4460303  94.7869955  19.8505202 111.0720730
  95.2918808  20.7111109 109.9334967  92.3101669  39.6941007 102.0085330
  91.7375637  40.3131194 101.5555802  92.8834463  40.2440369 102.5425252
  98.3777059  28.9399647 114.1931879  99.3294482  29.0397745 114.2144103
  98.2080510  28.1477916 114.7029963  96.3991439  26.0255230 114.3791279
  95.8041371  26.3060243 113.6837768  96.1141135  26.5149131 115.1508021
  95.5298929  39.9778157 103.1393912  96.4629602  39.9123719 103.3426788
  95.4422142  40.8134424 102.6808445  98.1586946  39.2944028 100.0997860
  98.0800577  38.9603891 100.9933617  98.9796613  39.7865795 100.0989332
 100.8565137  32.1605767 113.3074178 100.8241457  31.2221768 113.4933862
 101.4665761  32.2389804 112.5740003  92.6948468  31.0301820  99.3501382
  93.6407573  30.9008028  99.4189800  92.3162713  30.2916482  99.8270810
 101.0059626  28.9516810 113.3532461 100.4898674  28.1675267 113.1662390
 101.8899574  28.6235527 113.5178981  98.6670353  22.6957826 109.3128274
  98.4695174  22.3872914 110.1971606  99.2770058  23.4219465 109.4426204
 106.6741687  33.2221774 112.4480215 107.4045075  32.9607062 113.0087918
 106.0648632  32.4850496 112.4882283 104.7556984  31.3629636 113.0454666
 104.0290148  31.2285601 112.4371158 104.3404271  31.6706465 113.8511384
  92.5787160  35.0819566 120.8102039  93.4990170  35.2598165 121.0042086
  92.5436744  34.1375611 120.6581738  90.8791385  28.9551796  99.2856267
  89.9722841  28.6584909  99.3618981  91.1567366  28.6581614  98.4190554
  81.7969325  30.2758160 109.7355314  81.4772110  29.4223468 109.4429688
  81.2502754  30.4906738 110.4913281  85.5749233  32.9920601 113.4524820
  85.7935243  33.9237708 113.4712854  85.9875007  32.6328575 114.2379624
  92.4953451  23.4988686 105.4400509  91.6854179  23.1535771 105.8155755
  93.1837868  23.1896230 106.0288120  94.4243999  22.5766733 107.0624805
  94.9775038  22.9962186 107.7214828  94.6614085  21.6502481 107.1047761
  90.4477098  28.5653806 122.8427569  90.3473825  29.5148163 122.7739660
  90.2298640  28.2372045 121.9703639  89.6490170  25.8138731  99.4268247
  90.5109334  26.1393630  99.6864064  89.8340514  25.0270227  98.9141312
  81.6657585  33.8961071 111.7048435  80.9721057  33.4815024 111.1918390
  82.4130577  33.9381608 111.1081854  97.8022806  24.6867258 106.5703470
  97.2221475  25.3452062 106.1881522  97.5358739  23.8644602 106.1590887
  96.2526373  24.0872316 108.7724790  96.7526151  24.1988850 107.9639109
  96.8961981  23.7833368 109.4125598  90.3108368  31.9950945 121.6592631
  89.8275450  32.7951305 121.8656520  90.3969307  32.0058890 120.7060075
  83.5794328  33.8279325 109.5814450  83.5565016  33.9267012 108.6296333
  83.8894965  34.6744476 109.9031616  86.2381706  35.8855480 113.6961065
  87.1924959  35.8539422 113.6290996  86.0394229  35.4246104 114.5111291
  86.8281088  34.4556596 116.2631862  87.6473977  34.9500675 116.2866700
  87.1017896  33.5388564 116.2349430  96.5847684  26.8467348 105.6259818
  95.6973539  27.1316999 105.4080013  97.0001673  26.6861112 104.7787095
  99.9362220  26.8713869 109.3414157 100.7122610  27.3610322 109.6138774
  99.2110355  27.2971923 109.7986027 102.3734779  27.5841488 110.3988098
 102.9679270  27.3437224 109.6881406 102.4461363  26.8648619 111.0261634
  84.5931935  41.4275099 110.7131263  84.4586403  40.6675500 110.1469261
  84.1763997  42.1515999 110.2460051  95.7290898  36.6112023  99.7207838
  96.4326748  36.8162025 100.3365493  95.0053546  37.1788785  99.9856921
  96.5588708  32.3621884 105.8410108  96.5023909  32.8190436 105.0017740
  97.1117050  31.6012569 105.6632951 100.3693514  28.1511616 106.6660228
 100.1130448  27.7508252 107.4968435  99.7446382  28.8655410 106.5410367
 104.6805852  30.8907689 109.1731519 104.1205410  30.9600879 109.9463081
 104.0749355  30.7148674 108.4531015  87.7501061  42.3244416 110.9249705
  87.6333445  43.2689849 110.8228396  86.9293507  42.0217978 111.3135504
  97.6377595  37.0494552 101.7706298  98.4723199  36.6175751 101.5883773
  97.4761938  36.8776566 102.6983192  97.2923487  33.5526665 103.1362637
  97.2372291  33.3870937 102.1951081  96.6669543  34.2602698 103.2924827
  82.0816002  28.7894730 116.9624059  82.7274866  28.2793684 117.4511285
  81.8733153  29.5263411 117.5367485  94.6069394  35.8575577 122.4616200
  95.4760554  36.0316230 122.1002835  94.1276146  36.6769994 122.3391929
  90.6019613  23.0534774 102.7147956  90.5898283  23.9976614 102.8716226
  91.4943035  22.8704920 102.4207417  88.7755575  42.9772678 114.1405634
  89.6782821  43.0096289 114.4572129  88.5492945  42.0473129 114.1551969
  90.5309177  41.7303665 110.8015712  89.5804808  41.7305526 110.6880085
  90.8341663  40.9836399 110.2851747  94.4171732  19.6477551 106.9693892
  93.6504128  19.0936038 107.1150575  94.8282437  19.7199420 107.8308044
  86.4213493  25.9362347 121.0599074  87.2844955  25.5799152 121.2702398
  85.8478904  25.5976242 121.7474478 106.2661870  47.5664203 111.8661475
 106.9040280  47.4470951 111.1624815 106.1482713  48.5145047 111.9249427
 103.0751576  47.5191631 111.8022999 102.7370088  47.4032696 110.9143534
 103.9441345  47.1182796 111.7824006  98.9338392  49.3727108 107.7919890
  98.3703257  49.2817045 107.0236178  98.8190787  48.5527012 108.2722383
 103.5571359  48.6726483 117.7609205 103.5460000  48.2779281 116.8889709
 103.7191999  47.9392556 118.3542976  96.4802824  50.8678299 110.6304111
  97.2724116  50.5269124 110.2150410  96.7199474  50.9773274 111.5506264
 104.5137951  53.0398075 103.1034355 103.8625931  53.6252156 102.7168369
 105.3082314  53.5704270 103.1629393  98.4393578  50.1287213 103.5021490
  99.2124454  49.5816200 103.3634365  98.7918977  50.9931462 103.7135951
 100.2778621  51.4563595 116.7088389  99.9868487  52.3609226 116.5935055
 100.9135605  51.4980122 117.4232458 101.2034827  48.8340443 113.2989749
 101.7998400  48.6096466 112.5846711 101.2609799  48.0925189 113.9015196
 100.7759856  46.2879879 101.1339939 101.0285377  45.7661400 100.3723402
  99.8384415  46.1246024 101.2366623 105.8203139  45.2915657 108.9414683
 106.6066228  44.8735080 108.5905100 106.0841843  46.1961749 109.1096331
 105.9913216  50.7288507 103.6403340 105.3559049  50.8023134 104.3524244
 105.6610622  51.3182106 102.9622419 111.2211566  45.2290890 109.8447661
 111.9536738  44.6590107 110.0785491 110.4650922  44.8412491 110.2854167
 100.4956145  48.1907985 103.3364314 100.3792403  47.5152888 104.0045399
 100.6058405  47.7040359 102.5196468 102.8387686  47.6518132 107.0411004
 102.4745893  47.1248753 107.7523925 103.6954801  47.2616601 106.8677489
 108.7436986  38.9412464 114.3042270 108.4120311  39.8107875 114.0803485
 108.1482600  38.6248748 114.9836300 102.4793173  42.6808031 102.0372352
 102.6467575  43.5488268 102.4042823 102.2890342  42.8435313 101.1133641
 105.2368506  51.1425010 113.7038183 104.9369229  52.0450049 113.5953990
 104.8919565  50.8757194 114.5559335  98.6880987  47.5938807 109.7374887
  97.7631484  47.4615021 109.9452579  98.9365400  48.3733026 110.2344829
 108.6365649  43.6607551 111.3835620 107.7282527  43.5922959 111.0894381
 108.5853245  44.1379495 112.2117445 102.4582393  45.1365689 103.0219019
 102.3382019  45.5822740 103.8604499 101.7634982  45.4851007 102.4632557
  96.0489798  47.2372081 110.5718676  96.1782179  47.4906560 111.4858088
  95.3687250  47.8299789 110.2523331 100.2189286  57.9069331 106.6709150
 100.1413315  58.8577156 106.7497631  99.6150929  57.5615203 107.3284077
 102.7106515  45.0797196 119.3270517 101.9339849  45.6391116 119.3173382
 103.3497078  45.5653979 119.8485387 110.5027296  41.8623989 113.1613494
 109.8601676  42.1556522 112.5153288 109.9982224  41.7476909 113.9666690
 108.1567460  45.6087162 103.8499353 109.0685316  45.8414549 103.6747051
 107.6477107  46.1924206 103.2874432 100.9652888  47.8882649 118.8888484
 101.7067572  48.4267693 118.6123308 100.2589873  48.5148938 119.0460036
 106.4408227  50.0311790 117.4860646 106.8491583  49.5894200 116.7415278
 105.7185489  49.4564417 117.7394839 102.7939297  44.9684397 114.8594203
 103.6400492  45.3923810 115.0028852 102.7337935  44.3118021 115.5532766
 106.7637042  50.5912981 111.2412935 106.1345904  50.7558695 110.5389002
 106.3762704  51.0054590 112.0123899 110.6426274  51.5267418 108.5957298
 109.9577312  51.9066320 108.0454332 110.7270123  52.1362745 109.3289246
 105.9438743  42.6288765 116.5175376 105.6999674  43.3830826 115.9809652
 106.2198673  43.0074113 117.3522623 107.8977205  49.1727377 115.1952642
 108.1094101  49.8159137 114.5187023 107.8506954  48.3389694 114.7274572
 105.5003434  41.7845198 112.0989214 104.6387913  42.0826452 112.3905952
 105.5265869  42.0015597 111.1670247 102.3165004  50.3287389 108.5063020
 102.7803349  50.6075092 107.7167642 102.0521802  49.4270833 108.3236110
  99.2089085  49.8758870 111.4442783  99.7790442  50.3046139 110.8060267
  99.7997197  49.5941455 112.1426969 101.2533890  46.4510541 105.3152585
 101.9557933  46.9031585 105.7826511 100.9214518  45.8094360 105.9432478
  99.7014251  45.0422298 119.6903794  99.0712912  45.7238579 119.9239191
  99.5950339  44.9305379 118.7456932  94.9959224  44.7094094 110.6169718
  94.2058278  44.9651622 110.1409829  95.4870471  45.5242432 110.7221759
 109.0123033  52.0499333 113.3674999 109.8340477  51.6479520 113.0857681
 109.0085436  51.9467567 114.3191115  96.9473969  45.0738673 107.5753195
  96.1505132  45.1857367 108.0936691  96.7199561  45.4125325 106.7094086
 102.7779637  51.5983376 115.5235710 102.8424069  52.0603783 116.3593882
 102.0690561  50.9680741 115.6518020  93.2796927  44.9624584 113.0484709
  93.5304965  45.8471594 113.3142285  93.8156475  44.7829186 112.2759801
 117.1029026  48.3938081 109.7159971 116.3492735  47.8245479 109.5603975
 117.2376568  48.3600746 110.6630605 102.4927654  53.2651484 105.3914690
 102.3573329  54.1103019 105.8199538 103.0337467  53.4670761 104.6280624
  98.9794994  39.3443064 122.0529045  98.5861940  38.7909262 122.7276689
  99.7961134  39.6553642 122.4435563  95.9457052  50.7826922 105.9642615
  96.4581572  51.5770172 106.1148180  96.5979765  50.0853212 105.8976217
  97.7551937  53.8992678 108.0465368  97.9318565  54.8210643 107.8586352
  98.5508770  53.5851097 108.4759748 101.8962955  40.7600943 119.6449302
 102.6372668  41.3608096 119.5653764 102.1280878  40.0178580 119.0867344
  97.0404293  45.9457310 117.9227531  96.9257808  45.0442567 118.2234630
  96.1848811  46.1921007 117.5712348 104.1196131  53.8875050 119.5215032
 103.6759985  53.1011429 119.2035937 104.7813344  54.0754201 118.8558923
  98.8783252  55.4170852 114.0475711  99.4290677  55.2887915 113.2752705
  98.0394728  55.7165741 113.6970603 106.2177369  54.1677850 117.5496433
 106.1995844  54.9886731 117.0576703 107.1397289  54.0431925 117.7746575
 102.6750423  51.6821980 118.3919942 103.2078760  50.9210268 118.1619250
 102.1464504  51.3895631 119.1344096 105.8420118  36.7882046 113.9213583
 105.4984387  37.6783687 113.8452694 106.2099081  36.5983703 113.0583168
  93.9105969  49.1115576 106.7402186  94.7481191  49.5212584 106.5235893
  94.0884236  48.1715018 106.7102379 105.8070401  46.7790657 102.4286019
 105.2917024  47.5495261 102.6674406 105.5347709  46.1055793 103.0519080
 103.3917512  41.6240357 107.4871257 102.5359108  41.2347208 107.3076896
 103.8044464  41.7032318 106.6271042 104.9216658  39.1586701 111.8862817
 104.4181454  39.1216836 111.0730622 105.2147265  40.0679443 111.9459473
 101.1659544  39.2425430 110.8928998 102.0312541  39.0468239 110.5334888
 101.2337053  39.0135782 111.8198355 110.7804675  49.5323011 104.3639192
 110.0034118  49.1934171 103.9194354 111.4596156  49.5375634 103.6894157
 105.5956704  44.6517749 104.2545800 105.2906839  44.9663898 105.1055943
 106.5487146  44.7299169 104.2973133 104.0403136  50.8107972 105.9038754
 103.5124497  50.0760732 105.5911991 103.5390638  51.5882648 105.6578722
 109.0195982  49.0056993 111.0205800 108.3619656  49.6956254 111.1085929
 109.8236381  49.3953424 111.3639786  98.7721863  41.4727638 108.2645365
  99.3465615  41.2502820 107.5318558  99.3592846  41.5416333 109.0173967
 107.8301441  47.3601365 109.0709742 108.3433322  47.9931357 109.5731452
 108.4802664  46.7602561 108.7053102  99.0991450  43.5032099 102.2841251
  98.2628763  43.8406786 102.6050525  98.9596220  43.3681079 101.3468387
 101.0744531  38.3468887 106.9920435 100.4208943  38.0317904 106.3677049
 101.0325005  37.7244628 107.7180258 102.1855736  48.6288182  98.9073727
 101.2782798  48.3977436  99.1064876 102.6826768  47.8325802  99.0947708
 105.0923815  57.3385690 101.8270413 104.4185514  57.6417386 102.4355371
 105.4789637  58.1414770 101.4775870 104.3082271  44.8350821 111.3168082
 103.3904833  45.0565768 111.1589770 104.7242415  44.9097131 110.4579790
 105.0917319  46.2342236 106.4470763 105.8389138  46.7463634 106.1377885
 105.3608909  45.9126289 107.3075156 103.3643969  48.7300777 103.4297717
 102.4555189  48.4459810 103.5270187 103.3939053  49.1499856 102.5701024
 108.5963237  52.3407367 107.1988884 108.1425564  51.4998277 107.2554075
 107.9657203  52.9768765 107.5363665 107.5396156  43.2699353 108.4289552
 106.8018913  42.7576739 108.7599794 107.7922930  42.8299734 107.6172829
 107.0396176  54.1783863 108.1338703 107.3319150  54.7388920 107.4151068
 107.5494797  54.4712424 108.8891862 107.6407784  36.0475605 109.0231321
 107.9466660  35.1872968 108.7357236 108.3660388  36.6393225 108.8230315
  93.9332140  46.4506291 107.4112919  93.7356540  45.8575652 106.6863986
  93.3778804  46.1458502 108.1288858 101.9128863  46.3429398 109.5307512
 101.9677473  45.3903234 109.4549989 101.1020065  46.4988837 110.0148811
 103.0620057  50.2709521 100.7685795 102.6239487  49.5545380 100.3091433
 103.8030498  50.4985636 100.2070887  99.8521223  44.9606458 107.2897891
  99.0389089  45.2600628 107.6963083 100.3480217  44.5662146 108.0072373
 102.0029801  54.9564214 109.2232156 101.9605980  55.1825061 108.2940688
 102.9192500  54.7227589 109.3717957 105.4495435  45.4248282 116.1212785
 105.8044823  45.6519755 116.9807251 106.0967566  45.7566659 115.4990040
 111.1793172  48.5466718 106.8262114 111.0411071  48.7368314 105.8983303
 110.8229391  49.3086101 107.2830165  99.3435298  42.5324813 112.9059126
  99.9834677  42.3913572 112.2082089  98.5112829  42.2459326 112.5297728
 111.2062552  50.6143245 111.8373386 111.6399058  50.5218534 112.6856440
 111.9194132  50.5900745 111.1993402 100.1195602  51.8327243 109.0194118
 100.9136200  51.3377564 108.8176693  99.4087294  51.3045107 108.6561824
 104.9390446  54.2145339 113.3706486 104.9927469  54.7836275 114.1384202
 104.0705228  54.3847224 113.0060523  96.4278365  45.9770325 105.0953871
  95.4975954  45.9154781 105.3123833  96.5235837  45.4546278 104.2990512
  96.3463914  42.5025138 107.6832113  96.6070732  43.4170471 107.5741273
  97.1681087  42.0349581 107.8328726  97.8188840  43.9162895 114.8530937
  98.4911893  43.7080257 114.2043586  96.9918626  43.7184981 114.4136170
 112.0678101  50.6566946 114.3706271 112.2613991  51.5612756 114.6165546
 111.9678719  50.1974365 115.2044856 103.7214412  40.5424836 116.8696598
 103.0742327  41.2414786 116.7761075 104.4915427  40.9760980 117.2372846
 107.1293210  50.8073688 119.9447152 106.9778716  50.5784240 119.0277235
 107.1197889  51.7644290 119.9578497 103.8978546  48.3805601 114.9293418
 104.8270606  48.5316761 114.7562385 103.4769576  48.4689622 114.0742064
 102.6966878  52.4056265 112.6991956 102.5577964  52.0375050 113.5717894
 101.9081474  52.9203905 112.5275913 103.2915030  57.5065362 104.0417492
 103.4666786  57.0353405 104.8563115 102.6047818  58.1331128 104.2698753
 104.2472093  51.7837868 110.0880793 103.9121926  51.7438638 110.9838443
 103.7476039  51.1182584 109.6151204  98.2216337  47.1905498 115.6133375
  98.0836135  46.4585737 116.2144914  99.1321261  47.1014398 115.3317562
 107.1831285  49.1293903 100.3617853 106.5660455  48.4040731 100.2650906
 106.7147773  49.8903263 100.0184927 100.8498638  46.9025458 115.1017054
 101.5598256  46.2618650 115.0603673 100.8067946  47.1538352 116.0243235
 108.8385416  53.8392811 118.0223633 108.7797963  53.1552031 117.3554216
 109.2404935  54.5811801 117.5704259  99.5627572  43.8890675 116.9212694
  99.0264929  43.4381414 117.5734290  98.9744280  44.0236584 116.1783158
  97.8576115  60.6554725 110.8157352  98.0972713  61.2873249 111.4936371
  97.0145312  60.3042765 111.1022712  98.9729831  43.3479327  99.4839157
  98.0959297  43.2268128  99.1201404  99.4487584  42.5565405  99.2318046
 108.8402824  51.8032395 116.2537613 107.9529602  51.4658317 116.3764012
 109.4101375  51.0715426 116.4906378  90.4931971  48.1356487 109.5780664
  91.1803011  47.8218217 108.9901680  90.3380099  49.0397851 109.3047916
  95.2966693  43.0246683 114.0065688  95.2124882  42.4172353 113.2716098
  94.4749399  43.5155701 114.0075184 102.3703977  56.4633847 113.2198856
 102.2974149  57.2688819 113.7318161 101.9281370  56.6625813 112.3946878
 102.1593757  55.7005617 106.7301678 101.3761279  56.2427297 106.8239902
 102.8586502  56.2179597 107.1295919 105.4690407  41.5100247 109.3735883
 105.9659106  40.7570209 109.0536953 104.6977388  41.5464563 108.8079093
 113.3220164  47.2140612 111.0154175 113.3110040  48.0965328 110.6448108
 112.4537544  46.8612163 110.8208712 104.8302661  56.3620681 115.3757015
 105.5430633  56.9968146 115.3032916 104.3392689  56.4584547 114.5597017
 106.5520188  50.2671934 106.9474307 105.6176466  50.3873396 106.7779011
 106.7296856  49.3644401 106.6834316 102.0525376  43.6517630 109.1007568
 101.6823163  43.0988670 109.7888473 102.5484468  43.0475763 108.5482568
 109.9392739  46.1089253 107.4824341 110.4053191  46.9417245 107.4084643
 110.3900239  45.6434235 108.1869599  99.8814574  54.1115125 116.1962586
 100.5824034  54.7451608 116.3491980  99.4109689  54.4529856 115.4358225
 108.0068970  52.4533074 104.4810493 108.2828814  52.3389669 105.3904367
 107.1373469  52.0550559 104.4422666 107.9109402  38.4769840 111.5215242
 106.9972481  38.7074067 111.6897449 108.3402503  38.5608284 112.3729274
 107.6815860  46.6659732 114.0215136 107.0287310  46.9135640 113.3667589
 108.0596240  45.8523870 113.6877613 104.6423034  56.7019425 108.1243306
 104.8245429  55.8841081 108.5871059 105.4656020  56.9187118 107.6868196
 104.9765199  55.6287610 105.3858355 105.5052966  55.1180065 104.7728517
 105.2393419  55.3130141 106.2503888 103.7303433  47.4079543 120.5081173
 103.0544070  47.3073672 121.1783548 104.5531067  47.2518757 120.9717170
  95.4782292  53.6451480 113.1293688  96.0635729  52.8995168 113.2621593
  95.2807131  53.9555436 114.0130352  98.3320947  56.6802727 108.1456131
  97.6631323  57.1648855 107.6620171  98.1933817  56.9271948 109.0599509
  90.0699947  46.2157080 111.8498132  90.1084046  45.6820671 112.6435250
  89.5640240  45.6892285 111.2309109 102.4726216  58.7146471 114.7438789
 103.0244524  58.8778092 115.5087874 102.8132409  59.3050908 114.0718814
  97.4490709  41.0621620 115.3460674  97.5132036  41.9236451 114.9338072
  97.3857829  40.4495622 114.6133032  96.9242982  43.1344753 118.9933708
  97.5515021  42.7521830 119.6071232  96.0670901  42.9158955 119.3589401
 107.3237090  53.5407728 120.5987444 107.8676994  54.1537686 120.1042398
 106.7423935  54.0987307 121.1154457  93.7008525  44.9421182 104.9252063
  93.9961966  44.0331860 104.8719117  92.7996560  44.9208922 104.6033065
 105.6094603  56.6628446 111.7302471 105.4845743  55.8618186 111.2213417
 106.2673694  57.1574639 111.2416441  97.2302772  43.0177179 110.9079612
  96.5089357  43.6313146 110.7687085  98.0196027  43.5534943 110.8296258
 107.6729512  54.4637466 113.3582021 106.7259847  54.3442817 113.2860348
 108.0212285  53.5759964 113.4408283 100.0329085  40.3531605 117.1820263
 100.5563487  40.5993902 117.9446573  99.8141418  41.1851640 116.7623401
  95.4296366  42.6235280 105.0491388  95.1009072  41.7432659 104.8666494
  95.7835737  42.5682948 105.9367777 104.6775945  54.2590182 109.5586374
 104.5300907  53.3306890 109.7393944 105.5029438  54.2810273 109.0743449
  98.5438189  42.9108250 105.4166866  98.8834262  43.4394171 104.6945474
  98.9910310  43.2488656 106.1925432 108.2810067  55.0818741 110.6451246
 109.2056614  54.8761603 110.5075698 108.1125370  54.8335142 111.5540588
 101.2381630  41.2945300 114.8669934 100.8978450  40.4953113 115.2690614
 100.5320636  41.5947011 114.2946767 101.8898102  38.3794613 113.3197257
 102.7124171  37.9055091 113.1976147 102.1336165  39.1585096 113.8195943
 100.5306336  41.4082871 103.6160159 101.2514699  41.7864124 103.1123875
  99.9071641  42.1271748 103.7195137 104.6737459  42.1128020 104.5518491
 104.8901074  42.9952658 104.2507319 104.1931526  41.7214233 103.8224133
  99.4136681  45.0713733 111.1289235  99.2681261  45.3854036 112.0213517
  98.9361884  45.6898634 110.5760134 101.2733064  42.0616281 111.1770125
 101.2594632  41.1657375 110.8402423 101.9905492  42.0686945 111.8108411
 103.1259194  42.4953621 113.2223252 102.8676972  43.4170692 113.2207583
 102.5944235  42.0984056 113.9123717 108.0705383  55.6004409 106.0013338
 108.2442261  55.0350831 105.2487190 108.5634274  56.4005303 105.8192828
  93.8882343  47.6119078 114.0676897  93.3435811  48.3878886 114.1997171
  94.7661693  47.9589882 113.9096018 100.6769959  40.9430662 106.4457695
 100.7985871  40.0147308 106.6448583 100.3872002  40.9569348 105.5336011
 103.5461150  38.6285572 109.5824415 103.5682847  38.6924905 108.6276395
 103.9629209  37.7890081 109.7764921 113.9244774  48.3640832 107.6203638
 114.3675920  47.6148157 107.2222761 113.0471284  48.3550968 107.2377370
 109.0580556  54.9171173 103.1010236 109.7531460  55.5377866 103.3197551
 109.4003706  54.0666524 103.3762614  94.6748365  46.7388974 116.9607054
  93.9330101  46.8871609 117.5471684  94.3541109  46.9997240 116.0973803
 110.9571979  52.3670879 104.6297567 111.4823303  52.7058151 103.9046887
 110.8694331  51.4317894 104.4460702 102.6192027  56.2804952 116.7587444
 102.9279154  56.0354099 117.6310143 103.4167509  56.4851591 116.2706314
 102.6412639  58.4342862 108.9892820 102.2017630  57.9419241 109.6825677
 103.3920756  57.8915829 108.7484895  95.1204978  54.6254403 108.9917448
  95.9462998  54.3258175 108.6116092  94.7699030  53.8562025 109.4407237
 100.0886512  53.9780871 111.0615122  99.4666521  53.3151576 110.7617350
 100.7591378  54.0042003 110.3788770  93.3213583  52.5440729 109.9506382
  92.4845492  52.1162903 109.7690383  93.2937229  52.7373172 110.8877173
 100.1611039  42.4562659 120.6547628 100.2099194  43.3324782 120.2725397
 100.7033553  41.9140052 120.0819271 110.6465885  53.0003782 119.9348765
 109.8561428  52.9827921 119.3953264 110.4099239  53.5392076 120.6897801
 110.7663760  49.8496249 117.2481493 110.8161765  49.6846256 118.1897016
 110.6577683  48.9823508 116.8579374  99.6500018  52.5284794 104.5373582
  99.7988139  53.2120259 103.8840255 100.4566462  52.5089884 105.0523038
 108.0567522  45.8327177 118.5640800 108.9577385  45.6933641 118.2724798
 108.1315497  45.9981631 119.5038978 102.3910327  43.2094031 117.4093986
 101.5213637  43.5027597 117.1376575 102.6269808  43.7934476 118.1301250
 112.2681957  52.2693190 117.4923515 111.9766765  52.6323171 118.3286976
 111.6554088  51.5560198 117.3136847 113.4677639  49.8346070 110.0126085
 114.3024530  50.2735874 110.1763646 113.6036768  49.3584723 109.1934331
 110.5169145  47.3925805 115.9603573 110.9923266  47.5853451 115.1522424
 109.5934710  47.4484991 115.7146957  97.4052651  48.5549972 105.5434651
  97.1598693  47.6512302 105.7414861  97.5748566  48.5567122 104.6014129
 105.0949361  39.4273648 114.9259407 105.6131305  40.1634675 114.6005895
 104.7404494  39.7337642 115.7606166  96.6748299  44.2878329 103.0420813
  95.9817544  44.3622684 102.3860849  96.4300051  43.5238673 103.5642330
 105.3461955  35.8473931 110.4460303 105.6263709  35.1797120 111.0720730
 106.1312562  36.0403026 109.9334967 103.1495424  55.0232925 102.0085330
 102.5769391  55.6423112 101.5555802 103.7228218  55.5732286 102.5425252
 109.2170814  44.2691565 114.1931879 110.1688237  44.3689662 114.2144103
 109.0474264  43.4769833 114.7029963 107.2385193  41.3547148 114.3791279
 106.6435125  41.6352161 113.6837768 106.9534890  41.8441049 115.1508021
 106.3692684  55.3070075 103.1393912 107.3023357  55.2415637 103.3426788
 106.2815897  56.1426342 102.6808445 108.9980700  54.6235945 100.0997860
 108.9194332  54.2895809 100.9933617 109.8190367  55.1157713 100.0989332
 111.6958892  47.4897684 113.3074178 111.6635212  46.5513685 113.4933862
 112.3059515  47.5681721 112.5740003 103.5342222  46.3593737  99.3501382
 104.4801327  46.2299946  99.4189800 103.1556467  45.6208399  99.8270810
 111.8453380  44.2808728 113.3532461 111.3292429  43.4967185 113.1662390
 112.7293329  43.9527445 113.5178981 109.5064107  38.0249743 109.3128274
 109.3088928  37.7164832 110.1971606 110.1163813  38.7511382 109.4426204
 117.5135441  48.5513691 112.4480215 118.2438830  48.2898979 113.0087918
 116.9042387  47.8142413 112.4882283 115.5950739  46.6921554 113.0454666
 114.8683902  46.5577519 112.4371158 115.1798025  46.9998383 113.8511384
 103.4180915  50.4111484 120.8102039 104.3383924  50.5890083 121.0042086
 103.3830498  49.4667529 120.6581738 101.7185140  44.2843714  99.2856267
 100.8116595  43.9876827  99.3618981 101.9961121  43.9873532  98.4190554
  92.6363080  45.6050077 109.7355314  92.3165864  44.7515385 109.4429688
  92.0896508  45.8198655 110.4913281  96.4142988  48.3212518 113.4524820
  96.6328997  49.2529626 113.4712854  96.8268761  47.9620493 114.2379624
 103.3347205  38.8280604 105.4400509 102.5247934  38.4827689 105.8155755
 104.0231622  38.5188147 106.0288120 105.2637754  37.9058650 107.0624805
 105.8168792  38.3254104 107.7214828 105.5007840  36.9794398 107.1047761
 101.2870853  43.8945724 122.8427569 101.1867580  44.8440081 122.7739660
 101.0692395  43.5663963 121.9703639 100.4883924  41.1430649  99.4268247
 101.3503088  41.4685547  99.6864064 100.6734268  40.3562145  98.9141312
  92.5051340  49.2252989 111.7048435  91.8114811  48.8106942 111.1918390
  93.2524331  49.2673525 111.1081854 108.6416561  40.0159176 106.5703470
 108.0615230  40.6743980 106.1881522 108.3752493  39.1936520 106.1590887
 107.0920127  39.4164233 108.7724790 107.5919905  39.5280768 107.9639109
 107.7355735  39.1125286 109.4125598 101.1502123  47.3242863 121.6592631
 100.6669205  48.1243223 121.8656520 101.2363062  47.3350808 120.7060075
  94.4188083  49.1571243 109.5814450  94.3958771  49.2558930 108.6296333
  94.7288719  50.0036393 109.9031616  97.0775460  51.2147398 113.6961065
  98.0318714  51.1831340 113.6290996  96.8787984  50.7538021 114.5111291
  97.6674843  49.7848514 116.2631862  98.4867732  50.2792592 116.2866700
  97.9411650  48.8680482 116.2349430 107.4241439  42.1759266 105.6259818
 106.5367294  42.4608917 105.4080013 107.8395428  42.0153029 104.7787095
 110.7755975  42.2005787 109.3414157 111.5516365  42.6902239 109.6138774
 110.0504109  42.6263841 109.7986027 113.2128533  42.9133406 110.3988098
 113.8073024  42.6729142 109.6881406 113.2855117  42.1940537 111.0261634
  95.4325689  56.7567017 110.7131263  95.2980157  55.9967418 110.1469261
  95.0157751  57.4807917 110.2460051 106.5684652  51.9403941  99.7207838
 107.2720502  52.1453943 100.3365493 105.8447301  52.5080702  99.9856921
 107.3982462  47.6913802 105.8410108 107.3417664  48.1482353 105.0017740
 107.9510805  46.9304486 105.6632951 111.2087268  43.4803534 106.6660228
 110.9524203  43.0800169 107.4968435 110.5840136  44.1947328 106.5410367
 115.5199606  46.2199607 109.1731519 114.9599164  46.2892796 109.9463081
 114.9143110  46.0440592 108.4531015  98.5894815  57.6536334 110.9249705
  98.4727199  58.5981767 110.8228396  97.7687261  57.3509896 111.3135504
 108.4771350  52.3786470 101.7706298 109.3116954  51.9467668 101.5883773
 108.3155693  52.2068483 102.6983192 108.1317242  48.8818583 103.1362637
 108.0766046  48.7162855 102.1951081 107.5063297  49.5894616 103.2924827
  92.9209757  44.1186647 116.9624059  93.5668620  43.6085601 117.4511285
  92.7126908  44.8555329 117.5367485 105.4463149  51.1867495 122.4616200
 106.3154309  51.3608147 122.1002835 104.9669900  52.0061912 122.3391929
 101.4413367  38.3826692 102.7147956 101.4292037  39.3268532 102.8716226
 102.3336789  38.1996838 102.4207417  99.6149329  58.3064596 114.1405634
 100.5176576  58.3388206 114.4572129  99.3886699  57.3765047 114.1551969
 101.3702931  57.0595582 110.8015712 100.4198562  57.0597444 110.6880085
 101.6735417  56.3128317 110.2851747 105.2565487  34.9769469 106.9693892
 104.4897883  34.4227955 107.1150575 105.6676192  35.0491337 107.8308044
  97.2607248  41.2654265 121.0599074  98.1238709  40.9091069 121.2702398
  96.6872658  40.9268159 121.7474478 117.1055625  62.8956121 111.8661475
 117.7434035  62.7762868 111.1624815 116.9876468  63.8436965 111.9249427
 113.9145331  62.8483549 111.8022999 113.5763842  62.7324614 110.9143534
 114.7835099  62.4474714 111.7824006 109.7732147  64.7019025 107.7919890
 109.2097012  64.6108962 107.0236178 109.6584542  63.8818930 108.2722383
 114.3965114  64.0018401 117.7609205 114.3853755  63.6071199 116.8889709
 114.5585753  63.2684473 118.3542976 107.3196579  66.1970217 110.6304111
 108.1117871  65.8561042 110.2150410 107.5593229  66.3065192 111.5506264
 115.3531705  68.3689993 103.1034355 114.7019685  68.9544074 102.7168369
 116.1476068  68.8996188 103.1629393 109.2787333  65.4579130 103.5021490
 110.0518209  64.9108117 103.3634365 109.6312731  66.3223380 103.7135951
 111.1172375  66.7855513 116.7088389 110.8262241  67.6901143 116.5935055
 111.7529359  66.8272040 117.4232458 112.0428582  64.1632361 113.2989749
 112.6392154  63.9388383 112.5846711 112.1003553  63.4217107 113.9015196
 111.6153610  61.6171796 101.1339939 111.8679131  61.0953318 100.3723402
 110.6778169  61.4537942 101.2366623 116.6596893  60.6207575 108.9414683
 117.4459982  60.2026998 108.5905100 116.9235598  61.5253667 109.1096331
 116.8306971  66.0580425 103.6403340 116.1952804  66.1315052 104.3524244
 116.5004377  66.6474024 102.9622419 122.0605320  60.5582808 109.8447661
 122.7930492  59.9882025 110.0785491 121.3044676  60.1704408 110.2854167
 111.3349899  63.5199902 103.3364314 111.2186157  62.8444806 104.0045399
 111.4452159  63.0332276 102.5196468 113.6781440  62.9810049 107.0411004
 113.3139647  62.4540670 107.7523925 114.5348556  62.5908518 106.8677489
 119.5830741  54.2704382 114.3042270 119.2514065  55.1399793 114.0803485
 118.9876354  53.9540666 114.9836300 113.3186927  58.0099949 102.0372352
 113.4861329  58.8780186 102.4042823 113.1284096  58.1727231 101.1133641
 116.0762260  66.4716928 113.7038183 115.7762983  67.3741967 113.5953990
 115.7313320  66.2049111 114.5559335 109.5274742  62.9230725 109.7374887
 108.6025238  62.7906939 109.9452579 109.7759155  63.7024944 110.2344829
 119.4759404  58.9899468 111.3835620 118.5676281  58.9214877 111.0894381
 119.4247000  59.4671413 112.2117445 113.2976148  60.4657607 103.0219019
 113.1775773  60.9114657 103.8604499 112.6028736  60.8142924 102.4632557
 106.8883553  62.5663998 110.5718676 107.0175934  62.8198477 111.4858088
 106.2081004  63.1591706 110.2523331 111.0583040  73.2361248 106.6709150
 110.9807070  74.1869073 106.7497631 110.4544684  72.8907121 107.3284077
 113.5500270  60.4089114 119.3270517 112.7733604  60.9683034 119.3173382
 114.1890833  60.8945897 119.8485387 121.3421050  57.1915907 113.1613494
 120.6995431  57.4848440 112.5153288 120.8375979  57.0768827 113.9666690
 118.9961214  60.9379080 103.8499353 119.9079070  61.1706467 103.6747051
 118.4870861  61.5216124 103.2874432 111.8046642  63.2174567 118.8888484
 112.5461326  63.7559611 118.6123308 111.0983628  63.8440856 119.0460036
 117.2801982  65.3603708 117.4860646 117.6885338  64.9186118 116.7415278
 116.5579243  64.7856335 117.7394839 113.6333052  60.2976314 114.8594203
 114.4794247  60.7215728 115.0028852 113.5731689  59.6409939 115.5532766
 117.6030796  65.9204898 111.2412935 116.9739659  66.0850612 110.5389002
 117.2156458  66.3346508 112.0123899 121.4820028  66.8559336 108.5957298
 120.7971066  67.2358237 108.0454332 121.5663878  67.4654663 109.3289246
 116.7832497  57.9580683 116.5175376 116.5393429  58.7122743 115.9809652
 117.0592428  58.3366030 117.3522623 118.7370960  64.5019295 115.1952642
 118.9487855  65.1451055 114.5187023 118.6900708  63.6681612 114.7274572
 116.3397189  57.1137116 112.0989214 115.4781668  57.4118369 112.3905952
 116.3659623  57.3307515 111.1670247 113.1558758  65.6579306 108.5063020
 113.6197104  65.9367009 107.7167642 112.8915556  64.7562751 108.3236110
 110.0482839  65.2050788 111.4442783 110.6184196  65.6338056 110.8060267
 110.6390951  64.9233373 112.1426969 112.0927644  61.7802459 105.3152585
 112.7951688  62.2323502 105.7826511 111.7608273  61.1386278 105.9432478
 110.5408006  60.3714215 119.6903794 109.9106666  61.0530496 119.9239191
 110.4344094  60.2597297 118.7456932 105.8352978  60.0386011 110.6169718
 105.0452032  60.2943540 110.1409829 106.3264226  60.8534349 110.7221759
 119.8516788  67.3791251 113.3674999 120.6734232  66.9771438 113.0857681
 119.8479191  67.2759485 114.3191115 107.7867724  60.4030591 107.5753195
 106.9898887  60.5149285 108.0936691 107.5593316  60.7417243 106.7094086
 113.6173391  66.9275294 115.5235710 113.6817824  67.3895701 116.3593882
 112.9084315  66.2972659 115.6518020 104.1190681  60.2916502 113.0484709
 104.3698720  61.1763512 113.3142285 104.6550230  60.1121103 112.2759801
 127.9422781  63.7229999 109.7159971 127.1886489  63.1537397 109.5603975
 128.0770322  63.6892664 110.6630605 113.3321409  68.5943401 105.3914690
 113.1967084  69.4394937 105.8199538 113.8731221  68.7962679 104.6280624
 109.8188749  54.6734981 122.0529045 109.4255694  54.1201180 122.7276689
 110.6354889  54.9845560 122.4435563 106.7850806  66.1118839 105.9642615
 107.2975327  66.9062090 106.1148180 107.4373519  65.4145130 105.8976217
 108.5945691  69.2284596 108.0465368 108.7712319  70.1502560 107.8586352
 109.3902525  68.9143015 108.4759748 112.7356710  56.0892860 119.6449302
 113.4766423  56.6900013 119.5653764 112.9674632  55.3470498 119.0867344
 107.8798048  61.2749228 117.9227531 107.7651563  60.3734485 118.2234630
 107.0242565  61.5212924 117.5712348 114.9589885  69.2166968 119.5215032
 114.5153739  68.4303346 119.2035937 115.6207099  69.4046118 118.8558923
 109.7177006  70.7462769 114.0475711 110.2684432  70.6179833 113.2752705
 108.8788482  71.0457658 113.6970603 117.0571123  69.4969768 117.5496433
 117.0389599  70.3178649 117.0576703 117.9791043  69.3723843 117.7746575
 113.5144178  67.0113897 118.3919942 114.0472514  66.2502185 118.1619250
 112.9858259  66.7187549 119.1344096 116.6813872  52.1173963 113.9213583
 116.3378142  53.0075605 113.8452694 117.0492835  51.9275621 113.0583168
 104.7499723  64.4407494 106.7402186 105.5874945  64.8504502 106.5235893
 104.9277991  63.5006936 106.7102379 116.6464155  62.1082574 102.4286019
 116.1310779  62.8787179 102.6674406 116.3741464  61.4347710 103.0519080
 114.2311266  56.9532275 107.4871257 113.3752863  56.5639126 107.3076896
 114.6438218  57.0324236 106.6271042 115.7610413  54.4878618 111.8862817
 115.2575208  54.4508754 111.0730622 116.0541020  55.3971361 111.9459473
 112.0053299  54.5717348 110.8928998 112.8706296  54.3760157 110.5334888
 112.0730808  54.3427700 111.8198355 121.6198429  64.8614929 104.3639192
 120.8427872  64.5226088 103.9194354 122.2989910  64.8667552 103.6894157
 116.4350458  59.9809666 104.2545800 116.1300594  60.2955816 105.1055943
 117.3880900  60.0591086 104.2973133 114.8796890  66.1399890 105.9038754
 114.3518252  65.4052649 105.5911991 114.3784393  66.9174566 105.6578722
 119.8589736  64.3348910 111.0205800 119.2013411  65.0248172 111.1085929
 120.6630135  64.7245342 111.3639786 109.6115618  56.8019556 108.2645365
 110.1859370  56.5794738 107.5318558 110.1986600  56.8708251 109.0173967
 118.6695195  62.6893283 109.0709742 119.1827077  63.3223275 109.5731452
 119.3196419  62.0894478 108.7053102 109.9385205  58.8324017 102.2841251
 109.1022517  59.1698704 102.6050525 109.7989975  58.6972997 101.3468387
 111.9138286  53.6760805 106.9920435 111.2602698  53.3609822 106.3677049
 111.8718760  53.0536545 107.7180258 113.0249490  63.9580100  98.9073727
 112.1176552  63.7269353  99.1064876 113.5220522  63.1617719  99.0947708
 115.9317569  72.6677607 101.8270413 115.2579268  72.9709304 102.4355371
 116.3183391  73.4706688 101.4775870 115.1476026  60.1642738 111.3168082
 114.2298587  60.3857685 111.1589770 115.5636170  60.2389049 110.4579790
 115.9311074  61.5634154 106.4470763 116.6782893  62.0755551 106.1377885
 116.2002663  61.2418207 107.3075156 114.2037724  64.0592695 103.4297717
 113.2948943  63.7751728 103.5270187 114.2332808  64.4791773 102.5701024
 119.4356991  67.6699284 107.1988884 118.9819318  66.8290194 107.2554075
 118.8050958  68.3060683 107.5363665 118.3789911  58.5991270 108.4289552
 117.6412668  58.0868657 108.7599794 118.6316684  58.1591652 107.6172829
 117.8789930  69.5075781 108.1338703 118.1712905  70.0680838 107.4151068
 118.3888551  69.8004342 108.8891862 118.4801538  51.3767522 109.0231321
 118.7860415  50.5164886 108.7357236 119.2054143  51.9685143 108.8230315
 104.7725894  61.7798209 107.4112919 104.5750294  61.1867570 106.6863986
 104.2172558  61.4750419 108.1288858 112.7522618  61.6721315 109.5307512
 112.8071228  60.7195152 109.4549989 111.9413820  61.8280755 110.0148811
 113.9013812  65.6001439 100.7685795 113.4633242  64.8837297 100.3091433
 114.6424252  65.8277553 100.2070887 110.6914978  60.2898375 107.2897891
 109.8782843  60.5892546 107.6963083 111.1873972  59.8954064 108.0072373
 112.8423556  70.2856132 109.2232156 112.7999734  70.5116978 108.2940688
 113.7586255  70.0519507 109.3717957 116.2889189  60.7540200 116.1212785
 116.6438577  60.9811673 116.9807251 116.9361321  61.0858576 115.4990040
 122.0186926  63.8758636 106.8262114 121.8804825  64.0660232 105.8983303
 121.6623145  64.6378018 107.2830165 110.1829053  57.8616731 112.9059126
 110.8228432  57.7205490 112.2082089 109.3506583  57.5751244 112.5297728
 122.0456306  65.9435163 111.8373386 122.4792813  65.8510452 112.6856440
 122.7587887  65.9192663 111.1993402 110.9589356  67.1619161 109.0194118
 111.7529955  66.6669481 108.8176693 110.2481049  66.6337024 108.6561824
 115.7784201  69.5437257 113.3706486 115.8321223  70.1128193 114.1384202
 114.9098982  69.7139142 113.0060523 107.2672120  61.3062243 105.0953871
 106.3369708  61.2446698 105.3123833 107.3629592  60.7838196 104.2990512
 107.1857669  57.8317056 107.6832113 107.4464486  58.7462389 107.5741273
 108.0074841  57.3641498 107.8328726 108.6582594  59.2454813 114.8530937
 109.3305648  59.0372175 114.2043586 107.8312381  59.0476899 114.4136170
 122.9071856  65.9858863 114.3706271 123.1007746  66.8904674 114.6165546
 122.8072474  65.5266282 115.2044856 114.5608166  55.8716754 116.8696598
 113.9136081  56.5706703 116.7761075 115.3309182  56.3052898 117.2372846
 117.9686964  66.1365606 119.9447152 117.8172471  65.9076158 119.0277235
 117.9591644  67.0936207 119.9578497 114.7372301  63.7097519 114.9293418
 115.6664361  63.8608678 114.7562385 114.3163331  63.7981540 114.0742064
 113.5360632  67.7348183 112.6991956 113.3971718  67.3666968 113.5717894
 112.7475229  68.2495823 112.5275913 114.1308784  72.8357280 104.0417492
 114.3060540  72.3645323 104.8563115 113.4441572  73.4623046 104.2698753
 115.0865848  67.1129786 110.0880793 114.7515680  67.0730556 110.9838443
 114.5869793  66.4474502 109.6151204 109.0610092  62.5197416 115.6133375
 108.9229889  61.7877655 116.2144914 109.9715015  62.4306316 115.3317562
 118.0225039  64.4585820 100.3617853 117.4054210  63.7332648 100.2650906
 117.5541528  65.2195180 100.0184927 111.6892392  62.2317375 115.1017054
 112.3992011  61.5910567 115.0603673 111.6461700  62.4830270 116.0243235
 119.6779171  69.1684729 118.0223633 119.6191717  68.4843949 117.3554216
 120.0798689  69.9103719 117.5704259 110.4021326  59.2182593 116.9212694
 109.8658683  58.7673332 117.5734290 109.8138035  59.3528502 116.1783158
 108.6969870  75.9846642 110.8157352 108.9366468  76.6165167 111.4936371
 107.8539066  75.6334682 111.1022712 109.8123585  58.6771244  99.4839157
 108.9353051  58.5560045  99.1201404 110.2881338  57.8857323  99.2318046
 119.6796578  67.1324312 116.2537613 118.7923357  66.7950234 116.3764012
 120.2495129  66.4007344 116.4906378 101.3325725  63.4648404 109.5780664
 102.0196765  63.1510134 108.9901680 101.1773854  64.3689769 109.3047916
 106.1360447  58.3538601 114.0065688 106.0518636  57.7464270 113.2716098
 105.3143154  58.8447619 114.0075184 113.2097732  71.7925765 113.2198856
 113.1367903  72.5980736 113.7318161 112.7675125  71.9917731 112.3946878
 112.9987511  71.0297535 106.7301678 112.2155033  71.5719215 106.8239902
 113.6980256  71.5471514 107.1295919 116.3084161  56.8392164 109.3735883
 116.8052861  56.0862127 109.0536953 115.5371143  56.8756481 108.8079093
 124.1613919  62.5432530 111.0154175 124.1503795  63.4257245 110.6448108
 123.2931298  62.1904081 110.8208712 115.6696415  71.6912599 115.3757015
 116.3824387  72.3260064 115.3032916 115.1786444  71.7876465 114.5597017
 117.3913942  65.5963852 106.9474307 116.4570221  65.7165314 106.7779011
 117.5690610  64.6936318 106.6834316 112.8919130  58.9809547 109.1007568
 112.5216918  58.4280588 109.7888473 113.3878223  58.3767681 108.5482568
 120.7786493  61.4381171 107.4824341 121.2446946  62.2709162 107.4084643
 121.2293994  60.9726152 108.1869599 110.7208329  69.4407042 116.1962586
 111.4217788  70.0743525 116.3491980 110.2503444  69.7821774 115.4358225
 118.8462724  67.7824992 104.4810493 119.1222568  67.6681587 105.3904367
 117.9767223  67.3842477 104.4422666 118.7503156  53.8061758 111.5215242
 117.8366236  54.0365985 111.6897449 119.1796258  53.8900202 112.3729274
 118.5209615  61.9951650 114.0215136 117.8681065  62.2427557 113.3667589
 118.8989994  61.1815788 113.6877613 115.4816788  72.0311343 108.1243306
 115.6639183  71.2132999 108.5871059 116.3049774  72.2479035 107.6868196
 115.8158954  70.9579528 105.3858355 116.3446720  70.4471983 104.7728517
 116.0787174  70.6422058 106.2503888 114.5697188  62.7371461 120.5081173
 113.8937825  62.6365590 121.1783548 115.3924821  62.5810675 120.9717170
 106.3176047  68.9743397 113.1293688 106.9029484  68.2287085 113.2621593
 106.1200885  69.2847354 114.0130352 109.1714702  72.0094645 108.1456131
 108.5025077  72.4940772 107.6620171 109.0327572  72.2563865 109.0599509
 100.9093701  61.5448998 111.8498132 100.9477801  61.0112588 112.6435250
 100.4033994  61.0184203 111.2309109 113.3119970  74.0438388 114.7438789
 113.8638279  74.2070010 115.5087874 113.6526164  74.6342826 114.0718814
 108.2884464  56.3913538 115.3460674 108.3525790  57.2528369 114.9338072
 108.2251584  55.7787540 114.6133032 107.7636736  58.4636671 118.9933708
 108.3908775  58.0813748 119.6071232 106.9064655  58.2450873 119.3589401
 118.1630845  68.8699646 120.5987444 118.7070749  69.4829604 120.1042398
 117.5817690  69.4279224 121.1154457 104.5402279  60.2713100 104.9252063
 104.8355720  59.3623778 104.8719117 103.6390315  60.2500839 104.6033065
 116.4488358  71.9920364 111.7302471 116.3239497  71.1910104 111.2213417
 117.1067449  72.4866557 111.2416441 108.0696526  58.3469096 110.9079612
 107.3483112  58.9605064 110.7687085 108.8589782  58.8826861 110.8296258
 118.5123266  69.7929384 113.3582021 117.5653602  69.6734735 113.2860348
 118.8606039  68.9051882 113.4408283 110.8722840  55.6823523 117.1820263
 111.3957241  55.9285819 117.9446573 110.6535173  56.5143558 116.7623401
 106.2690121  57.9527197 105.0491388 105.9402827  57.0724576 104.8666494
 106.6229491  57.8974866 105.9367777 115.5169699  69.5882100 109.5586374
 115.3694662  68.6598808 109.7393944 116.3423193  69.6102191 109.0743449
 109.3831944  58.2400167 105.4166866 109.7228016  58.7686088 104.6945474
 109.8304064  58.5780573 106.1925432 119.1203821  70.4110659 110.6451246
 120.0450369  70.2053520 110.5075698 118.9519125  70.1627060 111.5540588
 112.0775385  56.6237218 114.8669934 111.7372205  55.8245031 115.2690614
 111.3714391  56.9238929 114.2946767 112.7291856  53.7086530 113.3197257
 113.5517926  53.2347009 113.1976147 112.9729920  54.4877014 113.8195943
 111.3700091  56.7374789 103.6160159 112.0908453  57.1156042 103.1123875
 110.7465395  57.4563666 103.7195137 115.5131214  57.4419938 104.5518491
 115.7294828  58.3244576 104.2507319 115.0325281  57.0506151 103.8224133
 110.2530435  60.4005651 111.1289235 110.1075016  60.7145954 112.0213517
 109.7755639  61.0190551 110.5760134 112.1126818  57.3908199 111.1770125
 112.0988387  56.4949292 110.8402423 112.8299246  57.3978863 111.8108411
 113.9652949  57.8245539 113.2223252 113.7070727  58.7462610 113.2207583
 113.4337989  57.4275974 113.9123717 118.9099138  70.9296326 106.0013338
 119.0836015  70.3642749 105.2487190 119.4028029  71.7297221 105.8192828
 104.7276097  62.9410995 114.0676897 104.1829565  63.7170803 114.1997171
 105.6055447  63.2881800 113.9096018 111.5163714  56.2722579 106.4457695
 111.6379625  55.3439225 106.6448583 111.2265756  56.2861265 105.5336011
 114.3854904  53.9577490 109.5824415 114.4076601  54.0216823 108.6276395
 114.8022963  53.1181998 109.7764921 124.7638529  63.6932749 107.6203638
 125.2069675  62.9440074 107.2222761 123.8865039  63.6842886 107.2377370
 119.8974310  70.2463091 103.1010236 120.5925215  70.8669783 103.3197551
 120.2397460  69.3958442 103.3762614 105.5142119  62.0680892 116.9607054
 104.7723855  62.2163527 117.5471684 105.1934863  62.3289157 116.0973803
 121.7965733  67.6962796 104.6297567 122.3217057  68.0350069 103.9046887
 121.7088086  66.7609812 104.4460702 113.4585782  71.6096870 116.7587444
 113.7672908  71.3646017 117.6310143 114.2561264  71.8143508 116.2706314
 113.4806394  73.7634780 108.9892820 113.0411384  73.2711158 109.6825677
 114.2314511  73.2207747 108.7484895 105.9598733  69.9546320 108.9917448
 106.7856753  69.6550092 108.6116092 105.6092785  69.1853943 109.4407237
 110.9280266  69.3072789 111.0615122 110.3060275  68.6443494 110.7617350
 111.5985133  69.3333920 110.3788770 104.1607338  67.8732647 109.9506382
 103.3239246  67.4454821 109.7690383 104.1330983  68.0665090 110.8877173
 111.0004794  57.7854577 120.6547628 111.0492949  58.6616699 120.2725397
 111.5427308  57.2431970 120.0819271 121.4859639  68.3295700 119.9348765
 120.6955183  68.3119839 119.3953264 121.2492994  68.8683994 120.6897801
 121.6057514  65.1788166 117.2481493 121.6555519  65.0138174 118.1897016
 121.4971438  64.3115425 116.8579374 110.4893773  67.8576712 104.5373582
 110.6381893  68.5412176 103.8840255 111.2960216  67.8381802 105.0523038
 118.8961277  61.1619094 118.5640800 119.7971139  61.0225559 118.2724798
 118.9709251  61.3273549 119.5038978 113.2304082  58.5385949 117.4093986
 112.3607391  58.8319515 117.1376575 113.4663562  59.1226394 118.1301250
 123.1075711  67.5985108 117.4923515 122.8160519  67.9615088 118.3286976
 122.4947842  66.8852116 117.3136847 124.3071393  65.1637988 110.0126085
 125.1418285  65.6027792 110.1763646 124.4430522  64.6876641 109.1934331
 121.3562899  62.7217722 115.9603573 121.8317021  62.9145369 115.1522424
 120.4328465  62.7776908 115.7146957 108.2446406  63.8841890 105.5434651
 107.9992448  62.9804220 105.7414861 108.4142320  63.8859040 104.6014129
 115.9343116  54.7565566 114.9259407 116.4525060  55.4926593 114.6005895
 115.5798249  55.0629559 115.7606166 107.5142053  59.6170247 103.0420813
 106.8211298  59.6914602 102.3860849 107.2693805  58.8530591 103.5642330
 116.1855710  51.1765848 110.4460303 116.4657464  50.5089038 111.0720730
 116.9706317  51.3694944 109.9334967 113.9889178  70.3524842 102.0085330
 113.4163146  70.9715030 101.5555802 114.5621972  70.9024204 102.5425252
 120.0564568  59.5983482 114.1931879 121.0081991  59.6981580 114.2144103
 119.8868019  58.8061751 114.7029963 118.0778948  56.6839066 114.3791279
 117.4828880  56.9644078 113.6837768 117.7928644  57.1732967 115.1508021
 117.2086438  70.6361993 103.1393912 118.1417111  70.5707554 103.3426788
 117.1209651  71.4718259 102.6808445 119.8374455  69.9527863 100.0997860
 119.7588086  69.6187726 100.9933617 120.6584122  70.4449631 100.0989332
 122.5352646  62.8189602 113.3074178 122.5028966  61.8805603 113.4933862
 123.1453270  62.8973639 112.5740003 114.3735977  61.6885655  99.3501382
 115.3195082  61.5591863  99.4189800 113.9950222  60.9500317  99.8270810
 122.6847135  59.6100646 113.3532461 122.1686183  58.8259102 113.1662390
 123.5687083  59.2819362 113.5178981 120.3457861  53.3541661 109.3128274
 120.1482683  53.0456749 110.1971606 120.9557567  54.0803300 109.4426204
 128.3529196  63.8805609 112.4480215 129.0832584  63.6190897 113.0087918
 127.7436141  63.1434331 112.4882283 126.4344493  62.0213472 113.0454666
 125.7077657  61.8869437 112.4371158 126.0191780  62.3290300 113.8511384
 114.2574669  65.7403401 120.8102039 115.1777679  65.9182000 121.0042086
 114.2224253  64.7959447 120.6581738 112.5578894  59.6135632  99.2856267
 111.6510349  59.3168744  99.3618981 112.8354875  59.3165450  98.4190554
 103.4756834  60.9341995 109.7355314 103.1559619  60.0807303 109.4429688
 102.9290263  61.1490573 110.4913281 107.2536742  63.6504436 113.4524820
 107.4722752  64.5821544 113.4712854 107.6662516  63.2912410 114.2379624
 114.1740960  54.1572521 105.4400509 113.3641688  53.8119606 105.8155755
 114.8625377  53.8480065 106.0288120 116.1031508  53.2350568 107.0624805
 116.6562547  53.6546021 107.7214828 116.3401594  52.3086316 107.1047761
 112.1264607  59.2237642 122.8427569 112.0261334  60.1731999 122.7739660
 111.9086149  58.8955881 121.9703639 111.3277679  56.4722567  99.4268247
 112.1896843  56.7977465  99.6864064 111.5128023  55.6854063  98.9141312
 103.3445094  64.5544906 111.7048435 102.6508566  64.1398859 111.1918390
 104.0918085  64.5965443 111.1081854 119.4810315  55.3451093 106.5703470
 118.9008984  56.0035897 106.1881522 119.2146248  54.5228438 106.1590887
 117.9313882  54.7456151 108.7724790 118.4313660  54.8572685 107.9639109
 118.5749489  54.4417204 109.4125598 111.9895877  62.6534781 121.6592631
 111.5062959  63.4535141 121.8656520 112.0756816  62.6642725 120.7060075
 105.2581837  64.4863160 109.5814450 105.2352525  64.5850847 108.6296333
 105.5682474  65.3328311 109.9031616 107.9169215  66.5439315 113.6961065
 108.8712468  66.5123258 113.6290996 107.7181738  66.0829939 114.5111291
 108.5068597  65.1140431 116.2631862 109.3261486  65.6084510 116.2866700
 108.7805405  64.1972399 116.2349430 118.2635193  57.5051184 105.6259818
 117.3761048  57.7900834 105.4080013 118.6789182  57.3444947 104.7787095
 121.6149729  57.5297705 109.3414157 122.3910119  58.0194157 109.6138774
 120.8897864  57.9555759 109.7986027 124.0522288  58.2425324 110.3988098
 124.6466779  58.0021060 109.6881406 124.1248872  57.5232454 111.0261634
 106.2719444  72.0858935 110.7131263 106.1373912  71.3259336 110.1469261
 105.8551506  72.8099835 110.2460051 117.4078407  67.2695858  99.7207838
 118.1114257  67.4745861 100.3365493 116.6841055  67.8372620  99.9856921
 118.2376217  63.0205720 105.8410108 118.1811418  63.4774271 105.0017740
 118.7904559  62.2596404 105.6632951 122.0481023  58.8095451 106.6660228
 121.7917957  58.4092087 107.4968435 121.4233891  59.5239245 106.5410367
 126.3593361  61.5491525 109.1731519 125.7992919  61.6184714 109.9463081
 125.7536864  61.3732509 108.4531015 109.4288570  72.9828252 110.9249705
 109.3120954  73.9273684 110.8228396 108.6081016  72.6801813 111.3135504
 119.3165104  67.7078387 101.7706298 120.1510708  67.2759586 101.5883773
 119.1549447  67.5360401 102.6983192 118.9710996  64.2110501 103.1362637
 118.9159800  64.0454772 102.1951081 118.3457052  64.9186534 103.2924827
 103.7603511  59.4478565 116.9624059 104.4062375  58.9377519 117.4511285
 103.5520662  60.1847247 117.5367485 116.2856903  66.5159413 122.4616200
 117.1548063  66.6900065 122.1002835 115.8063655  67.3353829 122.3391929
 112.2807122  53.7118610 102.7147956 112.2685792  54.6560450 102.8716226
 113.1730544  53.5288755 102.4207417 110.4543084  73.6356514 114.1405634
 111.3570330  73.6680124 114.4572129 110.2280454  72.7056965 114.1551969
 112.2096686  72.3887500 110.8015712 111.2592317  72.3889362 110.6880085
 112.5129172  71.6420235 110.2851747 116.0959241  50.3061386 106.9693892
 115.3291637  49.7519873 107.1150575 116.5069946  50.3783255 107.8308044
 108.1001002  56.5946182 121.0599074 108.9632464  56.2382987 121.2702398
 107.5266413  56.2560077 121.7474478 127.9449379  78.2248039 111.8661475
 128.5827789  78.1054786 111.1624815 127.8270222  79.1728883 111.9249427
 124.7539085  78.1775467 111.8022999 124.4157597  78.0616531 110.9143534
 125.6228854  77.7766632 111.7824006 120.6125901  80.0310943 107.7919890
 120.0490766  79.9400880 107.0236178 120.4978296  79.2110848 108.2722383
 125.2358868  79.3310318 117.7609205 125.2247509  78.9363117 116.8889709
 125.3979508  78.5976391 118.3542976 118.1590333  81.5262135 110.6304111
 118.9511625  81.1852959 110.2150410 118.3986983  81.6357110 111.5506264
 126.1925460  83.6981911 103.1034355 125.5413440  84.2835991 102.7168369
 126.9869823  84.2288106 103.1629393 120.1181087  80.7871048 103.5021490
 120.8911963  80.2400035 103.3634365 120.4706486  81.6515297 103.7135951
 121.9566130  82.1147430 116.7088389 121.6655996  83.0193061 116.5935055
 122.5923114  82.1563958 117.4232458 122.8822336  79.4924279 113.2989749
 123.4785909  79.2680301 112.5846711 122.9397308  78.7509024 113.9015196
 122.4547365  76.9463714 101.1339939 122.7072886  76.4245235 100.3723402
 121.5171924  76.7829859 101.2366623 127.4990648  75.9499492 108.9414683
 128.2853737  75.5318916 108.5905100 127.7629352  76.8545585 109.1096331
 127.6700725  81.3872343 103.6403340 127.0346558  81.4606969 104.3524244
 127.3398131  81.9765942 102.9622419 132.8999075  75.8874726 109.8447661
 133.6324247  75.3173942 110.0785491 132.1438431  75.4996326 110.2854167
 122.1743654  78.8491820 103.3364314 122.0579912  78.1736723 104.0045399
 122.2845913  78.3624194 102.5196468 124.5175195  78.3101967 107.0411004
 124.1533402  77.7832588 107.7523925 125.3742310  77.9200436 106.8677489
 130.4224495  69.5996300 114.3042270 130.0907820  70.4691711 114.0803485
 129.8270109  69.2832584 114.9836300 124.1580682  73.3391867 102.0372352
 124.3255084  74.2072103 102.4042823 123.9677851  73.5019149 101.1133641
 126.9156015  81.8008846 113.7038183 126.6156738  82.7033885 113.5953990
 126.5707074  81.5341029 114.5559335 120.3668496  78.2522643 109.7374887
 119.4418993  78.1198857 109.9452579 120.6152909  79.0316862 110.2344829
 130.3153158  74.3191386 111.3835620 129.4070036  74.2506794 111.0894381
 130.2640754  74.7963331 112.2117445 124.1369902  75.7949524 103.0219019
 124.0169528  76.2406575 103.8604499 123.4422491  76.1434842 102.4632557
 117.7277307  77.8955916 110.5718676 117.8569688  78.1490395 111.4858088
 117.0474759  78.4883624 110.2523331 121.8976794  88.5653166 106.6709150
 121.8200824  89.5160991 106.7497631 121.2938438  88.2199039 107.3284077
 124.3894024  75.7381031 119.3270517 123.6127358  76.2974952 119.3173382
 125.0284587  76.2237814 119.8485387 132.1814805  72.5207824 113.1613494
 131.5389185  72.8140357 112.5153288 131.6769733  72.4060745 113.9666690
 129.8354969  76.2670997 103.8499353 130.7472825  76.4998384 103.6747051
 129.3264616  76.8508042 103.2874432 122.6440397  78.5466485 118.8888484
 123.3855081  79.0851529 118.6123308 121.9377382  79.1732774 119.0460036
 128.1195736  80.6895625 117.4860646 128.5279092  80.2478036 116.7415278
 127.3972998  80.1148253 117.7394839 124.4726806  75.6268232 114.8594203
 125.3188001  76.0507646 115.0028852 124.4125444  74.9701856 115.5532766
 128.4424551  81.2496816 111.2412935 127.8133413  81.4142530 110.5389002
 128.0550213  81.6638425 112.0123899 132.3213783  82.1851254 108.5957298
 131.6364821  82.5650155 108.0454332 132.4057632  82.7946580 109.3289246
 127.6226252  73.2872600 116.5175376 127.3787183  74.0414661 115.9809652
 127.8986182  73.6657948 117.3522623 129.5764714  79.8311213 115.1952642
 129.7881610  80.4742973 114.5187023 129.5294463  78.9973529 114.7274572
 127.1790943  72.4429033 112.0989214 126.3175422  72.7410287 112.3905952
 127.2053378  72.6599432 111.1670247 123.9952513  80.9871224 108.5063020
 124.4590858  81.2658927 107.7167642 123.7309311  80.0854669 108.3236110
 120.8876594  80.5342706 111.4442783 121.4577951  80.9629974 110.8060267
 121.4784706  80.2525290 112.1426969 122.9321399  77.1094376 105.3152585
 123.6345442  77.5615420 105.7826511 122.6002027  76.4678195 105.9432478
 121.3801760  75.7006133 119.6903794 120.7500421  76.3822414 119.9239191
 121.2737848  75.5889215 118.7456932 116.6746733  75.3677929 110.6169718
 115.8845787  75.6235458 110.1409829 117.1657980  76.1826267 110.7221759
 130.6910542  82.7083168 113.3674999 131.5127986  82.3063356 113.0857681
 130.6872945  82.6051402 114.3191115 118.6261478  75.7322508 107.5753195
 117.8292641  75.8441203 108.0936691 118.3987070  76.0709161 106.7094086
 124.4567146  82.2567212 115.5235710 124.5211578  82.7187619 116.3593882
 123.7478070  81.6264576 115.6518020 114.9584436  75.6208420 113.0484709
 115.2092474  76.5055429 113.3142285 115.4943984  75.4413021 112.2759801
 138.7816535  79.0521917 109.7159971 138.0280244  78.4829315 109.5603975
 138.9164077  79.0184581 110.6630605 124.1715163  83.9235319 105.3914690
 124.0360838  84.7686855 105.8199538 124.7124976  84.1254597 104.6280624
 120.6582503  70.0026899 122.0529045 120.2649449  69.4493097 122.7276689
 121.4748643  70.3137477 122.4435563 117.6244561  81.4410757 105.9642615
 118.1369081  82.2354007 106.1148180 118.2767274  80.7437048 105.8976217
 119.4339445  84.5576513 108.0465368 119.6106074  85.4794478 107.8586352
 120.2296279  84.2434933 108.4759748 123.5750464  71.4184778 119.6449302
 124.3160177  72.0191931 119.5653764 123.8068387  70.6762416 119.0867344
 118.7191802  76.6041145 117.9227531 118.6045317  75.7026402 118.2234630
 117.8636320  76.8504842 117.5712348 125.7983640  84.5458886 119.5215032
 125.3547494  83.7595264 119.2035937 126.4600853  84.7338036 118.8558923
 120.5570761  86.0754687 114.0475711 121.1078186  85.9471750 113.2752705
 119.7182237  86.3749576 113.6970603 127.8964878  84.8261685 117.5496433
 127.8783353  85.6470566 117.0576703 128.8184798  84.7015761 117.7746575
 124.3537932  82.3405815 118.3919942 124.8866269  81.5794103 118.1619250
 123.8252013  82.0479467 119.1344096 127.5207627  67.4465881 113.9213583
 127.1771896  68.3367523 113.8452694 127.8886590  67.2567539 113.0583168
 115.5893478  79.7699411 106.7402186 116.4268700  80.1796420 106.5235893
 115.7671745  78.8298854 106.7102379 127.4857910  77.4374492 102.4286019
 126.9704533  78.2079097 102.6674406 127.2135218  76.7639628 103.0519080
 125.0705021  72.2824193 107.4871257 124.2146617  71.8931043 107.3076896
 125.4831972  72.3616154 106.6271042 126.6004167  69.8170536 111.8862817
 126.0968963  69.7800671 111.0730622 126.8934774  70.7263279 111.9459473
 122.8447053  69.9009266 110.8928998 123.7100050  69.7052074 110.5334888
 122.9124562  69.6719618 111.8198355 132.4592184  80.1906847 104.3639192
 131.6821627  79.8518006 103.9194354 133.1383665  80.1959470 103.6894157
 127.2744213  75.3101584 104.2545800 126.9694348  75.6247733 105.1055943
 128.2274655  75.3883004 104.2973133 125.7190645  81.4691807 105.9038754
 125.1912006  80.7344567 105.5911991 125.2178147  82.2466484 105.6578722
 130.6983491  79.6640828 111.0205800 130.0407165  80.3540089 111.1085929
 131.5023890  80.0537260 111.3639786 120.4509372  72.1311474 108.2645365
 121.0253124  71.9086655 107.5318558 121.0380355  72.2000168 109.0173967
 129.5088950  78.0185201 109.0709742 130.0220831  78.6515192 109.5731452
 130.1590173  77.4186396 108.7053102 120.7778959  74.1615935 102.2841251
 119.9416272  74.4990621 102.6050525 120.6383729  74.0264915 101.3468387
 122.7532040  69.0052723 106.9920435 122.0996452  68.6901740 106.3677049
 122.7112514  68.3828463 107.7180258 123.8643245  79.2872018  98.9073727
 122.9570307  79.0561271  99.1064876 124.3614277  78.4909637  99.0947708
 126.7711324  87.9969525 101.8270413 126.0973023  88.3001222 102.4355371
 127.1577146  88.7998605 101.4775870 125.9869780  75.4934656 111.3168082
 125.0692342  75.7149603 111.1589770 126.4029924  75.5680967 110.4579790
 126.7704828  76.8926072 106.4470763 127.5176647  77.4047469 106.1377885
 127.0396418  76.5710125 107.3075156 125.0431478  79.3884613 103.4297717
 124.1342698  79.1043645 103.5270187 125.0726562  79.8083691 102.5701024
 130.2750746  82.9991202 107.1988884 129.8213073  82.1582112 107.2554075
 129.6444712  83.6352600 107.5363665 129.2183665  73.9283188 108.4289552
 128.4806422  73.4160574 108.7599794 129.4710439  73.4883570 107.6172829
 128.7183685  84.8367699 108.1338703 129.0106659  85.3972756 107.4151068
 129.2282306  85.1296260 108.8891862 129.3195293  66.7059440 109.0231321
 129.6254169  65.8456804 108.7357236 130.0447897  67.2977060 108.8230315
 115.6119649  77.1090127 107.4112919 115.4144049  76.5159487 106.6863986
 115.0566313  76.8042337 108.1288858 123.5916372  77.0013233 109.5307512
 123.6464982  76.0487070 109.4549989 122.7807574  77.1572672 110.0148811
 124.7407566  80.9293356 100.7685795 124.3026996  80.2129215 100.3091433
 125.4818007  81.1569471 100.2070887 121.5308732  75.6190293 107.2897891
 120.7176598  75.9184463 107.6963083 122.0267726  75.2245982 108.0072373
 123.6817310  85.6148050 109.2232156 123.6393489  85.8408896 108.2940688
 124.5980009  85.3811424 109.3717957 127.1282944  76.0832117 116.1212785
 127.4832332  76.3103591 116.9807251 127.7755075  76.4150494 115.4990040
 132.8580681  79.2050553 106.8262114 132.7198579  79.3952149 105.8983303
 132.5016900  79.9669936 107.2830165 121.0222807  73.1908648 112.9059126
 121.6622186  73.0497408 112.2082089 120.1900338  72.9043162 112.5297728
 132.8850061  81.2727080 111.8373386 133.3186567  81.1802369 112.6856440
 133.5981641  81.2484581 111.1993402 121.7983111  82.4911079 109.0194118
 122.5923709  81.9961399 108.8176693 121.0874803  81.9628942 108.6561824
 126.6177955  84.8729174 113.3706486 126.6714978  85.4420111 114.1384202
 125.7492737  85.0431059 113.0060523 118.1065874  76.6354161 105.0953871
 117.1763463  76.5738616 105.3123833 118.2023346  76.1130113 104.2990512
 118.0251423  73.1608973 107.6832113 118.2858241  74.0754307 107.5741273
 118.8468596  72.6933416 107.8328726 119.4976349  74.5746731 114.8530937
 120.1699402  74.3664093 114.2043586 118.6706135  74.3768817 114.4136170
 133.7465610  81.3150781 114.3706271 133.9401500  82.2196591 114.6165546
 133.6466228  80.8558200 115.2044856 125.4001921  71.2008671 116.8696598
 124.7529836  71.8998621 116.7761075 126.1702936  71.6344815 117.2372846
 128.8080719  81.4657524 119.9447152 128.6566225  81.2368075 119.0277235
 128.7985398  82.4228125 119.9578497 125.5766055  79.0389436 114.9293418
 126.5058115  79.1900596 114.7562385 125.1557085  79.1273457 114.0742064
 124.3754387  83.0640101 112.6991956 124.2365473  82.6958885 113.5717894
 123.5868983  83.5787740 112.5275913 124.9702539  88.1649197 104.0417492
 125.1454295  87.6937240 104.8563115 124.2835327  88.7914963 104.2698753
 125.9259602  82.4421704 110.0880793 125.5909435  82.4022473 110.9838443
 125.4263548  81.7766419 109.6151204 119.9003846  77.8489334 115.6133375
 119.7623644  77.1169572 116.2144914 120.8108770  77.7598234 115.3317562
 128.8618794  79.7877738 100.3617853 128.2447964  79.0624566 100.2650906
 128.3935282  80.5487098 100.0184927 122.5286147  77.5609293 115.1017054
 123.2385765  76.9202485 115.0603673 122.4855455  77.8122188 116.0243235
 130.5172925  84.4976646 118.0223633 130.4585472  83.8135866 117.3554216
 130.9192444  85.2395636 117.5704259 121.2415081  74.5474511 116.9212694
 120.7052438  74.0965249 117.5734290 120.6531789  74.6820420 116.1783158
 119.5363624  91.3138560 110.8157352 119.7760222  91.9457084 111.4936371
 118.6932821  90.9626600 111.1022712 120.6517340  74.0063162  99.4839157
 119.7746806  73.8851963  99.1201404 121.1275093  73.2149240  99.2318046
 130.5190333  82.4616230 116.2537613 129.6317111  82.1242152 116.3764012
 131.0888884  81.7299261 116.4906378 112.1719480  78.7940322 109.5780664
 112.8590520  78.4802052 108.9901680 112.0167608  79.6981687 109.3047916
 116.9754202  73.6830518 114.0065688 116.8912391  73.0756188 113.2716098
 116.1536908  74.1739537 114.0075184 124.0491486  87.1217682 113.2198856
 123.9761658  87.9272654 113.7318161 123.6068879  87.3209648 112.3946878
 123.8381266  86.3589453 106.7301678 123.0548788  86.9011133 106.8239902
 124.5374011  86.8763432 107.1295919 127.1477916  72.1684082 109.3735883
 127.6446615  71.4154044 109.0536953 126.3764897  72.2048399 108.8079093
 135.0007673  77.8724448 111.0154175 134.9897549  78.7549163 110.6448108
 134.1325053  77.5195998 110.8208712 126.5090170  87.0204517 115.3757015
 127.2218142  87.6551981 115.3032916 126.0180198  87.1168383 114.5597017
 128.2307696  80.9255769 106.9474307 127.2963975  81.0457232 106.7779011
 128.4084365  80.0228236 106.6834316 123.7312885  74.3101465 109.1007568
 123.3610672  73.7572505 109.7888473 124.2271977  73.7059598 108.5482568
 131.6180248  76.7673088 107.4824341 132.0840700  77.6001080 107.4084643
 132.0687748  76.3018070 108.1869599 121.5602083  84.7698960 116.1962586
 122.2611543  85.4035443 116.3491980 121.0897198  85.1113692 115.4358225
 129.6856479  83.1116910 104.4810493 129.9616323  82.9973504 105.3904367
 128.8160978  82.7134395 104.4422666 129.5896911  69.1353675 111.5215242
 128.6759990  69.3657902 111.6897449 130.0190012  69.2192120 112.3729274
 129.3603369  77.3243567 114.0215136 128.7074819  77.5719475 113.3667589
 129.7383749  76.5107706 113.6877613 126.3210543  87.3603261 108.1243306
 126.5032937  86.5424917 108.5871059 127.1443529  87.5770953 107.6868196
 126.6552708  86.2871446 105.3858355 127.1840475  85.7763900 104.7728517
 126.9180928  85.9713976 106.2503888 125.4090942  78.0663378 120.5081173
 124.7331579  77.9657508 121.1783548 126.2318576  77.9102592 120.9717170
 117.1569801  84.3035315 113.1293688 117.7423238  83.5579003 113.2621593
 116.9594640  84.6139272 114.0130352 120.0108456  87.3386562 108.1456131
 119.3418832  87.8232690 107.6620171 119.8721326  87.5855783 109.0599509
 111.7487456  76.8740915 111.8498132 111.7871555  76.3404506 112.6435250
 111.2427749  76.3476121 111.2309109 124.1513725  89.3730306 114.7438789
 124.7032033  89.5361927 115.5087874 124.4919918  89.9634744 114.0718814
 119.1278218  71.7205456 115.3460674 119.1919545  72.5820287 114.9338072
 119.0645338  71.1079457 114.6133032 118.6030491  73.7928588 118.9933708
 119.2302530  73.4105666 119.6071232 117.7458410  73.5742790 119.3589401
 129.0024599  84.1991563 120.5987444 129.5464503  84.8121522 120.1042398
 128.4211444  84.7571142 121.1154457 115.3796033  75.6005017 104.9252063
 115.6749475  74.6915696 104.8719117 114.4784069  75.5792757 104.6033065
 127.2882112  87.3212281 111.7302471 127.1633252  86.5202021 111.2213417
 127.9461203  87.8158475 111.2416441 118.9090280  73.6761014 110.9079612
 118.1876866  74.2896982 110.7687085 119.6983536  74.2118779 110.8296258
 129.3517021  85.1221302 113.3582021 128.4047356  85.0026653 113.2860348
 129.6999794  84.2343800 113.4408283 121.7116594  71.0115440 117.1820263
 122.2350996  71.2577737 117.9446573 121.4928927  71.8435475 116.7623401
 117.1083875  73.2819115 105.0491388 116.7796581  72.4016494 104.8666494
 117.4623246  73.2266784 105.9367777 126.3563454  84.9174018 109.5586374
 126.2088416  83.9890725 109.7393944 127.1816947  84.9394108 109.0743449
 120.2225698  73.5692085 105.4166866 120.5621771  74.0978006 104.6945474
 120.6697819  73.9072491 106.1925432 129.9597576  85.7402577 110.6451246
 130.8844123  85.5345438 110.5075698 129.7912879  85.4918978 111.5540588
 122.9169139  71.9529136 114.8669934 122.5765959  71.1536949 115.2690614
 122.2108145  72.2530846 114.2946767 123.5685611  69.0378448 113.3197257
 124.3911680  68.5638926 113.1976147 123.8123674  69.8168932 113.8195943
 122.2093845  72.0666706 103.6160159 122.9302208  72.4447959 103.1123875
 121.5859150  72.7855583 103.7195137 126.3524968  72.7711855 104.5518491
 126.5688583  73.6536493 104.2507319 125.8719035  72.3798069 103.8224133
 121.0924190  75.7297569 111.1289235 120.9468770  76.0437872 112.0213517
 120.6149393  76.3482469 110.5760134 122.9520573  72.7200117 111.1770125
 122.9382141  71.8241210 110.8402423 123.6693001  72.7270780 111.8108411
 124.8046703  73.1537457 113.2223252 124.5464481  74.0754527 113.2207583
 124.2731744  72.7567891 113.9123717 129.7492892  86.2588244 106.0013338
 129.9229770  85.6934666 105.2487190 130.2421783  87.0589139 105.8192828
 115.5669852  78.2702913 114.0676897 115.0223320  79.0462721 114.1997171
 116.4449202  78.6173718 113.9096018 122.3557468  71.6014497 106.4457695
 122.4773380  70.6731143 106.6448583 122.0659511  71.6153183 105.5336011
 125.2248659  69.2869407 109.5824415 125.2470356  69.3508740 108.6276395
 125.6416718  68.4473916 109.7764921 135.6032283  79.0224667 107.6203638
 136.0463429  78.2731992 107.2222761 134.7258793  79.0134803 107.2377370
 130.7368064  85.5755008 103.1010236 131.4318969  86.1961701 103.3197551
 131.0791215  84.7250360 103.3762614 116.3535874  77.3972809 116.9607054
 115.6117610  77.5455445 117.5471684 116.0328618  77.6581075 116.0973803
 132.6359488  83.0254714 104.6297567 133.1610812  83.3641987 103.9046887
 132.5481840  82.0901729 104.4460702 124.2979536  86.9388788 116.7587444
 124.6066663  86.6937934 117.6310143 125.0955018  87.1435426 116.2706314
 124.3200148  89.0926697 108.9892820 123.8805139  88.6003076 109.6825677
 125.0708265  88.5499665 108.7484895 116.7992487  85.2838238 108.9917448
 117.6250507  84.9842010 108.6116092 116.4486539  84.5145860 109.4407237
 121.7674021  84.6364706 111.0615122 121.1454030  83.9735411 110.7617350
 122.4378887  84.6625838 110.3788770 115.0001092  83.2024564 109.9506382
 114.1633001  82.7746739 109.7690383 114.9724738  83.3957008 110.8877173
 121.8398548  73.1146494 120.6547628 121.8886703  73.9908617 120.2725397
 122.3821062  72.5723887 120.0819271 132.3253394  83.6587618 119.9348765
 131.5348937  83.6411756 119.3953264 132.0886748  84.1975911 120.6897801
 132.4451269  80.5080084 117.2481493 132.4949274  80.3430091 118.1897016
 132.3365192  79.6407343 116.8579374 121.3287527  83.1868630 104.5373582
 121.4775648  83.8704094 103.8840255 122.1353971  83.1673720 105.0523038
 129.7355031  76.4911012 118.5640800 130.6364894  76.3517477 118.2724798
 129.8103006  76.6565467 119.5038978 124.0697836  73.8677867 117.4093986
 123.2001146  74.1611433 117.1376575 124.3057317  74.4518312 118.1301250
 133.9469466  82.9277025 117.4923515 133.6554274  83.2907006 118.3286976
 133.3341597  82.2144034 117.3136847 135.1465148  80.4929905 110.0126085
 135.9812039  80.9319709 110.1763646 135.2824277  80.0168558 109.1934331
 132.1956654  78.0509640 115.9603573 132.6710775  78.2437286 115.1522424
 131.2722219  78.1068826 115.7146957 119.0840160  79.2133807 105.5434651
 118.8386202  78.3096137 105.7414861 119.2536075  79.2150958 104.6014129
 126.7736870  70.0857484 114.9259407 127.2918814  70.8218511 114.6005895
 126.4192003  70.3921477 115.7606166 118.3535808  74.9462165 103.0420813
 117.6605053  75.0206520 102.3860849 118.1087560  74.1822508 103.5642330
 127.0249464  66.5057766 110.4460303 127.3051218  65.8380955 111.0720730
 127.8100071  66.6986862 109.9334967 124.8282933  85.6816760 102.0085330
 124.2556900  86.3006947 101.5555802 125.4015727  86.2316122 102.5425252
 130.8958323  74.9275400 114.1931879 131.8475746  75.0273498 114.2144103
 130.7261773  74.1353669 114.7029963 128.9172702  72.0130983 114.3791279
 128.3222634  72.2935996 113.6837768 128.6322399  72.5024884 115.1508021
 128.0480193  85.9653910 103.1393912 128.9810866  85.8999472 103.3426788
 127.9603406  86.8010177 102.6808445 130.6768209  85.2819781 100.0997860
 130.5981841  84.9479644 100.9933617 131.4977876  85.7741548 100.0989332
 133.3746401  78.1481520 113.3074178 133.3422721  77.2097521 113.4933862
 133.9847024  78.2265557 112.5740003 125.2129731  77.0177573  99.3501382
 126.1588836  76.8883781  99.4189800 124.8343976  76.2792235  99.8270810
 133.5240889  74.9392563 113.3532461 133.0079938  74.1551020 113.1662390
 134.4080838  74.6111280 113.5178981 131.1851616  68.6833579 109.3128274
 130.9876437  68.3748667 110.1971606 131.7951322  69.4095218 109.4426204
 139.1922950  79.2097527 112.4480215 139.9226339  78.9482815 113.0087918
 138.5829896  78.4726249 112.4882283 137.2738248  77.3505389 113.0454666
 136.5471411  77.2161354 112.4371158 136.8585534  77.6582218 113.8511384
 125.0968424  81.0695319 120.8102039 126.0171433  81.2473918 121.0042086
 125.0618007  80.1251364 120.6581738 123.3972649  74.9427549  99.2856267
 122.4904104  74.6460662  99.3618981 123.6748630  74.6457367  98.4190554
 114.3150589  76.2633913 109.7355314 113.9953373  75.4099221 109.4429688
 113.7684017  76.4782491 110.4913281 118.0930497  78.9796354 113.4524820
 118.3116506  79.9113461 113.4712854 118.5056270  78.6204328 114.2379624
 125.0134714  69.4864439 105.4400509 124.2035443  69.1411524 105.8155755
 125.7019131  69.1771983 106.0288120 126.9425263  68.5642486 107.0624805
 127.4956301  68.9837939 107.7214828 127.1795349  67.6378234 107.1047761
 122.9658362  74.5529559 122.8427569 122.8655089  75.5023916 122.7739660
 122.7479904  74.2247798 121.9703639 122.1671433  71.8014484  99.4268247
 123.0290597  72.1269383  99.6864064 122.3521777  71.0145980  98.9141312
 114.1838849  79.8836824 111.7048435 113.4902320  79.4690777 111.1918390
 114.9311840  79.9257361 111.1081854 130.3204070  70.6743011 106.5703470
 129.7402739  71.3327815 106.1881522 130.0540002  69.8520355 106.1590887
 128.7707636  70.0748069 108.7724790 129.2707414  70.1864603 107.9639109
 129.4143244  69.7709121 109.4125598 122.8289632  77.9826698 121.6592631
 122.3456714  78.7827058 121.8656520 122.9150571  77.9934643 120.7060075
 116.0975591  79.8155078 109.5814450 116.0746280  79.9142765 108.6296333
 116.4076228  80.6620229 109.9031616 118.7562969  81.8731233 113.6961065
 119.7106223  81.8415175 113.6290996 118.5575493  81.4121857 114.5111291
 119.3462352  80.4432349 116.2631862 120.1655240  80.9376428 116.2866700
 119.6199159  79.5264317 116.2349430 129.1028948  72.8343101 105.6259818
 128.2154803  73.1192752 105.4080013 129.5182937  72.6736865 104.7787095
 132.4543484  72.8589622 109.3414157 133.2303874  73.3486075 109.6138774
 131.7291618  73.2847676 109.7986027 134.8916042  73.5717241 110.3988098
 135.4860533  73.3312977 109.6881406 134.9642626  72.8524372 111.0261634
 117.1113198  87.4150852 110.7131263 116.9767666  86.6551253 110.1469261
 116.6945260  88.1391752 110.2460051 128.2472161  82.5987776  99.7207838
 128.9508011  82.8037778 100.3365493 127.5234810  83.1664538  99.9856921
 129.0769971  78.3497637 105.8410108 129.0205173  78.8066189 105.0017740
 129.6298314  77.5888322 105.6632951 132.8874777  74.1387369 106.6660228
 132.6311712  73.7384005 107.4968435 132.2627645  74.8531163 106.5410367
 137.1987115  76.8783442 109.1731519 136.6386673  76.9476632 109.9463081
 136.5930619  76.7024427 108.4531015 120.2682324  88.3120169 110.9249705
 120.1514708  89.2565602 110.8228396 119.4474770  88.0093731 111.3135504
 130.1558859  83.0370305 101.7706298 130.9904463  82.6051504 101.5883773
 129.9943201  82.8652319 102.6983192 129.8104751  79.5402418 103.1362637
 129.7553555  79.3746690 102.1951081 129.1850806  80.2478451 103.2924827
 114.5997266  74.7770483 116.9624059 115.2456129  74.2669437 117.4511285
 114.3914417  75.5139164 117.5367485 127.1250658  81.8451330 122.4616200
 127.9941818  82.0191983 122.1002835 126.6457409  82.6645747 122.3391929
 123.1200876  69.0410527 102.7147956 123.1079546  69.9852367 102.8716226
 124.0124298  68.8580673 102.4207417 121.2936838  88.9648431 114.1405634
 122.1964085  88.9972042 114.4572129 121.0674208  88.0348882 114.1551969
 123.0490440  87.7179418 110.8015712 122.0986071  87.7181279 110.6880085
 123.3522926  86.9712152 110.2851747 126.9352996  65.6353304 106.9693892
 126.1685391  65.0811791 107.1150575 127.3463701  65.7075173 107.8308044
 118.9394757  71.9238100 121.0599074 119.8026218  71.5674905 121.2702398
 118.3660167  71.5851995 121.7474478 138.7843134  93.5539956 111.8661475
 139.4221544  93.4346704 111.1624815 138.6663977  94.5020800 111.9249427
 135.5932840  93.5067384 111.8022999 135.2551351  93.3908449 110.9143534
 136.4622608  93.1058549 111.7824006 131.4519656  95.3602861 107.7919890
 130.8884521  95.2692798 107.0236178 131.3372051  94.5402765 108.2722383
 128.9984088  96.8554052 110.6304111 129.7905380  96.5144877 110.2150410
 129.2380738  96.9649027 111.5506264 137.0319214  99.0273828 103.1034355
 136.3807194  99.6127909 102.7168369 137.8263577  99.5580023 103.1629393
 130.9574842  96.1162966 103.5021490 131.7305718  95.5691953 103.3634365
 131.3100240  96.9807215 103.7135951 133.7216091  94.8216196 113.2989749
 134.3179663  94.5972219 112.5846711 133.7791062  94.0800942 113.9015196
 133.2941119  92.2755632 101.1339939 133.5466640  91.7537153 100.3723402
 132.3565678  92.1121777 101.2366623 138.3384402  91.2791410 108.9414683
 139.1247491  90.8610833 108.5905100 138.6023106  92.1837502 109.1096331
 138.5094480  96.7164260 103.6403340 137.8740312  96.7898887 104.3524244
 138.1791886  97.3057859 102.9622419 133.0137408  94.1783738 103.3364314
 132.8973666  93.5028641 104.0045399 133.1239668  93.6916112 102.5196468
 135.3568949  93.6393885 107.0411004 134.9927156  93.1124506 107.7523925
 136.2136065  93.2492354 106.8677489 134.9974436  88.6683784 102.0372352
 135.1648838  89.5364021 102.4042823 134.8071605  88.8311066 101.1133641
 131.2062251  93.5814560 109.7374887 130.2812747  93.4490774 109.9452579
 131.4546664  94.3608779 110.2344829 141.1546913  89.6483304 111.3835620
 140.2463790  89.5798712 111.0894381 141.1034509  90.1255249 112.2117445
 134.9763657  91.1241442 103.0219019 134.8563282  91.5698493 103.8604499
 134.2816245  91.4726760 102.4632557 128.5671062  93.2247834 110.5718676
 128.6963443  93.4782313 111.4858088 127.8868513  93.8175542 110.2523331
 132.7370549 103.8945084 106.6709150 132.6594579 104.8452909 106.7497631
 132.1332193 103.5490956 107.3284077 135.3120561  90.9560150 114.8594203
 136.1581756  91.3799563 115.0028852 135.2519198  90.2993774 115.5532766
 139.2818305  96.5788734 111.2412935 138.6527168  96.7434448 110.5389002
 138.8943967  96.9930343 112.0123899 138.4620006  88.6164518 116.5175376
 138.2180938  89.3706579 115.9809652 138.7379937  88.9949866 117.3522623
 138.0184698  87.7720951 112.0989214 137.1569177  88.0702205 112.3905952
 138.0447132  87.9891350 111.1670247 134.8346267  96.3163142 108.5063020
 135.2984613  96.5950845 107.7167642 134.5703065  95.4146586 108.3236110
 131.7270348  95.8634623 111.4442783 132.2971705  96.2921892 110.8060267
 132.3178460  95.5817208 112.1426969 133.7715153  92.4386294 105.3152585
 134.4739197  92.8907338 105.7826511 133.4395782  91.7970113 105.9432478
 127.5140487  90.6969847 110.6169718 126.7239541  90.9527375 110.1409829
 128.0051735  91.5118185 110.7221759 129.4655233  91.0614426 107.5753195
 128.6686396  91.1733120 108.0936691 129.2380825  91.4001078 106.7094086
 125.7978190  90.9500337 113.0484709 126.0486229  91.8347347 113.3142285
 126.3337739  90.7704939 112.2759801 135.0108918  99.2527237 105.3914690
 134.8754593 100.0978772 105.8199538 135.5518730  99.4546514 104.6280624
 131.4976258  85.3318817 122.0529045 131.1043203  84.7785015 122.7276689
 132.3142398  85.6429395 122.4435563 128.4638315  96.7702675 105.9642615
 128.9762836  97.5645925 106.1148180 129.1161028  96.0728965 105.8976217
 130.2733200  99.8868431 108.0465368 130.4499828 100.8086396 107.8586352
 131.0690034  99.5726850 108.4759748 134.4144219  86.7476696 119.6449302
 135.1553932  87.3483849 119.5653764 134.6462141  86.0054333 119.0867344
 129.5585557  91.9333063 117.9227531 129.4439072  91.0318320 118.2234630
 128.7030074  92.1796760 117.5712348 131.3964515 101.4046605 114.0475711
 131.9471941 101.2763668 113.2752705 130.5575991 101.7041494 113.6970603
 138.3601381  82.7757799 113.9213583 138.0165651  83.6659440 113.8452694
 138.7280344  82.5859456 113.0583168 126.4287232  95.0991329 106.7402186
 127.2662454  95.5088337 106.5235893 126.6065500  94.1590771 106.7102379
 138.3251664  92.7666410 102.4286019 137.8098288  93.5371014 102.6674406
 138.0528973  92.0931546 103.0519080 135.9098775  87.6116110 107.4871257
 135.0540372  87.2222961 107.3076896 136.3225727  87.6908071 106.6271042
 137.4397922  85.1462454 111.8862817 136.9362717  85.1092589 111.0730622
 137.7328529  86.0555196 111.9459473 133.6840808  85.2301183 110.8928998
 134.5493805  85.0343992 110.5334888 133.7518317  85.0011535 111.8198355
 138.1137967  90.6393502 104.2545800 137.8088103  90.9539651 105.1055943
 139.0668409  90.7174922 104.2973133 136.5584399  96.7983725 105.9038754
 136.0305761  96.0636485 105.5911991 136.0571902  97.5758401 105.6578722
 131.2903127  87.4603391 108.2645365 131.8646879  87.2378573 107.5318558
 131.8774109  87.5292086 109.0173967 140.3482704  93.3477118 109.0709742
 140.8614586  93.9807110 109.5731452 140.9983928  92.7478314 108.7053102
 131.6172714  89.4907852 102.2841251 130.7810026  89.8282539 102.6050525
 131.4777484  89.3556832 101.3468387 133.5925795  84.3344640 106.9920435
 132.9390207  84.0193657 106.3677049 133.5506269  83.7120381 107.7180258
 134.7036999  94.6163935  98.9073727 133.7964061  94.3853189  99.1064876
 135.2008031  93.8201555  99.0947708 137.6105078 103.3261443 101.8270413
 136.9366777 103.6293139 102.4355371 137.9970900 104.1290523 101.4775870
 136.8263535  90.8226574 111.3168082 135.9086096  91.0441521 111.1589770
 137.2423679  90.8972884 110.4579790 137.6098583  92.2217990 106.4470763
 138.3570402  92.7339387 106.1377885 137.8790172  91.9002042 107.3075156
 135.8825233  94.7176530 103.4297717 134.9736452  94.4335563 103.5270187
 135.9120317  95.1375609 102.5701024 141.1144500  98.3283120 107.1988884
 140.6606827  97.4874030 107.2554075 140.4838467  98.9644518 107.5363665
 140.0577420  89.2575106 108.4289552 139.3200177  88.7452492 108.7599794
 140.3104193  88.8175487 107.6172829 139.5577439 100.1659616 108.1338703
 139.8500414 100.7264674 107.4151068 140.0676060 100.4588177 108.8891862
 140.1589047  82.0351358 109.0231321 140.4647924  81.1748721 108.7357236
 140.8841652  82.6268978 108.8230315 126.4513403  92.4382044 107.4112919
 126.2537803  91.8451405 106.6863986 125.8960067  92.1334255 108.1288858
 134.4310127  92.3305151 109.5307512 134.4858737  91.3778987 109.4549989
 133.6201329  92.4864590 110.0148811 135.5801321  96.2585274 100.7685795
 135.1420751  95.5421133 100.3091433 136.3211761  96.4861389 100.2070887
 132.3702487  90.9482211 107.2897891 131.5570352  91.2476381 107.6963083
 132.8661481  90.5537899 108.0072373 134.5211065 100.9439968 109.2232156
 134.4787243 101.1700814 108.2940688 135.4373764 100.7103342 109.3717957
 137.9676698  91.4124035 116.1212785 138.3226086  91.6395508 116.9807251
 138.6148830  91.7442412 115.4990040 131.8616562  88.5200566 112.9059126
 132.5015941  88.3789325 112.2082089 131.0294092  88.2335079 112.5297728
 132.6376865  97.8202997 109.0194118 133.4317464  97.3253317 108.8176693
 131.9268558  97.2920860 108.6561824 128.9459629  91.9646078 105.0953871
 128.0157217  91.9030534 105.3123833 129.0417101  91.4422031 104.2990512
 128.8645178  88.4900891 107.6832113 129.1251995  89.4046224 107.5741273
 129.6862350  88.0225334 107.8328726 130.3370103  89.9038648 114.8530937
 131.0093157  89.6956010 114.2043586 129.5099890  89.7060734 114.4136170
 136.2395675  86.5300589 116.8696598 135.5923590  87.2290539 116.7761075
 137.0096691  86.9636733 117.2372846 136.4159810  94.3681354 114.9293418
 137.3451870  94.5192514 114.7562385 135.9950840  94.4565375 114.0742064
 135.2148141  98.3932019 112.6991956 135.0759227  98.0250803 113.5717894
 134.4262738  98.9079658 112.5275913 135.8096293 103.4941115 104.0417492
 135.9848049 103.0229158 104.8563115 135.1229081 104.1206881 104.2698753
 136.7653357  97.7713621 110.0880793 136.4303189  97.7314391 110.9838443
 136.2657302  97.1058337 109.6151204 130.7397601  93.1781251 115.6133375
 130.6017398  92.4461490 116.2144914 131.6502524  93.0890151 115.3317562
 139.7012548  95.1169656 100.3617853 139.0841719  94.3916484 100.2650906
 139.2329037  95.8779016 100.0184927 133.3679901  92.8901211 115.1017054
 134.0779520  92.2494403 115.0603673 133.3249209  93.1414105 116.0243235
 132.0808835  89.8766428 116.9212694 131.5446192  89.4257167 117.5734290
 131.4925544  90.0112337 116.1783158 131.4911094  89.3355080  99.4839157
 130.6140560  89.2143881  99.1201404 131.9668847  88.5441158  99.2318046
 123.0113234  94.1232240 109.5780664 123.6984274  93.8093970 108.9901680
 122.8561363  95.0273604 109.3047916 127.8147956  89.0122436 114.0065688
 127.7306145  88.4048106 113.2716098 126.9930663  89.5031454 114.0075184
 134.6775020 101.6881370 106.7301678 133.8942542 102.2303050 106.8239902
 135.3767765 102.2055350 107.1295919 137.9871670  87.4976000 109.3735883
 138.4840370  86.7445962 109.0536953 137.2158652  87.5340316 108.8079093
 139.0701451  96.2547687 106.9474307 138.1357730  96.3749149 106.7779011
 139.2478119  95.3520154 106.6834316 134.5706639  89.6393383 109.1007568
 134.2004427  89.0864423 109.7888473 135.0665731  89.0351516 108.5482568
 140.5250233  98.4408827 104.4810493 140.8010077  98.3265422 105.3904367
 139.6554732  98.0426312 104.4422666 140.4290665  84.4645593 111.5215242
 139.5153745  84.6949820 111.6897449 140.8583767  84.5484037 112.3729274
 140.1997124  92.6535485 114.0215136 139.5468574  92.9011393 113.3667589
 140.5777503  91.8399623 113.6877613 137.1604297 102.6895178 108.1243306
 137.3426692 101.8716834 108.5871059 137.9837283 102.9062871 107.6868196
 137.4946463 101.6163363 105.3858355 138.0234229 101.1055818 104.7728517
 137.7574683 101.3005894 106.2503888 127.9963556  99.6327233 113.1293688
 128.5816992  98.8870921 113.2621593 127.7988394  99.9431189 114.0130352
 130.8502211 102.6678480 108.1456131 130.1812586 103.1524608 107.6620171
 130.7115081 102.9147701 109.0599509 122.5881210  92.2032833 111.8498132
 122.6265310  91.6696424 112.6435250 122.0821503  91.6768038 111.2309109
 129.9671973  87.0497373 115.3460674 130.0313299  87.9112204 114.9338072
 129.9039093  86.4371375 114.6133032 129.4424245  89.1220506 118.9933708
 130.0696284  88.7397583 119.6071232 128.5852164  88.9034708 119.3589401
 126.2189788  90.9296935 104.9252063 126.5143229  90.0207613 104.8719117
 125.3177824  90.9084675 104.6033065 129.7484035  89.0052932 110.9079612
 129.0270621  89.6188899 110.7687085 130.5377291  89.5410696 110.8296258
 132.5510349  86.3407358 117.1820263 133.0744750  86.5869655 117.9446573
 132.3322682  87.1727393 116.7623401 127.9477630  88.6111033 105.0491388
 127.6190336  87.7308412 104.8666494 128.3017000  88.5558701 105.9367777
 137.1957208 100.2465935 109.5586374 137.0482171  99.3182643 109.7393944
 138.0210702 100.2686026 109.0743449 131.0619453  88.8984003 105.4166866
 131.4015525  89.4269924 104.6945474 131.5091573  89.2364409 106.1925432
 133.7562894  87.2821053 114.8669934 133.4159714  86.4828866 115.2690614
 133.0501900  87.5822764 114.2946767 134.4079365  84.3670366 113.3197257
 135.2305435  83.8930844 113.1976147 134.6517429  85.1460849 113.8195943
 133.0487600  87.3958624 103.6160159 133.7695962  87.7739877 103.1123875
 132.4252904  88.1147501 103.7195137 137.1918723  88.1003773 104.5518491
 137.4082337  88.9828411 104.2507319 136.7112790  87.7089987 103.8224133
 131.9317944  91.0589486 111.1289235 131.7862525  91.3729789 112.0213517
 131.4543148  91.6774387 110.5760134 133.7914327  88.0492034 111.1770125
 133.7775896  87.1533128 110.8402423 134.5086755  88.0562698 111.8108411
 135.6440458  88.4829375 113.2223252 135.3858236  89.4046445 113.2207583
 135.1125498  88.0859809 113.9123717 140.5886646 101.5880162 106.0013338
 140.7623524 101.0226584 105.2487190 141.0815538 102.3881057 105.8192828
 126.4063606  93.5994831 114.0676897 125.8617074  94.3754639 114.1997171
 127.2842956  93.9465635 113.9096018 133.1951223  86.9306415 106.4457695
 133.3167134  86.0023061 106.6448583 132.9053265  86.9445101 105.5336011
 136.0642413  84.6161325 109.5824415 136.0864110  84.6800658 108.6276395
 136.4810472  83.7765834 109.7764921 127.1929628  92.7264727 116.9607054
 126.4511364  92.8747362 117.5471684 126.8722372  92.9872993 116.0973803
 135.1593903 104.4218615 108.9892820 134.7198893 103.9294994 109.6825677
 135.9102020 103.8791583 108.7484895 127.6386242 100.6130156 108.9917448
 128.4644262 100.3133928 108.6116092 127.2880294  99.8437778 109.4407237
 132.6067775  99.9656624 111.0615122 131.9847784  99.3027329 110.7617350
 133.2772642  99.9917756 110.3788770 125.8394847  98.5316482 109.9506382
 125.0026755  98.1038657 109.7690383 125.8118492  98.7248926 110.8877173
 132.6792302  88.4438412 120.6547628 132.7280458  89.3200535 120.2725397
 133.2214817  87.9015805 120.0819271 132.1681282  98.5160547 104.5373582
 132.3169402  99.1996012 103.8840255 132.9747725  98.4965637 105.0523038
 134.9091591  89.1969784 117.4093986 134.0394900  89.4903350 117.1376575
 135.1451071  89.7810229 118.1301250 129.9233915  94.5425725 105.5434651
 129.6779957  93.6388055 105.7414861 130.0929829  94.5442875 104.6014129
 137.6130625  85.4149401 114.9259407 138.1312569  86.1510428 114.6005895
 137.2585758  85.7213395 115.7606166 129.1929562  90.2754082 103.0420813
 128.4998807  90.3498437 102.3860849 128.9481314  89.5114426 103.5642330
 137.8643219  81.8349684 110.4460303 138.1444973  81.1672873 111.0720730
 138.6493826  82.0278779 109.9334967 135.6676687 101.0108678 102.0085330
 135.0950655 101.6298865 101.5555802 136.2409481 101.5608039 102.5425252
 139.7566457  87.3422901 114.3791279 139.1616389  87.6227914 113.6837768
 139.4716153  87.8316802 115.1508021 138.8873947 101.2945828 103.1393912
 139.8204620 101.2291390 103.3426788 138.7997160 102.1302095 102.6808445
 136.0523486  92.3469490  99.3501382 136.9982591  92.2175699  99.4189800
 135.6737731  91.6084152  99.8270810 134.2366403  90.2719467  99.2856267
 133.3297858  89.9752580  99.3618981 134.5142384  89.9749285  98.4190554
 125.1544343  91.5925830 109.7355314 124.8347128  90.7391138 109.4429688
 124.6077772  91.8074408 110.4913281 128.9324251  94.3088271 113.4524820
 129.1510261  95.2405379 113.4712854 129.3450025  93.9496246 114.2379624
 135.8528469  84.8156357 105.4400509 135.0429197  84.4703442 105.8155755
 136.5412886  84.5063900 106.0288120 137.7819017  83.8934403 107.0624805
 138.3350056  84.3129857 107.7214828 138.0189103  82.9670152 107.1047761
 133.0065188  87.1306402  99.4268247 133.8684352  87.4561300  99.6864064
 133.1915532  86.3437898  98.9141312 125.0232603  95.2128742 111.7048435
 124.3296075  94.7982695 111.1918390 125.7705594  95.2549278 111.1081854
 139.6101391  85.4039986 108.7724790 140.1101169  85.5156521 107.9639109
 140.2536998  85.1001039 109.4125598 126.9369346  95.1446996 109.5814450
 126.9140034  95.2434683 108.6296333 127.2469982  95.9912146 109.9031616
 129.5956724  97.2023151 113.6961065 130.5499977  97.1707093 113.6290996
 129.3969247  96.7413774 114.5111291 130.1856106  95.7724267 116.2631862
 131.0048995  96.2668345 116.2866700 130.4592914  94.8556235 116.2349430
 139.9422702  88.1635019 105.6259818 139.0548557  88.4484670 105.4080013
 140.3576691  88.0028782 104.7787095 127.9506953 102.7442770 110.7131263
 127.8161421 101.9843171 110.1469261 127.5339015 103.4683670 110.2460051
 139.0865916  97.9279694  99.7207838 139.7901766  98.1329696 100.3365493
 138.3628564  98.4956455  99.9856921 139.9163726  93.6789555 105.8410108
 139.8598927  94.1358106 105.0017740 140.4692068  92.9180239 105.6632951
 131.1076079 103.6412087 110.9249705 130.9908463 104.5857520 110.8228396
 130.2868525 103.3385649 111.3135504 140.6498505  94.8694336 103.1362637
 140.5947309  94.7038608 102.1951081 140.0244561  95.5770369 103.2924827
 125.4391020  90.1062400 116.9624059 126.0849884  89.5961354 117.4511285
 125.2308171  90.8431082 117.5367485 133.9594631  84.3702445 102.7147956
 133.9473301  85.3144285 102.8716226 134.8518053  84.1872591 102.4207417
 133.8884195 103.0471336 110.8015712 132.9379826 103.0473197 110.6880085
 134.1916681 102.3004070 110.2851747 137.7746750  80.9645222 106.9693892
 137.0079146  80.4103708 107.1150575 138.1857455  81.0367091 107.8308044
 129.7788511  87.2530018 121.0599074 130.6419973  86.8966822 121.2702398
 129.2053922  86.9143912 121.7474478 140.3048987 106.3906344 107.5753195
 139.5080150 106.5025038 108.0936691 140.0774579 106.7292996 106.7094086
 137.2907158 107.7673962 107.4112919 137.0931558 107.1743323 106.6863986
 136.7353822 107.4626172 108.1288858 139.7853383 107.2937996 105.0953871
 138.8550971 107.2322451 105.3123833 139.8810855 106.7713949 104.2990512
 139.7038932 103.8192809 107.6832113 139.9645750 104.7338142 107.5741273
 140.5256105 103.3517251 107.8328726 137.0583542 106.2588853 104.9252063
 137.3536984 105.3499531 104.8719117 136.1571578 106.2376592 104.6033065
 138.7871384 103.9402950 105.0491388 138.4584090 103.0600329 104.8666494
 139.1410755 103.8850619 105.9367777 140.7627669 109.8717643 105.5434651
 140.5173711 108.9679973 105.7414861 140.9323584 109.8734793 104.6014129
 140.0323317 105.6046000 103.0420813 139.3392562 105.6790355 102.3860849
 139.7875069 104.8406344 103.5642330  78.5401778   4.2547618  93.3954457
  78.4625807   5.2055443  93.4742937  77.9363421   3.9093490  94.0529383
  80.8140147  -0.3870229  92.1159997  80.6785821   0.4581307  92.5444844
  81.3549959  -0.1850951  91.3525930  76.0764429   0.2470965  94.7710675
  76.2531057   1.1688930  94.5831659  76.8721262  -0.0670616  95.2005055
  77.1995744   1.7649139 100.7721017  77.7503169   1.6366202  99.9998011
  76.3607220   2.0644028 100.4215910  83.4136307   3.6863977  88.5515720
  82.7398006   3.9895674  89.1600677  83.8002129   4.4893057  88.2021177
  80.3242293   1.3042502  95.9477462  80.2818472   1.5303348  95.0185994
  81.2404992   1.0705876  96.0963264  83.2602939   0.5623626 100.0951793
  83.3139961   1.1314563 100.8629509  82.3917720   0.7325511  99.7305830
  81.6127522   3.8543649  90.7662799  81.7879278   3.3831692  91.5808421
  80.9260310   4.4809415  90.9944059  76.1788607   7.0033012  97.5402659
  76.4185206   7.6351536  98.2181677  75.3357804   6.6521052  97.8268018
  80.6916469   2.8112134  99.9444163  80.6186641   3.6167106 100.4563467
  80.2493862   3.0104100  99.1192184  80.4806249   2.0483904  93.4546984
  79.6973771   2.5905585  93.5485209  81.1798994   2.5657884  93.8541226
  83.1515153   2.7098968 102.1002322  83.8643125   3.3446433 102.0278223
  82.6605182   2.8062834 101.2842323  78.2027066   0.4593412 102.9207892
  78.9036526   1.0929895 103.0737287  77.7322181   0.8008143 102.1603532
  82.9635526   3.0497713  94.8488613  83.1457921   2.2319368  95.3116365
  83.7868512   3.2665405  94.4113503  83.2977692   1.9765898  92.1103662
  83.8265458   1.4658352  91.4973824  83.5605911   1.6608428  92.9749195
  73.7994784  -0.0070233  99.8538995  74.3848221  -0.7526545  99.9866899
  73.6019623   0.3033724 100.7375659  76.6533440   3.0281014  94.8701437
  75.9843815   3.5127142  94.3865477  76.5146309   3.2750235  95.7844816
  80.7938708   5.0624758 101.4684096  81.3457016   5.2256379 102.2333181
  81.1344902   5.6529196 100.7964121  83.9307096   3.0106733  98.4547778
  83.8058235   2.2096473  97.9458723  84.5886187   3.5052927  97.9661748
  80.9404520   2.6283239 103.4832750  81.2491646   2.3832386 104.3555450
  81.7380002   2.8329878 102.9951620  80.9625132   4.7821149  95.7138127
  80.5230122   4.2897528  96.4070983  81.7133249   4.2394117  95.4730202
  73.4417471   0.9732690  95.7162755  74.2675491   0.6736462  95.3361398
  73.0911523   0.2040312  96.1652543  78.4099004   0.3259158  97.7860428
  77.7879013  -0.3370137  97.4862656  79.0803871   0.3520290  97.1034076
  71.6426076  -1.1080984  96.6751688  70.8057984  -1.5358809  96.4935690
  71.6149721  -0.9148540  97.6122480  81.4707916   1.3711212  88.7330636
  80.8981883   1.9901399  88.2801108  82.0440710   1.9210574  89.2670558
  84.6905176   1.6548362  89.8639219  85.6235849   1.5893924  90.0672094
  84.6028389   2.4904629  89.4053751  73.7538181   3.1045304  97.4376569
  73.6192649   2.3445705  96.8714567  73.3370244   3.8286204  96.9705358
  76.9107307   4.0014621  97.6495012  76.7939691   4.9460054  97.5473702
  76.0899754   3.6988183  98.0380811  77.9361821   4.6542883 100.8650940
  78.8389068   4.6866493 101.1817435  77.7099192   3.7243334 100.8797276
  79.6915423   3.4073870  97.5261019  78.7411054   3.4075731  97.4125391
  79.9947910   2.6606604  97.0097054  95.4268117   9.2434408  98.5906781
  96.0646527   9.1241155  97.8870121  95.3088960  10.1915252  98.6494733
  92.2357823   9.1961836  98.5268306  91.8976335   9.0802901  97.6388841
  93.1047591   8.7953001  98.5069312  88.0944639  11.0497313  94.5165197
  87.5309504  10.9587250  93.7481485  87.9797034  10.2297217  94.9967689
  92.7177606  10.3496688 104.4854512  92.7066247   9.9549486 103.6135015
  92.8798246   9.6162761 105.0788283  85.6409071  12.5448504  97.3549417
  86.4330363  12.2039329  96.9395717  85.8805721  12.6543479  98.2751571
  93.6744198  14.7168280  89.8279662  93.0232177  15.3022361  89.4413676
  94.4688560  15.2474475  89.8874699  87.5999825  11.8057418  90.2266796
  88.3730701  11.2586405  90.0879672  87.9525224  12.6701667  90.4381258
  89.4384867  13.1333800 103.4333696  89.1474733  14.0379431 103.3180362
  90.0741852  13.1750327 104.1477765  90.3641074  10.5110648 100.0235055
  90.9604646  10.2866671  99.3092018  90.4216046   9.7695394 100.6260503
  89.9366103   7.9650084  87.8585246  90.1891623   7.4431605  87.0968709
  88.9990662   7.8016229  87.9611930  94.9809385   6.9685862  95.6659989
  95.7672475   6.5505285  95.3150406  95.2448090   7.8731954  95.8341638
  95.1519463  12.4058712  90.3648646  94.5165296  12.4793339  91.0769551
  94.8216869  12.9952311  89.6867725  89.6562391   9.8678190  90.0609621
  89.5398649   9.1923093  90.7290705  89.7664651   9.3810564  89.2441774
  91.9993932   9.3288337  93.7656310  91.6352140   8.8018958  94.4769232
  92.8561048   8.9386806  93.5922796  91.6399419   4.3578236  88.7617659
  91.8073822   5.2258473  89.1288130  91.4496588   4.5205518  87.8378948
  94.3974752  12.8195215 100.4283489  94.0975476  13.7220254 100.3199296
  94.0525812  12.5527398 101.2804642  87.8487234   9.2709012  96.4620194
  86.9237730   9.1385226  96.6697885  88.0971647  10.0503231  96.9590136
  91.6188640   6.8135894  89.7464326  91.4988265   7.2592945  90.5849806
  90.9241229   7.1621212  89.1877864  85.2096045   8.9142286  97.2963983
  85.3388426   9.1676765  98.2103394  84.5293496   9.5069994  96.9768638
  89.3795532  19.5839536  93.3954457  89.3019562  20.5347361  93.4742937
  88.7757176  19.2385408  94.0529383  91.8712762   6.7567401 106.0515824
  91.0946096   7.3161321 106.0418688  92.5103325   7.2424184 106.5730694
  97.3173706   7.2857367  90.5744660  98.2291562   7.5184754  90.3992357
  96.8083353   7.8694411  90.0119738  90.1259134   9.5652854 105.6133791
  90.8673819  10.1037898 105.3368614  89.4196120  10.1919143 105.7705343
  95.6014474  11.7081995 104.2105952  96.0097830  11.2664405 103.4660585
  94.8791735  11.1334622 104.4640145  91.9545544   6.6454602 101.5839509
  92.8006739   7.0694015 101.7274158  91.8944182   5.9888226 102.2778072
  95.9243289  12.2683186  97.9658241  95.2952151  12.4328900  97.2634309
  95.5368951  12.6824795  98.7369205  99.8032521  13.2037623  95.3202605
  99.1183559  13.5836525  94.7699638  99.8876370  13.8132950  96.0534553
  97.0583452  10.8497582 101.9197948  97.2700347  11.4929342 101.2432330
  97.0113200  10.0159899 101.4519879  91.4771251  12.0057594  95.2308326
  91.9409596  12.2845297  94.4412949  91.2128049  11.1041038  95.0481417
  88.3695332  11.5529075  98.1688090  88.9396689  11.9816344  97.5305574
  88.9603443  11.2711660  98.8672275  90.4140137   8.1280746  92.0397891
  91.1164180   8.5801790  92.5071818  90.0820765   7.4864565  92.6677785
  88.8620498   6.7192503 106.4149101  88.2319159   7.4008783 106.6484498
  88.7556586   6.6075584 105.4702239  84.1565471   6.3864299  97.3415025
  83.3664525   6.6421827  96.8655136  84.6476718   7.2012636  97.4467066
  98.1729280  13.7269538 100.0920306  98.9946724  13.3249725  99.8102987
  98.1691683  13.6237772 101.0436422  86.1080216   6.7508878  94.2998502
  85.3111379   6.8627572  94.8181997  85.8805808   7.0895530  93.4339392
  91.9385884  13.2753581 102.2481016  92.0030316  13.7373988 103.0839188
  91.2296807  12.6450946 102.3763326  82.4403174   6.6394789  99.7730016
  82.6911212   7.5241799 100.0387592  82.9762722   6.4599391  99.0005108
 106.2635273  10.0708286  96.4405277 105.5098982   9.5015684  96.2849282
 106.3982814  10.0370951  97.3875912  91.6533901  14.9421689  92.1159997
  91.5179576  15.7873224  92.5444844  92.1943714  15.1440966  91.3525930
  85.1063299  12.4597127  92.6887922  85.6187819  13.2540377  92.8393486
  85.7586011  11.7623417  92.6221523  86.9158183  15.5762883  94.7710675
  87.0924812  16.4980848  94.5831659  87.7115017  15.2621302  95.2005055
  86.2010540   7.6227515 104.6472838  86.0864055   6.7212772 104.9479937
  85.3455058   7.8691212 104.2957655  93.2802378  15.5645255 106.2460339
  92.8366232  14.7781634 105.9281243  93.9419591  15.7524406 105.5804230
  88.0389499  17.0941057 100.7721017  88.5896924  16.9658120  99.9998011
  87.2000975  17.3935946 100.4215910  95.3783616  15.8448055 104.2741740
  95.3602091  16.6656936 103.7822009  96.3003536  15.7202130 104.4991881
  91.8356670  13.3592185 105.1165248  92.3685007  12.5980473 104.8864556
  91.3070751  13.0665836 105.8589403  83.0712215  10.7885781  93.4647492
  83.9087437  11.1982789  93.2481200  83.2490483   9.8485223  93.4347686
  94.9676647   8.4560862  89.1531325  94.4523271   9.2265466  89.3919713
  94.6953956   7.7825998  89.7764387  99.9410922  11.2093216  91.0884499
  99.1640364  10.8704376  90.6439661 100.6202403  11.2145839  90.4139464
  94.7562951   6.3287954  90.9791106  94.4513086   6.6434103  91.8301250
  95.7093393   6.4069374  91.0218439  93.2009382  12.4878177  92.6284060
  92.6730744  11.7530937  92.3157298  92.6996885  13.2652853  92.3824029
  98.1802229  10.6827197  97.7451107  97.5225903  11.3726459  97.8331235
  98.9842628  11.0723629  98.0885093  87.9328110   3.1497843  94.9890672
  88.5071862   2.9273025  94.2563865  88.5199093   3.2186538  95.7419273
  96.9907687   9.0371570  95.7955048  97.5039569   9.6701562  96.2976758
  97.6408911   8.4372766  95.4298408  88.2597697   5.1802304  89.0086557
  87.4235009   5.5176991  89.3295832  88.1202467   5.0451284  88.0713694
  91.3461983  10.3058387  85.6319033  90.4389044  10.0747641  85.8310182
  91.8433015   9.5096007  85.8193015  94.2530062  19.0155894  88.5515720
  93.5791760  19.3187591  89.1600677  94.6395884  19.8184975  88.2021177
  93.4688518   6.5121026  98.0413389  92.5511080   6.7335973  97.8835077
  93.8848662   6.5867336  97.1825096  94.2523566   7.9112441  93.1716069
  94.9995385   8.4233839  92.8623191  94.5215155   7.5896494  94.0320463
  92.5250216  10.4070982  90.1543023  91.6161435  10.1230015  90.2515493
  92.5545300  10.8270061  89.2946330  97.7569484  14.0177572  93.9234191
  97.3031811  13.1768481  93.9799382  97.1263450  14.6538970  94.2608971
  96.2002423  15.8554068  94.8584009  96.4925397  16.4159125  94.1396375
  96.7101043  16.1482629  95.6137168  83.0938386   8.1276496  94.1358226
  82.8962786   7.5345857  93.4109292  82.5385050   7.8228706  94.8534164
  91.0735110   8.0199603  96.2552819  91.1283720   7.0673439  96.1795295
  90.2626312   8.1759042  96.7394117  92.2226304  11.9479726  87.4931102
  91.7845734  11.2315585  87.0336739  92.9636745  12.1755841  86.9316193
  89.0127470   6.6376662  94.0143198  88.1995336   6.9370833  94.4208390
  89.5086464   6.2432351  94.7317680  91.1636048  16.6334419  95.9477462
  91.1212227  16.8595266  95.0185994  92.0798747  16.3997794  96.0963264
  94.6101682   7.1018487 102.8458092  94.9651069   7.3289960 103.7052557
  95.2573813   7.4336864 102.2235347 100.3399419  10.2236923  93.5507421
 100.2017317  10.4138519  92.6228610  99.9835638  10.9856306  94.0075472
  88.5041545   4.2095018  99.6304433  89.1440924   4.0683777  98.9327396
  87.6719075   3.9229531  99.2543035 100.3668798  12.2913450  98.5618692
 100.8005305  12.1988739  99.4101746 101.0800379  12.2670950  97.9238708
  89.2801849  13.5097448  95.7439425  90.0742447  13.0147769  95.5422000
  88.5693541  12.9815312  95.3807131  94.0996693  15.8915544 100.0951793
  94.1533715  16.4606480 100.8629509  93.2311475  16.0617429  99.7305830
  85.5884612   7.6540530  91.8199178  84.6582200   7.5924986  92.0369140
  85.6842084   7.1316483  91.0235819  85.5070161   4.1795343  94.4077419
  85.7676979   5.0940676  94.2986580  86.3287334   3.7119786  94.5574032
  86.9795087   5.5933100 101.5776244  87.6518140   5.3850462 100.9288893
  86.1524873   5.3955186 101.1381476 101.2284348  12.3337150 101.0951578
 101.4220238  13.2382961 101.3410852 101.1284966  11.8744570 101.9290163
  96.2899457  12.4843893 106.6692458  96.1384963  12.2554445 105.7522542
  96.2804136  13.4414495 106.6823803  93.0584793  10.0575806 101.6538725
  93.9876853  10.2086966 101.4807692  92.6375823  10.1459827 100.7987371
  91.8573125  14.0826470  99.4237262  91.7184210  13.7145255 100.2963200
  91.0687721  14.5974110  99.2521220  92.4521277  19.1835567  90.7662799
  92.6273032  18.7123610  91.5808421  91.7654065  19.8101333  90.9944059
  93.4078340  13.4608073  96.8126100  93.0728172  13.4208843  97.7083750
  92.9082286  12.7952789  96.3396510  87.3822584   8.8675703 102.3378681
  87.2442382   8.1355942 102.9390220  88.2927507   8.7784603 102.0562869
  96.3437532  10.8064107  87.0863160  95.7266702  10.0810936  86.9896212
  95.8754020  11.5673468  86.7430234  90.0104884   8.5795662 101.8262361
  90.7204503   7.9388855 101.7848979  89.9674193   8.8308557 102.7488542
  97.9991663  15.5163016 104.7468940  97.9404209  14.8322236 104.0799523
  98.4011182  16.2582006 104.2949566  88.7233818   5.5660880 103.6458000
  88.1871175   5.1151619 104.2979597  88.1350527   5.7006789 102.9028465
  87.0182362  22.3324930  97.5402659  87.2578960  22.9643454  98.2181677
  86.1751558  21.9812970  97.8268018  88.1336077   5.0249532  86.2084464
  87.2565544   4.9038333  85.8446711  88.6093830   4.2335610  85.9563353
  98.0009070  13.4802600 102.9782920  97.1135849  13.1428522 103.1009319
  98.5707622  12.7485631 103.2151685  79.6538218   9.8126691  96.3025971
  80.3409257   9.4988421  95.7146986  79.4986346  10.7168056  96.0293223
  84.4572940   4.7016888 100.7310995  84.3731128   4.0942558  99.9961405
  83.6355646   5.1925906 100.7320491  91.5310224  18.1404052  99.9444163
  91.4580395  18.9459024 100.4563467  91.0887617  18.3396018  99.1192184
  91.3200003  17.3775822  93.4546984  90.5367525  17.9197502  93.5485209
  92.0192749  17.8949802  93.8541226 102.4826411   8.8910817  97.7399481
 102.4716287   9.7735533  97.3693414 101.6143790   8.5382368  97.5454018
  93.9908907  18.0390886 102.1002322  94.7036880  18.6738351 102.0278223
  93.4998936  18.1354752 101.2842323  95.7126434  11.9442139  93.6719613
  94.7782713  12.0643601  93.5024318  95.8903103  11.0414606  93.4079623
  91.2131622   5.3287835  95.8252874  90.8429410   4.7758875  96.5133780
  91.7090715   4.7245968  95.2727874  99.0998986   7.7859458  94.2069647
  99.5659438   8.6187450  94.1329950  99.5506486   7.3204440  94.9114906
  89.0420821  15.7885330 102.9207892  89.7430280  16.4221813 103.0737287
  88.5715936  16.1300061 102.1603532  97.1675217  14.1303279  91.2055799
  97.4435061  14.0159874  92.1149673  96.2979715  13.7320764  91.1667972
  96.8422107   8.3429937 100.7460443  96.1893557   8.5905844 100.0912895
  97.2202487   7.5294075 100.4122920  93.8029281  18.3789630  94.8488613
  93.9851675  17.5611286  95.3116365  94.6262267  18.5957322  94.4113503
  94.1371446  17.3057815  92.1103662  94.6659213  16.7950270  91.4973824
  94.3999666  16.9900346  92.9749195  92.8909680   9.0849748 107.2326480
  92.2150317   8.9843877 107.9028855  93.7137314   8.9288962 107.6962477
  84.6388539  15.3221685  99.8538995  85.2241976  14.5765373  99.9866899
  84.4413377  15.6325641 100.7375659  87.4927194  18.3572932  94.8701437
  86.8237569  18.8419060  94.3865477  87.3540064  18.6042152  95.7844816
  79.2306194   7.8927285  98.5743438  79.2690293   7.3590876  99.3680556
  78.7246487   7.3662490  97.9554415  91.6332463  20.3916676 101.4684096
  92.1850771  20.5548297 102.2333181  91.9738656  20.9821113 100.7964121
  86.6096956   2.7391825 102.0705981  86.6738282   3.6006656 101.6583378
  86.5464076   2.1265827 101.3378339  86.0849229   4.8114958 105.7179015
  86.7121267   4.4292035 106.3316539  85.2277147   4.5929160 106.0834707
  96.4843337  15.2177933 107.3232750  97.0283241  15.8307891 106.8287705
  95.9030182  15.7757511 107.8399763  82.8614771   6.6191387  91.6497370
  83.1568212   5.7102065  91.5964423  81.9602807   6.5979126  91.3278372
  94.7700850  18.3398651  98.4547778  94.6451989  17.5388391  97.9458723
  95.4279941  18.8344844  97.9661748  86.3909018   4.6947384  97.6324918
  85.6695604   5.3083351  97.4932392  87.1802274   5.2305148  97.5541564
  96.8335758  16.1407671 100.0827328  95.8866094  16.0213022 100.0105655
  97.1818532  15.2530169 100.1653589  84.5902613   4.3005485  91.7736695
  84.2615319   3.4202864  91.5911801  84.9441984   4.2453153  92.6613084
  93.8382192  15.9360387  96.2831680  93.6907154  15.0077095  96.4639250
  94.6635685  15.9580478  95.7988756  87.7044436   4.5878454  92.1412172
  88.0440509   5.1164376  91.4190781  88.1516556   4.9258861  92.9170739
  97.4416314  16.7588946  97.3696553  98.3662861  16.5531807  97.2321004
  97.2731617  16.5105347  98.2785895  89.6912583   3.0853076  90.3405465
  90.4120946   3.4634329  89.8369182  89.0677887   3.8041953  90.4440443
  88.5742927   6.7483938  97.8534542  88.4287508   7.0624241  98.7458824
  88.0968131   7.3668839  97.3005441  92.2865441   4.1723826  99.9468559
  92.0283219   5.0940897  99.9452890  91.7550481   3.7754261 100.6369023
  97.2311630  17.2774614  92.7258644  97.4048507  16.7121036  91.9732497
  97.7240521  18.0775508  92.5438134  83.0488590   9.2889283 100.7922203
  82.5042058  10.0649091 100.9242478  83.9267939   9.6360087 100.6341325
 103.0851021  10.0411036  94.3448944 103.5282167   9.2918362  93.9468067
 102.2077531  10.0321173  93.9622676  98.2186802  16.5941378  89.8255543
  98.9137707  17.2148071  90.0442857  98.5609952  15.7436729  90.1007921
  83.8354611   8.4159179 103.6852360  83.0936347   8.5641814 104.2716991
  83.5147356   8.6767444 102.8219110 100.1178225  14.0441083  91.3542874
 100.6429549  14.3828356  90.6292194 100.0300578  13.1088099  91.1706008
  91.7798274  17.9575157 103.4832750  92.0885401  17.7124304 104.3555450
  92.5773756  18.1621796 102.9951620  91.8018886  20.1113067  95.7138127
  91.3623876  19.6189445  96.4070983  92.5527003  19.5686034  95.4730202
  84.2811225  16.3024608  95.7162755  85.1069245  16.0028379  95.3361398
  83.9305277  15.5332230  96.1652543  89.2492758  15.6551076  97.7860428
  88.6272768  14.9921781  97.4862656  89.9197625  15.6812208  97.1034076
  82.4819830  14.2210934  96.6751688  81.6451738  13.7933108  96.4935690
  82.4543476  14.4143377  97.6122480  89.3217286   4.1332864 107.3792934
  89.3705441   5.0094987 106.9970704  89.8639800   3.5910257 106.8064578
  99.8072131  14.6773987 106.6594072  99.0167675  14.6598126 106.1198571
  99.5705486  15.2162281 107.4143108  99.9270007  11.5266453 103.9726800
  99.9768011  11.3616461 104.9142323  99.8183930  10.6593713 103.5824681
  88.8106265  14.2054999  91.2618889  88.9594386  14.8890464  90.6085562
  89.6172709  14.1860089  91.7768345  97.2173769   7.5097382 105.2886107
  98.1183632   7.3703846 104.9970105  97.2921743   7.6751836 106.2284284
  91.5516574   4.8864236 104.1339293  90.6819884   5.1797802 103.8621882
  91.7876055   5.4704681 104.8546557 101.4288203  13.9463395 104.2168822
 101.1373012  14.3093376 105.0532283 100.8160335  13.2330403 104.0382154
 102.6283886  11.5116275  96.7371392 103.4630777  11.9506079  96.9008952
 102.7643014  11.0354928  95.9179638  99.6775392   9.0696010 102.6848880
 100.1529513   9.2623656 101.8767731  98.7540957   9.1255195 102.4392263
  86.5658898  10.2320177  92.2679958  86.3204940   9.3282507  92.4660168
  86.7354813  10.2337327  91.3259436  85.8354546   5.9648534  89.7666119
  85.1423791   6.0392889  89.1106155  85.5906298   5.2008878  90.2887636
  92.3101671  16.7003130  88.7330636  91.7375638  17.3193317  88.2801108
  92.8834464  17.2502491  89.2670558  95.5298931  16.9840280  89.8639219
  96.4629604  16.9185841  90.0672094  95.4422143  17.8196547  89.4053751
  98.1586947  16.3006150  86.8243166  98.0800579  15.9666014  87.7178924
  98.9796614  16.7927918  86.8234639 100.8565138   9.1667889 100.0319485
 100.8241458   8.2283890 100.2179169 101.4665762   9.2451926  99.2985310
  92.6948469   8.0363942  86.0746689  93.6407574   7.9070150  86.1435107
  92.3162714   7.2978604  86.5516117 106.6741688  10.2283896  99.1725522
 107.4045077   9.9669184  99.7333225 106.0648634   9.4912618  99.2127590
 104.7556985   8.3691759  99.7699973 104.0290149   8.2347724  99.1616464
 104.3404272   8.6768587 100.5756691  92.5787162  12.0881689 107.5347346
  93.4990171  12.2660288 107.7287392  92.5436745  11.1437734 107.3827045
  90.8791386   5.9613919  86.0101574  89.9722842   5.6647031  86.0864288
  91.1567367   5.6643737  85.1435860  81.7969327   7.2820282  96.4600620
  81.4772111   6.4285590  96.1674994  81.2502755   7.4968860  97.2158588
  85.5749234   9.9982723 100.1770127  85.7935244  10.9299831 100.1958161
  85.9875008   9.6390698 100.9624931  90.4477100   5.5715929 109.5672876
  90.3473827   6.5210286 109.4984967  90.2298642   5.2434168 108.6948946
  81.6657587  10.9023194  98.4293742  80.9721058  10.4877146  97.9163696
  82.4130578  10.9443730  97.8327161  90.3108370   9.0013068 108.3837938
  89.8275451   9.8013428 108.5901827  90.3969309   9.0121013 107.4305382
  83.5794329  10.8341447  96.3059757  83.5565017  10.9329135  95.3541640
  83.8894966  11.6806598  96.6276923  86.2381707  12.8917602 100.4206371
  87.1924961  12.8601545 100.3536303  86.0394231  12.4308226 101.2356597
  86.8281089  11.4618719 102.9877169  87.6473978  11.9562797 103.0112006
  87.1017897  10.5450687 102.9594737  84.5931936  18.4337222  97.4376569
  84.4586404  17.6737623  96.8714567  84.1763998  19.1578122  96.9705358
  95.7290899  13.6174145  86.4453145  96.4326749  13.8224148  87.0610800
  95.0053548  14.1850907  86.7102228  96.5588709   9.3684007  92.5655415
  96.5023911   9.8252558  91.7263047  97.1117052   8.6074691  92.3878257
  87.7501062  19.3306539  97.6495012  87.6333446  20.2751971  97.5473702
  86.9293508  19.0280101  98.0380811  97.6377596  14.0556675  88.4951605
  98.4723200  13.6237873  88.3129079  97.4761939  13.8838688  89.4228499
  97.2923489  10.5588788  89.8607944  97.2372292  10.3933059  88.9196388
  96.6669544  11.2664821  90.0170134  82.0816004   5.7956852 103.6869366
  82.7274867   5.2855806 104.1756591  81.8733155   6.5325534 104.2612791
  94.6069396  12.8637700 109.1861507  95.4760555  13.0378352 108.8248142
  94.1276147  13.6832117 109.0637236  88.7755576  19.9834801 100.8650940
  89.6782823  20.0158411 101.1817435  88.5492946  19.0535252 100.8797276
  90.5309178  18.7365787  97.5261019  89.5804809  18.7367649  97.4125391
  90.8341664  17.9898522  97.0097054  86.4213495   2.9424469 107.7844380
  87.2844956   2.5861274 107.9947705  85.8478905   2.6038364 108.4719785
 106.2661871  24.5726326  98.5906781 106.9040281  24.4533073  97.8870121
 106.1482714  25.5207170  98.6494733 103.0751578  24.5253754  98.5268306
 102.7370089  24.4094819  97.6388841 103.9441346  24.1244919  98.5069312
  98.9338393  26.3789230  94.5165197  98.3703259  26.2879167  93.7481485
  98.8190788  25.5589135  94.9967689 103.5571361  25.6788606 104.4854512
 103.5460001  25.2841404 103.6135015 103.7192000  24.9454678 105.0788283
  96.4802825  27.8740422  97.3549417  97.2724117  27.5331247  96.9395717
  96.7199476  27.9835397  98.2751571 104.5137952  30.0460198  89.8279662
 103.8625932  30.6314278  89.4413676 105.3082315  30.5766393  89.8874699
  98.4393579  27.1349335  90.2266796  99.2124455  26.5878322  90.0879672
  98.7918978  27.9993584  90.4381258 100.2778622  28.4625717 103.4333696
  99.9868488  29.3671348 103.3180362 100.9135606  28.5042245 104.1477765
 101.2034829  25.8402566 100.0235055 101.7998401  25.6158588  99.3092018
 101.2609800  25.0987311 100.6260503 100.7759857  23.2942001  87.8585246
 101.0285378  22.7723523  87.0968709  99.8384416  23.1308147  87.9611930
 105.8203140  22.2977780  95.6659989 106.6066229  21.8797203  95.3150406
 106.0841844  23.2023872  95.8341638 105.9913217  27.7350630  90.3648646
 105.3559050  27.8085256  91.0769551 105.6610624  28.3244229  89.6867725
 111.2211567  22.2353013  96.5692968 111.9536739  21.6652230  96.8030797
 110.4650923  21.8474613  97.0099473 100.4956146  25.1970107  90.0609621
 100.3792404  24.5215011  90.7290705 100.6058406  24.7102481  89.2441774
 102.8387687  24.6580254  93.7656310 102.4745894  24.1310875  94.4769232
 103.6954803  24.2678723  93.5922796 108.7436987  15.9474587 101.0287576
 108.4120312  16.8169998 100.8048791 108.1482601  15.6310871 101.7081607
 102.4793174  19.6870154  88.7617659 102.6467576  20.5550390  89.1288130
 102.2890343  19.8497436  87.8378948 105.2368507  28.1487133 100.4283489
 104.9369230  29.0512172 100.3199296 104.8919566  27.8819316 101.2804642
  98.6880988  24.6000930  96.4620194  97.7631485  24.4677144  96.6697885
  98.9365402  25.3795149  96.9590136 108.6365651  20.6669673  98.1080927
 107.7282528  20.5985082  97.8139688 108.5853247  21.1441618  98.9362752
 102.4582395  22.1427812  89.7464326 102.3382020  22.5884862  90.5849806
 101.7634983  22.4913129  89.1877864  96.0489799  24.2434203  97.2963983
  96.1782181  24.4968682  98.2103394  95.3687251  24.8361911  96.9768638
 100.2189287  34.9131453  93.3954457 100.1413316  35.8639278  93.4742937
  99.6150930  34.5677326  94.0529383 102.7106517  22.0859319 106.0515824
 101.9339851  22.6453239 106.0418688 103.3497080  22.5716102 106.5730694
 110.5027297  18.8686112  99.8858800 109.8601677  19.1618645  99.2398595
 109.9982226  18.7539032 100.6911997 108.1567461  22.6149285  90.5744660
 109.0685317  22.8476671  90.3992357 107.6477108  23.1986329  90.0119738
 100.9652889  24.8944772 105.6133791 101.7067573  25.4329816 105.3368614
 100.2589874  25.5211061 105.7705343 106.4408228  27.0373913 104.2105952
 106.8491585  26.5956323 103.4660585 105.7185490  26.4626540 104.4640145
 102.7939299  21.9746519 101.5839509 103.6400494  22.3985933 101.7274158
 102.7337936  21.3180144 102.2778072 106.7637043  27.5975103  97.9658241
 106.1345906  27.7620817  97.2634309 106.3762705  28.0116713  98.7369205
 110.6426275  28.5329541  95.3202605 109.9577313  28.9128442  94.7699638
 110.7270124  29.1424868  96.0534553 105.9438744  19.6350888 103.2420683
 105.6999676  20.3892948 102.7054959 106.2198674  20.0136235 104.0767930
 107.8977207  26.1789500 101.9197948 108.1094102  26.8221260 101.2432330
 107.8506955  25.3451817 101.4519879 105.5003436  18.7907321  98.8234521
 104.6387915  19.0888574  99.1151258 105.5265870  19.0077720  97.8915553
 102.3165005  27.3349511  95.2308326 102.7803351  27.6137214  94.4412949
 102.0521803  26.4332956  95.0481417  99.2089086  26.8820993  98.1688090
  99.7790443  27.3108261  97.5305574  99.7997198  26.6003578  98.8672275
 101.2533891  23.4572664  92.0397891 101.9557934  23.9093707  92.5071818
 100.9214520  22.8156483  92.6677785  99.7014253  22.0484420 106.4149101
  99.0712913  22.7300701 106.6484498  99.5950340  21.9367502 105.4702239
  94.9959225  21.7156216  97.3415025  94.2058279  21.9713745  96.8655136
  95.4870472  22.5304554  97.4467066 109.0123035  29.0561455 100.0920306
 109.8340478  28.6541643  99.8102987 109.0085437  28.9529690 101.0436422
  96.9473970  22.0800796  94.2998502  96.1505134  22.1919490  94.8181997
  96.7199563  22.4187448  93.4339392 102.7779638  28.6045499 102.2481016
 102.8424071  29.0665906 103.0839188 102.0690562  27.9742864 102.3763326
  93.2796928  21.9686707  99.7730016  93.5304966  22.8533717 100.0387592
  93.8156476  21.7891308  99.0005108 117.1029028  25.4000204  96.4405277
 116.3492736  24.8307602  96.2849282 117.2376569  25.3662868  97.3875912
 102.4927656  30.2713606  92.1159997 102.3573330  31.1165142  92.5444844
 103.0337468  30.4732884  91.3525930  98.9794995  16.3505186 108.7774352
  98.5861941  15.7971385 109.4521996  99.7961136  16.6615765 109.1680869
  95.9457053  27.7889044  92.6887922  96.4581574  28.5832295  92.8393486
  96.5979766  27.0915335  92.6221523  97.7551938  30.9054801  94.7710675
  97.9318566  31.8272765  94.5831659  98.5508771  30.5913220  95.2005055
 101.8962956  17.7663065 106.3694608 102.6372670  18.3670218 106.2899071
 102.1280879  17.0240703 105.8112651  97.0404294  22.9519432 104.6472838
  96.9257809  22.0504690 104.9479937  96.1848812  23.1983129 104.2957655
 104.1196132  30.8937173 106.2460339 103.6759986  30.1073551 105.9281243
 104.7813346  31.0816323 105.5804230  98.8783253  32.4232974 100.7721017
  99.4290678  32.2950038  99.9998011  98.0394729  32.7227863 100.4215910
 106.2177370  31.1739973 104.2741740 106.1995845  31.9948854 103.7822009
 107.1397290  31.0494048 104.4991881 102.6750424  28.6884102 105.1165248
 103.2078761  27.9272390 104.8864556 102.1464505  28.3957754 105.8589403
 105.8420119  13.7944168 100.6458890 105.4984389  14.6845810 100.5698001
 106.2099082  13.6045826  99.7828475  93.9105970  26.1177699  93.4647492
  94.7481192  26.5274707  93.2481200  94.0884238  25.1777141  93.4347686
 105.8070402  23.7852779  89.1531325 105.2917025  24.5557384  89.3919713
 105.5347710  23.1117915  89.7764387 103.3917513  18.6302480  94.2116564
 102.5359109  18.2409330  94.0322202 103.8044465  18.7094441  93.3516349
 104.9216660  16.1648823  98.6108123 104.4181455  16.1278958  97.7975929
 105.2147266  17.0741566  98.6704780 101.1659546  16.2487553  97.6174305
 102.0312542  16.0530362  97.2580195 101.2337054  16.0197905  98.5443662
 110.7804676  26.5385134  91.0884499 110.0034119  26.1996293  90.6439661
 111.4596157  26.5437757  90.4139464 105.5956705  21.6579871  90.9791106
 105.2906841  21.9726021  91.8301250 106.5487147  21.7361291  91.0218439
 104.0403137  27.8170095  92.6284060 103.5124499  27.0822854  92.3157298
 103.5390640  28.5944771  92.3824029 109.0195983  26.0119115  97.7451107
 108.3619657  26.7018377  97.8331235 109.8236382  26.4015547  98.0885093
  98.7721865  18.4789761  94.9890672  99.3465616  18.2564942  94.2563865
  99.3592847  18.5478455  95.7419273 107.8301442  24.3663488  95.7955048
 108.3433324  24.9993480  96.2976758 108.4802666  23.7664683  95.4298408
  99.0991452  20.5094222  89.0086557  98.2628764  20.8468909  89.3295832
  98.9596221  20.3743202  88.0713694 101.0744532  15.3531010  93.7165741
 100.4208945  15.0380027  93.0922356 101.0325006  14.7306750  94.4425564
 102.1855737  25.6350305  85.6319033 101.2782799  25.4039558  85.8310182
 102.6826769  24.8387924  85.8193015 105.0923816  34.3447812  88.5515720
 104.4185515  34.6479509  89.1600677 105.4789638  35.1476892  88.2021177
 104.3082273  21.8412943  98.0413389 103.3904834  22.0627890  97.8835077
 104.7242416  21.9159254  97.1825096 105.0917320  23.2404359  93.1716069
 105.8389139  23.7525756  92.8623191 105.3608910  22.9188412  94.0320463
 103.3643971  25.7362900  90.1543023 102.4555190  25.4521933  90.2515493
 103.3939054  26.1561978  89.2946330 108.5963238  29.3469489  93.9234191
 108.1425565  28.5060399  93.9799382 107.9657205  29.9830888  94.2608971
 107.5396158  20.2761475  95.1534859 106.8018914  19.7638862  95.4845101
 107.7922931  19.8361857  94.3418135 107.0396177  31.1845986  94.8584009
 107.3319152  31.7451043  94.1396375 107.5494798  31.4774547  95.6137168
 107.6407785  13.0537727  95.7476628 107.9466662  12.1935091  95.4602543
 108.3660390  13.6455348  95.5475622  93.9332141  23.4568414  94.1358226
  93.7356541  22.8637775  93.4109292  93.3778805  23.1520624  94.8534164
 101.9128865  23.3491520  96.2552819 101.9677474  22.3965357  96.1795295
 101.1020067  23.5050959  96.7394117 103.0620058  27.2771643  87.4931102
 102.6239488  26.5607502  87.0336739 103.8030499  27.5047758  86.9316193
  99.8521225  21.9668580  94.0143198  99.0389090  22.2662751  94.4208390
 100.3480219  21.5724269  94.7317680 102.0029802  31.9626337  95.9477462
 101.9605981  32.1887183  95.0185994 102.9192501  31.7289712  96.0963264
 105.4495436  22.4310405 102.8458092 105.8044824  22.6581878 103.7052557
 106.0967567  22.7628781 102.2235347 111.1793173  25.5528840  93.5507421
 111.0411072  25.7430436  92.6228610 110.8229392  26.3148223  94.0075472
  99.3435299  19.5386936  99.6304433  99.9834679  19.3975695  98.9327396
  98.5112830  19.2521449  99.2543035 111.2062553  27.6205368  98.5618692
 111.6399059  27.5280657  99.4101746 111.9194133  27.5962868  97.9238708
 100.1195603  28.8389366  95.7439425 100.9136202  28.3439686  95.5422000
  99.4087296  28.3107229  95.3807131 104.9390448  31.2207462 100.0951793
 104.9927470  31.7898398 100.8629509 104.0705229  31.3909347  99.7305830
  96.4278367  22.9832448  91.8199178  95.4975955  22.9216903  92.0369140
  96.5235839  22.4608401  91.0235819  96.3463916  19.5087261  94.4077419
  96.6070733  20.4232594  94.2986580  97.1681088  19.0411703  94.5574032
  97.8188841  20.9225018 101.5776244  98.4911894  20.7142380 100.9288893
  96.9918628  20.7247104 101.1381476 112.0678102  27.6629068 101.0951578
 112.2613992  28.5674879 101.3410852 111.9678721  27.2036487 101.9290163
 103.7214413  17.5486959 103.5941905 103.0742328  18.2476908 103.5006381
 104.4915428  17.9823103 103.9618153 107.1293211  27.8135811 106.6692458
 106.9778717  27.5846363 105.7522542 107.1197890  28.7706412 106.6823803
 103.8978547  25.3867724 101.6538725 104.8270607  25.5378883 101.4807692
 103.4769577  25.4751744 100.7987371 102.6966879  29.4118388  99.4237262
 102.5577965  29.0437172 100.2963200 101.9081475  29.9266027  99.2521220
 103.2915031  34.5127485  90.7662799 103.4666787  34.0415528  91.5808421
 102.6047819  35.1393251  90.9944059 104.2472094  28.7899991  96.8126100
 103.9121927  28.7500761  97.7083750 103.7476040  28.1244707  96.3396510
  98.2216338  24.1967621 102.3378681  98.0836136  23.4647860 102.9390220
  99.1321262  24.1076521 102.0562869 107.1831286  26.1356025  87.0863160
 106.5660457  25.4102853  86.9896212 106.7147774  26.8965385  86.7430234
 100.8498639  23.9087580 101.8262361 101.5598258  23.2680772 101.7848979
 100.8067947  24.1600475 102.7488542 108.8385418  30.8454933 104.7468940
 108.7797964  30.1614154 104.0799523 109.2404936  31.5873923 104.2949566
  99.5627573  20.8952798 103.6458000  99.0264930  20.4443536 104.2979597
  98.9744281  21.0298707 102.9028465  97.8576116  37.6616847  97.5402659
  98.0972715  38.2935371  98.2181677  97.0145313  37.3104887  97.8268018
  98.9729832  20.3541449  86.2084464  98.0959298  20.2330250  85.8446711
  99.4487585  19.5627528  85.9563353 108.8402825  28.8094517 102.9782920
 107.9529604  28.4720439 103.1009319 109.4101376  28.0777549 103.2151685
  90.4931972  25.1418609  96.3025971  91.1803012  24.8280339  95.7146986
  90.3380101  26.0459974  96.0293223  95.2966694  20.0308806 100.7310995
  95.2124883  19.4234475  99.9961405  94.4749401  20.5217824 100.7320491
 102.3703978  33.4695970  99.9444163 102.2974150  34.2750941 100.4563467
 101.9281371  33.6687936  99.1192184 102.1593758  32.7067740  93.4546984
 101.3761280  33.2489420  93.5485209 102.8586503  33.2241719  93.8541226
 105.4690408  18.5162369  96.0981190 105.9659108  17.7632332  95.7782260
 104.6977390  18.5526686  95.5324399 113.3220165  24.2202735  97.7399481
 113.3110042  25.1027450  97.3693414 112.4537545  23.8674286  97.5454018
 104.8302662  33.3682804 102.1002322 105.5430634  34.0030269 102.0278223
 104.3392690  33.4646670 101.2842323 106.5520189  27.2734056  93.6719613
 105.6176467  27.3935519  93.5024318 106.7296857  26.3706523  93.4079623
 102.0525377  20.6579752  95.8252874 101.6823164  20.1050793  96.5133780
 102.5484469  20.0537886  95.2727874 109.9392740  23.1151376  94.2069647
 110.4053192  23.9479367  94.1329950 110.3900241  22.6496357  94.9114906
  99.8814575  31.1177247 102.9207892 100.5824035  31.7513730 103.0737287
  99.4109690  31.4591979 102.1603532 108.0068971  29.4595197  91.2055799
 108.2828815  29.3451792  92.1149673 107.1373470  29.0612682  91.1667972
 107.9109403  15.4831963  98.2460549 106.9972483  15.7136190  98.4142756
 108.3402504  15.5670407  99.0974581 107.6815861  23.6721855 100.7460443
 107.0287312  23.9197762 100.0912895 108.0596241  22.8585993 100.4122920
 104.6423035  33.7081548  94.8488613 104.8245430  32.8903204  95.3116365
 105.4656021  33.9249240  94.4113503 104.9765201  32.6349733  92.1103662
 105.5052967  32.1242188  91.4973824 105.2393420  32.3192263  92.9749195
 103.7303434  24.4141666 107.2326480 103.0544071  24.3135795 107.9028855
 104.5531068  24.2580879 107.6962477  95.4782293  30.6513602  99.8538995
  96.0635730  29.9057290  99.9866899  95.2807132  30.9617559 100.7375659
  98.3320949  33.6864850  94.8701437  97.6631324  34.1710977  94.3865477
  98.1933818  33.9334070  95.7844816  90.0699948  23.2219203  98.5743438
  90.1084048  22.6882793  99.3680556  89.5640241  22.6954408  97.9554415
 102.4726217  35.7208593 101.4684096 103.0244525  35.8840215 102.2333181
 102.8132411  36.3113031 100.7964121  97.4490710  18.0683743 102.0705981
  97.5132037  18.9298574 101.6583378  97.3857831  17.4557745 101.3378339
  96.9242983  20.1406876 105.7179015  97.5515022  19.7583953 106.3316539
  96.0670902  19.9221077 106.0834707 107.3237092  30.5469851 107.3232750
 107.8676996  31.1599809 106.8287705 106.7423936  31.1049429 107.8399763
  93.7008526  21.9483305  91.6497370  93.9961967  21.0393983  91.5964423
  92.7996562  21.9271044  91.3278372 105.6094605  33.6690569  98.4547778
 105.4845744  32.8680309  97.9458723 106.2673696  34.1636762  97.9661748
  97.2302773  20.0239301  97.6324918  96.5089359  20.6375269  97.4932392
  98.0196029  20.5597066  97.5541564 107.6729513  31.4699589 100.0827328
 106.7259848  31.3504940 100.0105655 108.0212286  30.5822087 100.1653589
 100.0329086  17.3593728 103.9065570 100.5563488  17.6056024 104.6691879
  99.8141420  18.1913763 103.4868707  95.4296367  19.6297402  91.7736695
  95.1009074  18.7494781  91.5911801  95.7835738  19.5745071  92.6613084
 104.6775946  31.2652305  96.2831680 104.5300909  30.3369012  96.4639250
 105.5029440  31.2872396  95.7988756  98.5438191  19.9170372  92.1412172
  98.8834263  20.4456293  91.4190781  98.9910311  20.2550778  92.9170739
 108.2810068  32.0880864  97.3696553 109.2056616  31.8823725  97.2321004
 108.1125371  31.8397265  98.2785895 101.2381631  18.3007423 101.5915240
 100.8978452  17.5015236 101.9935920 100.5320638  18.6009134 101.0192074
 101.8898103  15.3856735 100.0442564 102.7124172  14.9117213  99.9221454
 102.1336167  16.1647219 100.5441250 100.5306338  18.4144994  90.3405465
 101.2514700  18.7926246  89.8369182  99.9071642  19.1333871  90.4440443
 104.6737461  19.1190143  91.2763798 104.8901075  20.0014781  90.9752626
 104.1931528  18.7276356  90.5469440  99.4136682  22.0775856  97.8534542
  99.2681263  22.3916159  98.7458824  98.9361886  22.6960756  97.3005441
 101.2733065  19.0678404  97.9015432 101.2594634  18.1719497  97.5647730
 101.9905493  19.0749068  98.5353718 103.1259196  19.5015744  99.9468559
 102.8676973  20.4232815  99.9452890 102.5944236  19.1046179 100.6369023
 108.0705384  32.6066531  92.7258644 108.2442262  32.0412954  91.9732497
 108.5634276  33.4067426  92.5438134  93.8882344  24.6181200 100.7922203
  93.3435812  25.3941008 100.9242478  94.7661694  24.9652005 100.6341325
 100.6769961  17.9492784  93.1703002 100.7985872  17.0209430  93.3693889
 100.3872003  17.9631470  92.2581317 103.5461151  15.6347695  96.3069722
 103.5682848  15.6987028  95.3521701 103.9629210  14.7952203  96.5010228
 113.9244775  25.3702954  94.3448944 114.3675921  24.6210279  93.9468067
 113.0471286  25.3613091  93.9622676 109.0580557  31.9233296  89.8255543
 109.7531461  32.5439988  90.0442857 109.4003707  31.0728647  90.1007921
  94.6748366  23.7451097 103.6852360  93.9330102  23.8933732 104.2716991
  94.3541110  24.0059362 102.8219110 110.9571980  29.3733001  91.3542874
 111.4823304  29.7120274  90.6292194 110.8694332  28.4380016  91.1706008
 102.6192029  33.2867075 103.4832750 102.9279155  33.0416222 104.3555450
 103.4167511  33.4913713 102.9951620 102.6412641  35.4404984  95.7138127
 102.2017631  34.9481363  96.4070983 103.3920758  34.8977952  95.4730202
  95.1204980  31.6316525  95.7162755  95.9463000  31.3320297  95.3361398
  94.7699032  30.8624148  96.1652543 100.0886513  30.9842994  97.7860428
  99.4666522  30.3213699  97.4862656 100.7591380  31.0104125  97.1034076
  93.3213585  29.5502852  96.6751688  92.4845493  29.1225026  96.4935690
  93.2937230  29.7435295  97.6122480 100.1611040  19.4624782 107.3792934
 100.2099196  20.3386904 106.9970704 100.7033554  18.9202175 106.8064578
 110.6465886  30.0065905 106.6594072 109.8561430  29.9890044 106.1198571
 110.4099241  30.5454198 107.4143108 110.7663761  26.8558371 103.9726800
 110.8161766  26.6908379 104.9142323 110.6577684  25.9885630 103.5824681
  99.6500020  29.5346917  91.2618889  99.7988140  30.2182381  90.6085562
 100.4566463  29.5152007  91.7768345 108.0567523  22.8389299 105.2886107
 108.9577386  22.6995764 104.9970105 108.1315498  23.0043754 106.2284284
 102.3910329  20.2156154 104.1339293 101.5213638  20.5089720 103.8621882
 102.6269809  20.7996599 104.8546557 112.2681958  29.2755313 104.2168822
 111.9766766  29.6385293 105.0532283 111.6554089  28.5622321 104.0382154
 113.4677640  26.8408192  96.7371392 114.3024532  27.2797997  96.9008952
 113.6036769  26.3646846  95.9179638 110.5169146  24.3987927 102.6848880
 110.9923268  24.5915574 101.8767731 109.5934711  24.4547113 102.4392263
  97.4052653  25.5612094  92.2679958  97.1598695  24.6574424  92.4660168
  97.5748567  25.5629245  91.3259436 105.0949363  16.4335771 101.6504713
 105.6131306  17.1696798 101.3251202 104.7404495  16.7399764 102.4851473
  96.6748300  21.2940452  89.7666119  95.9817545  21.3684807  89.1106155
  96.4300052  20.5300796  90.2887636 105.3461957  12.8536053  97.1705610
 105.6263710  12.1859242  97.7966037 106.1312564  13.0465149  96.6580274
 103.1495425  32.0295047  88.7330636 102.5769392  32.6485234  88.2801108
 103.7228219  32.5794409  89.2670558 109.2170815  21.2753687 100.9177185
 110.1688238  21.3751785 100.9389409 109.0474265  20.4831956 101.4275270
 107.2385195  18.3609271 101.1036586 106.6435127  18.6414283 100.4083075
 106.9534891  18.8503172 101.8753327 106.3692685  32.3132197  89.8639219
 107.3023358  32.2477759  90.0672094 106.2815898  33.1488464  89.4053751
 108.9980702  31.6298068  86.8243166 108.9194333  31.2957931  87.7178924
 109.8190368  32.1219836  86.8234639 111.6958893  24.4959807 100.0319485
 111.6635213  23.5575808 100.2179169 112.3059517  24.5743844  99.2985310
 103.5342224  23.3655860  86.0746689 104.4801328  23.2362068  86.1435107
 103.1556469  22.6270522  86.5516117 111.8453381  21.2870851 100.0777768
 111.3292430  20.5029307  99.8907697 112.7293330  20.9589567 100.2424287
 109.5064108  15.0311866  96.0373581 109.3088929  14.7226954  96.9216913
 110.1163814  15.7573505  96.1671511 117.5135443  25.5575814  99.1725522
 118.2438831  25.2961102  99.7333225 116.9042388  24.8204536  99.2127590
 115.5950740  23.6983677  99.7699973 114.8683903  23.5639641  99.1616464
 115.1798027  24.0060505 100.5756691 103.4180916  27.4173606 107.5347346
 104.3383926  27.5952205 107.7287392 103.3830499  26.4729652 107.3827045
 101.7185141  21.2905836  86.0101574 100.8116596  20.9938949  86.0864288
 101.9961122  20.9935655  85.1435860  92.6363081  22.6112200  96.4600620
  92.3165866  21.7577508  96.1674994  92.0896509  22.8260778  97.2158588
  96.4142989  25.3274641 100.1770127  96.6328999  26.2591749 100.1958161
  96.8268763  24.9682615 100.9624931 103.3347207  15.8342726  92.1645815
 102.5247935  15.4889811  92.5401061 104.0231624  15.5250270  92.7533427
 105.2637755  14.9120773  93.7870112 105.8168793  15.3316226  94.4460135
 105.5007841  13.9856521  93.8293068 101.2870854  20.9007847 109.5672876
 101.1867581  21.8502204 109.4984967 101.0692396  20.5726086 108.6948946
 100.4883925  18.1492772  86.1513553 101.3503089  18.4747670  86.4109371
 100.6734270  17.3624268  85.6386619  92.5051341  26.2315111  98.4293742
  91.8114813  25.8169064  97.9163696  93.2524332  26.2735648  97.8327161
 108.6416562  17.0221298  93.2948776 108.0615231  17.6806102  92.9126829
 108.3752495  16.1998643  92.8836194 107.0920128  16.4226356  95.4970097
 107.5919907  16.5342890  94.6884415 107.7355736  16.1187409  96.1370905
 101.1502124  24.3304985 108.3837938 100.6669206  25.1305346 108.5901827
 101.2363063  24.3412930 107.4305382  94.4188084  26.1633365  96.3059757
  94.3958772  26.2621052  95.3541640  94.7288720  27.0098516  96.6276923
  97.0775462  28.2209520 100.4206371  98.0318715  28.1893462 100.3536303
  96.8787985  27.7600144 101.2356597  97.6674844  26.7910636 102.9877169
  98.4867733  27.2854715 103.0112006  97.9411651  25.8742604 102.9594737
 107.4241440  19.1821389  92.3505125 106.5367295  19.4671039  92.1325319
 107.8395429  19.0215152  91.5032401 110.7755976  19.2067909  96.0659464
 111.5516366  19.6964362  96.3384081 110.0504110  19.6325964  96.5231333
 113.2128535  19.9195529  97.1233404 113.8073026  19.6791265  96.4126713
 113.2855118  19.2002659  97.7506941  95.4325690  33.7629140  97.4376569
  95.2980158  33.0029541  96.8714567  95.0157753  34.4870039  96.9705358
 106.5684653  28.9466063  86.4453145 107.2720504  29.1516066  87.0610800
 105.8447302  29.5142825  86.7102228 107.3982464  24.6975924  92.5655415
 107.3417665  25.1544476  91.7263047 107.9510806  23.9366609  92.3878257
 111.2087270  20.4865656  93.3905534 110.9524204  20.0862292  94.2213742
 110.5840138  21.2009450  93.2655673 115.5199607  23.2261730  95.8976826
 114.9599165  23.2954919  96.6708388 114.9143111  23.0502714  95.1776322
  98.5894816  34.6598457  97.6495012  98.4727200  35.6043889  97.5473702
  97.7687263  34.3572018  98.0380811 108.4771351  29.3848592  88.4951605
 109.3116955  28.9529791  88.3129079 108.3155694  29.2130606  89.4228499
 108.1317243  25.8880706  89.8607944 108.0766047  25.7224977  88.9196388
 107.5063298  26.5956739  90.0170134  92.9209758  21.1248770 103.6869366
  93.5668622  20.6147724 104.1756591  92.7126909  21.8617452 104.2612791
 105.4463150  28.1929618 109.1861507 106.3154310  28.3670270 108.8248142
 104.9669902  29.0124034 109.0637236 101.4413369  15.3888815  89.4393262
 101.4292038  16.3330655  89.5961533 102.3336790  15.2058960  89.1452723
  99.6149330  35.3126719 100.8650940 100.5176577  35.3450329 101.1817435
  99.3886701  34.3827170 100.8797276 101.3702932  34.0657705  97.5261019
 100.4198563  34.0659567  97.4125391 101.6735419  33.3190440  97.0097054
 105.2565488  11.9831591  93.6939199 104.4897884  11.4290078  93.8395881
 105.6676193  12.0553460  94.5553351  97.2607249  18.2716387 107.7844380
  98.1238711  17.9153192 107.9947705  96.6872660  17.9330282 108.4719785
 117.1055626  39.9018243  98.5906781 117.7434036  39.7824991  97.8870121
 116.9876469  40.8499087  98.6494733 113.9145332  39.8545672  98.5268306
 113.5763844  39.7386736  97.6388841 114.7835100  39.4536837  98.5069312
 109.7732148  41.7081148  94.5165197 109.2097013  41.6171085  93.7481485
 109.6584543  40.8881052  94.9967689 114.3965115  41.0080523 104.4854512
 114.3853756  40.6133322 103.6135015 114.5585755  40.2746596 105.0788283
 107.3196580  43.2032340  97.3549417 108.1117872  42.8623164  96.9395717
 107.5593230  43.3127315  98.2751571 115.3531707  45.3752116  89.8279662
 114.7019686  45.9606196  89.4413676 116.1476069  45.9058311  89.8874699
 109.2787334  42.4641253  90.2266796 110.0518210  41.9170240  90.0879672
 109.6312733  43.3285502  90.4381258 111.1172376  43.7917635 103.4333696
 110.8262242  44.6963266 103.3180362 111.7529361  43.8334163 104.1477765
 112.0428583  41.1694484 100.0235055 112.6392155  40.9450506  99.3092018
 112.1003555  40.4279229 100.6260503 111.6153612  38.6233919  87.8585246
 111.8679132  38.1015440  87.0968709 110.6778171  38.4600064  87.9611930
 116.6596894  37.6269697  95.6659989 117.4459984  37.2089121  95.3150406
 116.9235599  38.5315790  95.8341638 116.8306972  43.0642548  90.3648646
 116.1952805  43.1377174  91.0769551 116.5004378  43.6536146  89.6867725
 122.0605322  37.5644931  96.5692968 122.7930494  36.9944147  96.8030797
 121.3044677  37.1766531  97.0099473 111.3349900  40.5262025  90.0609621
 111.2186158  39.8506928  90.7290705 111.4452160  40.0394399  89.2441774
 113.6781441  39.9872172  93.7656310 113.3139649  39.4602793  94.4769232
 114.5348557  39.5970641  93.5922796 119.5830742  31.2766505 101.0287576
 119.2514067  32.1461916 100.8048791 118.9876355  30.9602789 101.7081607
 113.3186928  35.0162072  88.7617659 113.4861331  35.8842308  89.1288130
 113.1284097  35.1789353  87.8378948 116.0762261  43.4779051 100.4283489
 115.7762985  44.3804089 100.3199296 115.7313321  43.2111234 101.2804642
 109.5274743  39.9292847  96.4620194 108.6025239  39.7969062  96.6697885
 109.7759156  40.7087067  96.9590136 119.4759405  35.9961591  98.1080927
 118.5676283  35.9276999  97.8139688 119.4247001  36.4733536  98.9362752
 113.2976149  37.4719729  89.7464326 113.1775774  37.9176780  90.5849806
 112.6028738  37.8205047  89.1877864 106.8883554  39.5726121  97.2963983
 107.0175935  39.8260600  98.2103394 106.2081005  40.1653829  96.9768638
 111.0583041  50.2423371  93.3954457 110.9807071  51.1931196  93.4742937
 110.4544685  49.8969243  94.0529383 113.5500271  37.4151236 106.0515824
 112.7733605  37.9745157 106.0418688 114.1890834  37.9008019 106.5730694
 121.3421052  34.1978029  99.8858800 120.6995432  34.4910562  99.2398595
 120.8375980  34.0830950 100.6911997 118.9961215  37.9441202  90.5744660
 119.9079071  38.1768589  90.3992357 118.4870862  38.5278247  90.0119738
 111.8046643  40.2236690 105.6133791 112.5461328  40.7621734 105.3368614
 111.0983629  40.8502979 105.7705343 117.2801983  42.3665830 104.2105952
 117.6885339  41.9248241 103.4660585 116.5579244  41.7918458 104.4640145
 113.6333053  37.3038437 101.5839509 114.4794248  37.7277851 101.7274158
 113.5731691  36.6472061 102.2778072 117.6030798  42.9267021  97.9658241
 116.9739660  43.0912735  97.2634309 117.2156460  43.3408630  98.7369205
 121.4820030  43.8621459  95.3202605 120.7971068  44.2420360  94.7699638
 121.5663879  44.4716785  96.0534553 116.7832498  34.9642805 103.2420683
 116.5393430  35.7184866 102.7054959 117.0592429  35.3428153 104.0767930
 118.7370961  41.5081418 101.9197948 118.9487856  42.1513178 101.2432330
 118.6900709  40.6743734 101.4519879 116.3397190  34.1199238  98.8234521
 115.4781669  34.4180492  99.1151258 116.3659625  34.3369637  97.8915553
 113.1558759  42.6641429  95.2308326 113.6197105  42.9429132  94.4412949
 112.8915558  41.7624874  95.0481417 110.0482841  42.2112910  98.1688090
 110.6184198  42.6400179  97.5305574 110.6390952  41.9295495  98.8672275
 112.0927646  38.7864581  92.0397891 112.7951689  39.2385625  92.5071818
 111.7608274  38.1448400  92.6677785 110.5408007  37.3776338 106.4149101
 109.9106668  38.0592619 106.6484498 110.4344095  37.2659420 105.4702239
 105.8352979  37.0448134  97.3415025 105.0452033  37.3005663  96.8655136
 106.3264227  37.8596472  97.4467066 119.8516789  44.3853373 100.0920306
 120.6734233  43.9833560  99.8102987 119.8479192  44.2821607 101.0436422
 107.7867725  37.4092713  94.2998502 106.9898888  37.5211407  94.8181997
 107.5593317  37.7479365  93.4339392 113.6173393  43.9337416 102.2481016
 113.6817825  44.3957824 103.0839188 112.9084316  43.3034781 102.3763326
 104.1190682  37.2978624  99.7730016 104.3698721  38.1825634 100.0387592
 104.6550231  37.1183226  99.0005108 127.9422782  40.7292122  96.4405277
 127.1886490  40.1599520  96.2849282 128.0770323  40.6954786  97.3875912
 113.3321410  45.6005524  92.1159997 113.1967085  46.4457060  92.5444844
 113.8731223  45.8024802  91.3525930 109.8188750  31.6797104 108.7774352
 109.4255695  31.1263302 109.4521996 110.6354890  31.9907682 109.1680869
 106.7850808  43.1180962  92.6887922 107.2975328  43.9124212  92.8393486
 107.4373520  42.4207252  92.6221523 108.5945692  46.2346718  94.7710675
 108.7712321  47.1564683  94.5831659 109.3902526  45.9205137  95.2005055
 112.7356711  33.0954983 106.3694608 113.4766424  33.6962136 106.2899071
 112.9674634  32.3532621 105.8112651 107.8798049  38.2811350 104.6472838
 107.7651564  37.3796607 104.9479937 107.0242567  38.5275047 104.2957655
 114.9589887  46.2229090 106.2460339 114.5153741  45.4365469 105.9281243
 115.6207100  46.4108241 105.5804230 109.7177008  47.7524892 100.7721017
 110.2684433  47.6241955  99.9998011 108.8788484  48.0519781 100.4215910
 117.0571125  46.5031890 104.2741740 117.0389600  47.3240771 103.7822009
 117.9791045  46.3785966 104.4991881 113.5144179  44.0176020 105.1165248
 114.0472516  43.2564308 104.8864556 112.9858260  43.7249672 105.8589403
 116.6813874  29.1236086 100.6458890 116.3378143  30.0137727 100.5698001
 117.0492836  28.9337743  99.7828475 104.7499724  41.4469616  93.4647492
 105.5874946  41.8566625  93.2481200 104.9277992  40.5069058  93.4347686
 116.6464156  39.1144697  89.1531325 116.1310780  39.8849302  89.3919713
 116.3741465  38.4409833  89.7764387 114.2311267  33.9594398  94.2116564
 113.3752864  33.5701248  94.0322202 114.6438219  34.0386359  93.3516349
 115.7610414  31.4940741  98.6108123 115.2575210  31.4570876  97.7975929
 116.0541021  32.4033484  98.6704780 112.0053300  31.5779471  97.6174305
 112.8706297  31.3822279  97.2580195 112.0730809  31.3489822  98.5443662
 121.6198431  41.8677052  91.0884499 120.8427873  41.5288211  90.6439661
 122.2989912  41.8729675  90.4139464 116.4350460  36.9871789  90.9791106
 116.1300595  37.3017938  91.8301250 117.3880902  37.0653209  91.0218439
 114.8796891  43.1462012  92.6284060 114.3518253  42.4114772  92.3157298
 114.3784394  43.9236689  92.3824029 119.8589737  41.3411033  97.7451107
 119.2013412  42.0310294  97.8331235 120.6630137  41.7307465  98.0885093
 109.6115619  33.8081679  94.9890672 110.1859371  33.5856860  94.2563865
 110.1986602  33.8770373  95.7419273 118.6695196  39.6955406  95.7955048
 119.1827078  40.3285397  96.2976758 119.3196420  39.0956601  95.4298408
 109.9385206  35.8386140  89.0086557 109.1022518  36.1760826  89.3295832
 109.7989976  35.7035119  88.0713694 111.9138287  30.6822928  93.7165741
 111.2602699  30.3671945  93.0922356 111.8718761  30.0598668  94.4425564
 113.0249492  40.9642223  85.6319033 112.1176553  40.7331476  85.8310182
 113.5220524  40.1679842  85.8193015 115.9317571  49.6739730  88.5515720
 115.2579269  49.9771427  89.1600677 116.3183392  50.4768810  88.2021177
 115.1476027  37.1704861  98.0413389 114.2298589  37.3919808  97.8835077
 115.5636171  37.2451172  97.1825096 115.9311075  38.5696277  93.1716069
 116.6782894  39.0817674  92.8623191 116.2002664  38.2480329  94.0320463
 114.2037725  41.0654817  90.1543023 113.2948944  40.7813850  90.2515493
 114.2332809  41.4853896  89.2946330 119.4356993  44.6761407  93.9234191
 118.9819320  43.8352317  93.9799382 118.8050959  45.3122805  94.2608971
 118.3789912  35.6053393  95.1534859 117.6412669  35.0930779  95.4845101
 118.6316686  35.1653775  94.3418135 117.8789932  46.5137904  94.8584009
 118.1712906  47.0742961  94.1396375 118.3888552  46.8066465  95.6137168
 118.4801539  28.3829645  95.7476628 118.7860416  27.5227008  95.4602543
 119.2054144  28.9747265  95.5475622 104.7725895  38.7860332  94.1358226
 104.5750295  38.1929692  93.4109292 104.2172559  38.4812542  94.8534164
 112.7522619  38.6783438  96.2552819 112.8071229  37.7257274  96.1795295
 111.9413821  38.8342877  96.7394117 113.9013813  42.6063561  87.4931102
 113.4633243  41.8899420  87.0336739 114.6424254  42.8339676  86.9316193
 110.6914979  37.2960498  94.0143198 109.8782845  37.5954668  94.4208390
 111.1873973  36.9016187  94.7317680 112.8423557  47.2918255  95.9477462
 112.7999736  47.5179101  95.0185994 113.7586256  47.0581629  96.0963264
 116.2889191  37.7602322 102.8458092 116.6438578  37.9873795 103.7052557
 116.9361322  38.0920699 102.2235347 122.0186928  40.8820758  93.5507421
 121.8804826  41.0722354  92.6228610 121.6623146  41.6440141  94.0075472
 110.1829054  34.8678853  99.6304433 110.8228433  34.7267612  98.9327396
 109.3506584  34.5813367  99.2543035 122.0456307  42.9497285  98.5618692
 122.4792814  42.8572574  99.4101746 122.7587888  42.9254786  97.9238708
 110.9589358  44.1681284  95.7439425 111.7529956  43.6731604  95.5422000
 110.2481050  43.6399147  95.3807131 115.7784202  46.5499379 100.0951793
 115.8321224  47.1190316 100.8629509 114.9098984  46.7201264  99.7305830
 107.2672121  38.3124365  91.8199178 106.3369709  38.2508821  92.0369140
 107.3629593  37.7900318  91.0235819 107.1857670  34.8379178  94.4077419
 107.4464488  35.7524512  94.2986580 108.0074843  34.3703621  94.5574032
 108.6582596  36.2516936 101.5776244 109.3305649  36.0434298 100.9288893
 107.8312382  36.0539021 101.1381476 122.9071857  42.9920986 101.0951578
 123.1007747  43.8966796 101.3410852 122.8072475  42.5328405 101.9290163
 114.5608168  32.8778876 103.5941905 113.9136083  33.5768826 103.5006381
 115.3309183  33.3115020 103.9618153 117.9686966  43.1427729 106.6692458
 117.8172472  42.9138280 105.7522542 117.9591645  44.0998330 106.6823803
 114.7372302  40.7159641 101.6538725 115.6664362  40.8670801 101.4807692
 114.3163332  40.8043662 100.7987371 113.5360634  44.7410306  99.4237262
 113.3971719  44.3729090 100.2963200 112.7475230  45.2557945  99.2521220
 114.1308786  49.8419402  90.7662799 114.3060541  49.3707445  91.5808421
 113.4441574  50.4685168  90.9944059 115.0865849  44.1191908  96.8126100
 114.7515681  44.0792678  97.7083750 114.5869795  43.4536624  96.3396510
 109.0610093  39.5259538 102.3378681 108.9229891  38.7939777 102.9390220
 109.9715016  39.4368439 102.0562869 118.0225041  41.4647943  87.0863160
 117.4054211  40.7394771  86.9896212 117.5541529  42.2257303  86.7430234
 111.6892393  39.2379498 101.8262361 112.3992012  38.5972690 101.7848979
 111.6461702  39.4892393 102.7488542 119.6779172  46.1746851 104.7468940
 119.6191718  45.4906071 104.0799523 120.0798691  46.9165841 104.2949566
 110.4021327  36.2244716 103.6458000 109.8658684  35.7735454 104.2979597
 109.8138036  36.3590625 102.9028465 108.6969871  52.9908765  97.5402659
 108.9366469  53.6227289  98.2181677 107.8539067  52.6396805  97.8268018
 109.8123586  35.6833367  86.2084464 108.9353053  35.5622168  85.8446711
 110.2881339  34.8919445  85.9563353 119.6796579  44.1386435 102.9782920
 118.7923358  43.8012357 103.1009319 120.2495130  43.4069466 103.2151685
 101.3325727  40.4710527  96.3025971 102.0196766  40.1572257  95.7146986
 101.1773855  41.3751891  96.0293223 106.1360449  35.3600723 100.7310995
 106.0518637  34.7526393  99.9961405 105.3143155  35.8509742 100.7320491
 113.2097733  48.7987887  99.9444163 113.1367904  49.6042859 100.4563467
 112.7675126  48.9979853  99.1192184 112.9987512  48.0359657  93.4546984
 112.2155034  48.5781338  93.5485209 113.6980258  48.5533637  93.8541226
 116.3084163  33.8454287  96.0981190 116.8052862  33.0924249  95.7782260
 115.5371144  33.8818604  95.5324399 124.1613920  39.5494652  97.7399481
 124.1503796  40.4319368  97.3693414 123.2931299  39.1966203  97.5454018
 115.6696416  48.6974721 102.1002322 116.3824389  49.3322186 102.0278223
 115.1786445  48.7938587 101.2842323 117.3913943  42.6025974  93.6719613
 116.4570222  42.7227437  93.5024318 117.5690612  41.6998441  93.4079623
 112.8919131  35.9871670  95.8252874 112.5216919  35.4342710  96.5133780
 113.3878224  35.3829803  95.2727874 120.7786495  38.4443293  94.2069647
 121.2446947  39.2771285  94.1329950 121.2293995  37.9788275  94.9114906
 110.7208330  46.4469165 102.9207892 111.4217789  47.0805648 103.0737287
 110.2503445  46.7883896 102.1603532 118.8462726  44.7887115  91.2055799
 119.1222570  44.6743709  92.1149673 117.9767224  44.3904600  91.1667972
 118.7503157  30.8123880  98.2460549 117.8366237  31.0428107  98.4142756
 119.1796259  30.8962324  99.0974581 118.5209616  39.0013772 100.7460443
 117.8681066  39.2489680 100.0912895 118.8989996  38.1877911 100.4122920
 115.4816790  49.0373466  94.8488613 115.6639184  48.2195121  95.3116365
 116.3049776  49.2541158  94.4113503 115.8158955  47.9641651  92.1103662
 116.3446722  47.4534105  91.4973824 116.0787175  47.6484181  92.9749195
 114.5697189  39.7433583 107.2326480 113.8937826  39.6427713 107.9028855
 115.3924823  39.5872797 107.6962477 106.3176048  45.9805520  99.8538995
 106.9029485  45.2349208  99.9866899 106.1200886  46.2909477 100.7375659
 109.1714703  49.0156767  94.8701437 108.5025078  49.5002895  94.3865477
 109.0327573  49.2625988  95.7844816 100.9093703  38.5511120  98.5743438
 100.9477802  38.0174711  99.3680556 100.4033995  38.0246326  97.9554415
 113.3119972  51.0500511 101.4684096 113.8638280  51.2132132 102.2333181
 113.6526165  51.6404949 100.7964121 108.2884465  33.3975661 102.0705981
 108.3525791  34.2590492 101.6583378 108.2251585  32.7849662 101.3378339
 107.7636738  35.4698793 105.7179015 108.3908776  35.0875871 106.3316539
 106.9064656  35.2512995 106.0834707 118.1630846  45.8761768 107.3232750
 118.7070750  46.4891727 106.8287705 117.5817691  46.4341347 107.8399763
 104.5402280  37.2775222  91.6497370 104.8355721  36.3685901  91.5964423
 103.6390316  37.2562962  91.3278372 116.4488359  48.9982486  98.4547778
 116.3239498  48.1972226  97.9458723 117.1067450  49.4928680  97.9661748
 108.0696527  35.3531219  97.6324918 107.3483113  35.9667187  97.4932392
 108.8589783  35.8888984  97.5541564 118.5123267  46.7991506 100.0827328
 117.5653603  46.6796858 100.0105655 118.8606041  45.9114005 100.1653589
 110.8722841  32.6885645 103.9065570 111.3957243  32.9347942 104.6691879
 110.6535174  33.5205680 103.4868707 106.2690122  34.9589320  91.7736695
 105.9402828  34.0786699  91.5911801 106.6229493  34.9036989  92.6613084
 115.5169701  46.5944223  96.2831680 115.3694663  45.6660930  96.4639250
 116.3423194  46.6164313  95.7988756 109.3831945  35.2462290  92.1412172
 109.7228018  35.7748211  91.4190781 109.8304065  35.5842696  92.9170739
 119.1203823  47.4172781  97.3696553 120.0450370  47.2115643  97.2321004
 118.9519126  47.1689183  98.2785895 112.0775386  33.6299341 101.5915240
 111.7372206  32.8307154 101.9935920 111.3714392  33.9301051 101.0192074
 112.7291858  30.7148653 100.0442564 113.5517927  30.2409131  99.9221454
 112.9729921  31.4939137 100.5441250 111.3700092  33.7436911  90.3405465
 112.0908455  34.1218164  89.8369182 110.7465396  34.4625788  90.4440443
 115.5131215  34.4482060  91.2763798 115.7294829  35.3306698  90.9752626
 115.0325282  34.0568274  90.5469440 110.2530436  37.4067774  97.8534542
 110.1075017  37.7208077  98.7458824 109.7755640  38.0252674  97.3005441
 112.1126819  34.3970322  97.9015432 112.0988388  33.5011415  97.5647730
 112.8299247  34.4040985  98.5353718 113.9652950  34.8307662  99.9468559
 113.7070728  35.7524732  99.9452890 113.4337990  34.4338096 100.6369023
 118.9099139  47.9358449  92.7258644 119.0836016  47.3704871  91.9732497
 119.4028030  48.7359344  92.5438134 104.7276099  39.9473118 100.7922203
 104.1829567  40.7232926 100.9242478 105.6055448  40.2943922 100.6341325
 111.5163715  33.2784702  93.1703002 111.6379626  32.3501348  93.3693889
 111.2265758  33.2923388  92.2581317 114.3854906  30.9639612  96.3069722
 114.4076602  31.0278945  95.3521701 114.8022965  30.1244121  96.5010228
 124.7638530  40.6994872  94.3448944 125.2069676  39.9502197  93.9468067
 123.8865040  40.6905008  93.9622676 119.8974311  47.2525213  89.8255543
 120.5925216  47.8731906  90.0442857 120.2397461  46.4020565  90.1007921
 105.5142120  39.0743014 103.6852360 104.7723856  39.2225650 104.2716991
 105.1934865  39.3351280 102.8219110 121.7965734  44.7024919  91.3542874
 122.3217058  45.0412192  90.6292194 121.7088087  43.7671934  91.1706008
 113.4585783  48.6158992 103.4832750 113.7672910  48.3708139 104.3555450
 114.2561265  48.8205631 102.9951620 113.4806395  50.7696902  95.7138127
 113.0411385  50.2773281  96.4070983 114.2314512  50.2269870  95.4730202
 105.9598734  46.9608443  95.7162755 106.7856754  46.6612215  95.3361398
 105.6092786  46.1916065  96.1652543 110.9280267  46.3134911  97.7860428
 110.3060277  45.6505616  97.4862656 111.5985134  46.3396043  97.1034076
 104.1607339  44.8794769  96.6751688 103.3239247  44.4516944  96.4935690
 104.1330985  45.0727213  97.6122480 111.0004795  34.7916699 107.3792934
 111.0492950  35.6678822 106.9970704 111.5427309  34.2494092 106.8064578
 121.4859640  45.3357822 106.6594072 120.6955184  45.3181961 106.1198571
 121.2492995  45.8746116 107.4143108 121.6057515  42.1850289 103.9726800
 121.6555520  42.0200296 104.9142323 121.4971439  41.3177548 103.5824681
 110.4893774  44.8638835  91.2618889 110.6381895  45.5474299  90.6085562
 111.2960218  44.8443925  91.7768345 118.8961278  38.1681217 105.2886107
 119.7971141  38.0287682 104.9970105 118.9709252  38.3335672 106.2284284
 113.2304083  35.5448072 104.1339293 112.3607393  35.8381638 103.8621882
 113.4663564  36.1288517 104.8546557 123.1075712  44.6047230 104.2168822
 122.8160521  44.9677211 105.0532283 122.4947844  43.8914239 104.0382154
 124.3071395  42.1700110  96.7371392 125.1418286  42.6089914  96.9008952
 124.4430523  41.6938763  95.9179638 121.3562901  39.7279845 102.6848880
 121.8317022  39.9207491 101.8767731 120.4328466  39.7839031 102.4392263
 108.2446407  40.8904012  92.2679958 107.9992449  39.9866342  92.4660168
 108.4142322  40.8921163  91.3259436 115.9343117  31.7627689 101.6504713
 116.4525061  32.4988715 101.3251202 115.5798250  32.0691682 102.4851473
 107.5142055  36.6232370  89.7666119 106.8211300  36.6976725  89.1106155
 107.2693807  35.8592713  90.2887636 116.1855711  28.1827971  97.1705610
 116.4657465  27.5151160  97.7966037 116.9706318  28.3757067  96.6580274
 113.9889180  47.3586965  88.7330636 113.4163147  47.9777152  88.2801108
 114.5621973  47.9086327  89.2670558 120.0564570  36.6045605 100.9177185
 121.0081992  36.7043703 100.9389409 119.8868020  35.8123874 101.4275270
 118.0778949  33.6901188 101.1036586 117.4828881  33.9706201 100.4083075
 117.7928646  34.1795089 101.8753327 117.2086439  47.6424115  89.8639219
 118.1417113  47.5769677  90.0672094 117.1209652  48.4780382  89.4053751
 119.8374456  46.9589985  86.8243166 119.7588088  46.6249849  87.7178924
 120.6584123  47.4511753  86.8234639 122.5352647  39.8251725 100.0319485
 122.5028967  38.8867725 100.2179169 123.1453271  39.9035761  99.2985310
 114.3735978  38.6947778  86.0746689 115.3195083  38.5653986  86.1435107
 113.9950223  37.9562440  86.5516117 122.6847136  36.6162768 100.0777768
 122.1686184  35.8321225  99.8907697 123.5687084  36.2881485 100.2424287
 120.3457863  30.3603784  96.0373581 120.1482684  30.0518872  96.9216913
 120.9557568  31.0865423  96.1671511 128.3529197  40.8867732  99.1725522
 129.0832586  40.6253020  99.7333225 127.7436143  40.1496454  99.2127590
 126.4344494  39.0275594  99.7699973 125.7077658  38.8931559  99.1616464
 126.0191781  39.3352423 100.5756691 114.2574671  42.7465524 107.5347346
 115.1777680  42.9244123 107.7287392 114.2224254  41.8021569 107.3827045
 112.5578895  36.6197754  86.0101574 111.6510351  36.3230867  86.0864288
 112.8354876  36.3227572  85.1435860 103.4756836  37.9404118  96.4600620
 103.1559620  37.0869426  96.1674994 102.9290264  38.1552696  97.2158588
 107.2536743  40.6566559 100.1770127 107.4722753  41.5883666 100.1958161
 107.6662517  40.2974533 100.9624931 114.1740961  31.1634644  92.1645815
 113.3641689  30.8181729  92.5401061 114.8625378  30.8542188  92.7533427
 116.1031509  30.2412691  93.7870112 116.6562548  30.6608144  94.4460135
 116.3401596  29.3148439  93.8293068 112.1264609  36.2299764 109.5672876
 112.0261335  37.1794121 109.4984967 111.9086151  35.9018003 108.6948946
 111.3277680  33.4784689  86.1513553 112.1896844  33.8039588  86.4109371
 111.5128024  32.6916185  85.6386619 103.3445096  41.5607029  98.4293742
 102.6508567  41.1460982  97.9163696 104.0918087  41.6027566  97.8327161
 119.4810316  32.3513216  93.2948776 118.9008986  33.0098020  92.9126829
 119.2146249  31.5290560  92.8836194 117.9313883  31.7518274  95.4970097
 118.4313661  31.8634808  94.6884415 118.5749491  31.4479326  96.1370905
 111.9895879  39.6596903 108.3837938 111.5062960  40.4597263 108.5901827
 112.0756818  39.6704848 107.4305382 105.2581838  41.4925283  96.3059757
 105.2352526  41.5912970  95.3541640 105.5682475  42.3390434  96.6276923
 107.9169216  43.5501438 100.4206371 108.8712470  43.5185380 100.3536303
 107.7181740  43.0892062 101.2356597 108.5068598  42.1202554 102.9877169
 109.3261487  42.6146633 103.0112006 108.7805406  41.2034522 102.9594737
 118.2635194  34.5113306  92.3505125 117.3761050  34.7962957  92.1325319
 118.6789184  34.3507070  91.5032401 121.6149731  34.5359827  96.0659464
 122.3910121  35.0256280  96.3384081 120.8897865  34.9617881  96.5231333
 124.0522289  35.2487446  97.1233404 124.6466780  35.0083182  96.4126713
 124.1248873  34.5294577  97.7506941 106.2719445  49.0921057  97.4376569
 106.1373913  48.3321458  96.8714567 105.8551507  49.8161957  96.9705358
 117.4078408  44.2757981  86.4453145 118.1114258  44.4807983  87.0610800
 116.6841057  44.8434743  86.7102228 118.2376218  40.0267842  92.5655415
 118.1811420  40.4836394  91.7263047 118.7904561  39.2658527  92.3878257
 122.0481024  35.8157574  93.3905534 121.7917958  35.4154210  94.2213742
 121.4233892  36.5301368  93.2655673 126.3593362  38.5553647  95.8976826
 125.7992920  38.6246837  96.6708388 125.7536865  38.3794632  95.1776322
 109.4288571  49.9890374  97.6495012 109.3120955  50.9335807  97.5473702
 108.6081017  49.6863936  98.0380811 119.3165105  44.7140510  88.4951605
 120.1510709  44.2821709  88.3129079 119.1549448  44.5422524  89.4228499
 118.9710998  41.2172623  89.8607944 118.9159801  41.0516895  88.9196388
 118.3457053  41.9248656  90.0170134 103.7603513  36.4540688 103.6869366
 104.4062376  35.9439642 104.1756591 103.5520664  37.1909369 104.2612791
 116.2856905  43.5221535 109.1861507 117.1548064  43.6962188 108.8248142
 115.8063656  44.3415952 109.0637236 112.2807123  30.7180732  89.4393262
 112.2685793  31.6622572  89.5961533 113.1730545  30.5350878  89.1452723
 110.4543085  50.6418636 100.8650940 111.3570332  50.6742246 101.1817435
 110.2280455  49.7119087 100.8797276 112.2096687  49.3949623  97.5261019
 111.2592318  49.3951484  97.4125391 112.5129173  48.6482357  97.0097054
 116.0959242  27.3123509  93.6939199 115.3291638  26.7581996  93.8395881
 116.5069947  27.3845378  94.5553351 108.1001004  33.6008305 107.7844380
 108.9632465  33.2445110 107.9947705 107.5266414  33.2622200 108.4719785
 127.9449380  55.2310161  98.5906781 128.5827790  55.1116909  97.8870121
 127.8270223  56.1791005  98.6494733 124.7539087  55.1837589  98.5268306
 124.4157598  55.0678654  97.6388841 125.6228855  54.7828754  98.5069312
 120.6125902  57.0373066  94.5165197 120.0490768  56.9463003  93.7481485
 120.4978297  56.2172970  94.9967689 125.2358870  56.3372441 104.4854512
 125.2247510  55.9425239 103.6135015 125.3979509  55.6038514 105.0788283
 118.1590334  58.5324257  97.3549417 118.9511626  58.1915082  96.9395717
 118.3986985  58.6419232  98.2751571 126.1925461  60.7044033  89.8279662
 125.5413441  61.2898114  89.4413676 126.9869824  61.2350228  89.8874699
 120.1181088  57.7933171  90.2266796 120.8911964  57.2462158  90.0879672
 120.4706487  58.6577420  90.4381258 121.9566131  59.1209553 103.4333696
 121.6655997  60.0255184 103.3180362 122.5923115  59.1626080 104.1477765
 122.8822338  56.4986401 100.0235055 123.4785910  56.2742424  99.3092018
 122.9397309  55.7571147 100.6260503 122.4547366  53.9525837  87.8585246
 122.7072887  53.4307358  87.0968709 121.5171925  53.7891982  87.9611930
 127.4990649  52.9561615  95.6659989 128.2853738  52.5381038  95.3150406
 127.7629353  53.8607707  95.8341638 127.6700726  58.3934465  90.3648646
 127.0346559  58.4669092  91.0769551 127.3398133  58.9828064  89.6867725
 132.8999076  52.8936848  96.5692968 133.6324248  52.3236065  96.8030797
 132.1438432  52.5058449  97.0099473 122.1743655  55.8553943  90.0609621
 122.0579913  55.1798846  90.7290705 122.2845915  55.3686317  89.2441774
 124.5175196  55.3164090  93.7656310 124.1533403  54.7894711  94.4769232
 125.3742312  54.9262559  93.5922796 130.4224496  46.6058422 101.0287576
 130.0907821  47.4753833 100.8048791 129.8270110  46.2894706 101.7081607
 124.1580683  50.3453989  88.7617659 124.3255085  51.2134226  89.1288130
 123.9677852  50.5081271  87.8378948 126.9156016  58.8070968 100.4283489
 126.6156739  59.7096007 100.3199296 126.5707075  58.5403152 101.2804642
 120.3668497  55.2584765  96.4620194 119.4418994  55.1260979  96.6697885
 120.6152911  56.0378984  96.9590136 130.3153160  51.3253509  98.1080927
 129.4070037  51.2568917  97.8139688 130.2640756  51.8025453  98.9362752
 124.1369904  52.8011647  89.7464326 124.0169529  53.2468698  90.5849806
 123.4422492  53.1496965  89.1877864 117.7277308  54.9018039  97.2963983
 117.8569690  55.1552518  98.2103394 117.0474760  55.4945747  96.9768638
 121.8976796  65.5715289  93.3954457 121.8200825  66.5223114  93.4742937
 121.2938439  65.2261161  94.0529383 124.3894026  52.7443154 106.0515824
 123.6127360  53.3037074 106.0418688 125.0284589  53.2299937 106.5730694
 132.1814806  49.5269947  99.8858800 131.5389186  49.8202480  99.2398595
 131.6769735  49.4122867 100.6911997 129.8354970  53.2733120  90.5744660
 130.7472826  53.5060507  90.3992357 129.3264617  53.8570164  90.0119738
 122.6440398  55.5528607 105.6133791 123.3855082  56.0913651 105.3368614
 121.9377383  56.1794896 105.7705343 128.1195737  57.6957748 104.2105952
 128.5279093  57.2540158 103.4660585 127.3972999  57.1210375 104.4640145
 124.4726807  52.6330355 101.5839509 125.3188003  53.0569768 101.7274158
 124.4125445  51.9763979 102.2778072 128.4424552  58.2558939  97.9658241
 127.8133415  58.4204653  97.2634309 128.0550214  58.6700548  98.7369205
 132.3213784  59.1913376  95.3202605 131.6364822  59.5712278  94.7699638
 132.4057633  59.8008703  96.0534553 127.6226253  50.2934723 103.2420683
 127.3787185  51.0476784 102.7054959 127.8986183  50.6720071 104.0767930
 129.5764716  56.8373335 101.9197948 129.7881611  57.4805095 101.2432330
 129.5294464  56.0035652 101.4519879 127.1790945  49.4491156  98.8234521
 126.3175424  49.7472410  99.1151258 127.2053379  49.6661555  97.8915553
 123.9952514  57.9933347  95.2308326 124.4590860  58.2721050  94.4412949
 123.7309312  57.0916791  95.0481417 120.8876595  57.5404828  98.1688090
 121.4577952  57.9692097  97.5305574 121.4784707  57.2587413  98.8672275
 122.9321400  54.1156499  92.0397891 123.6345443  54.5677543  92.5071818
 122.6002029  53.4740318  92.6677785 121.3801762  52.7068256 106.4149101
 120.7500422  53.3884536 106.6484498 121.2737849  52.5951337 105.4702239
 116.6746734  52.3740052  97.3415025 115.8845788  52.6297580  96.8655136
 117.1657981  53.1888390  97.4467066 130.6910544  59.7145291 100.0920306
 131.5127987  59.3125478  99.8102987 130.6872946  59.6113525 101.0436422
 118.6261479  52.7384631  94.2998502 117.8292643  52.8503325  94.8181997
 118.3987072  53.0771283  93.4339392 124.4567147  59.2629334 102.2481016
 124.5211580  59.7249741 103.0839188 123.7478071  58.6326699 102.3763326
 114.9584437  52.6270542  99.7730016 115.2092475  53.5117552 100.0387592
 115.4943985  52.4475144  99.0005108 138.7816537  56.0584039  96.4405277
 138.0280245  55.4891437  96.2849282 138.9164078  56.0246704  97.3875912
 124.1715165  60.9297442  92.1159997 124.0360839  61.7748977  92.5444844
 124.7124977  61.1316719  91.3525930 120.6582504  47.0089021 108.7774352
 120.2649450  46.4555220 109.4521996 121.4748645  47.3199600 109.1680869
 117.6244562  58.4472880  92.6887922 118.1369083  59.2416130  92.8393486
 118.2767275  57.7499170  92.6221523 119.4339447  61.5638636  94.7710675
 119.6106075  62.4856601  94.5831659 120.2296280  61.2497055  95.2005055
 123.5750465  48.4246901 106.3694608 124.3160179  49.0254054 106.2899071
 123.8068388  47.6824538 105.8112651 118.7191803  53.6103268 104.6472838
 118.6045318  52.7088525 104.9479937 117.8636321  53.8566965 104.2957655
 125.7983641  61.5521008 106.2460339 125.3547495  60.7657387 105.9281243
 126.4600855  61.7400159 105.5804230 120.5570762  63.0816810 100.7721017
 121.1078187  62.9533873  99.9998011 119.7182238  63.3811699 100.4215910
 127.8964879  61.8323808 104.2741740 127.8783354  62.6532689 103.7822009
 128.8184799  61.7077883 104.4991881 124.3537933  59.3467938 105.1165248
 124.8866270  58.5856226 104.8864556 123.8252014  59.0541589 105.8589403
 127.5207628  44.4528003 100.6458890 127.1771898  45.3429645 100.5698001
 127.8886591  44.2629661  99.7828475 115.5893479  56.7761534  93.4647492
 116.4268701  57.1858542  93.2481200 115.7671747  55.8360976  93.4347686
 127.4857911  54.4436615  89.1531325 126.9704534  55.2141219  89.3919713
 127.2135219  53.7701751  89.7764387 125.0705022  49.2886315  94.2116564
 124.2146618  48.8993166  94.0322202 125.4831974  49.3678276  93.3516349
 126.6004169  46.8232659  98.6108123 126.0968964  46.7862794  97.7975929
 126.8934775  47.7325401  98.6704780 122.8447054  46.9071388  97.6174305
 123.7100051  46.7114197  97.2580195 122.9124563  46.6781740  98.5443662
 132.4592185  57.1968969  91.0884499 131.6821628  56.8580129  90.6439661
 133.1383666  57.2021592  90.4139464 127.2744214  52.3163707  90.9791106
 126.9694350  52.6309856  91.8301250 128.2274656  52.3945127  91.0218439
 125.7190646  58.4753930  92.6284060 125.1912008  57.7406690  92.3157298
 125.2178149  59.2528606  92.3824029 130.6983492  56.6702951  97.7451107
 130.0407166  57.3602212  97.8331235 131.5023891  57.0599382  98.0885093
 120.4509374  49.1373596  94.9890672 121.0253125  48.9148778  94.2563865
 121.0380356  49.2062291  95.7419273 129.5088951  55.0247323  95.7955048
 130.0220833  55.6577315  96.2976758 130.1590175  54.4248519  95.4298408
 120.7778961  51.1678057  89.0086557 119.9416273  51.5052744  89.3295832
 120.6383730  51.0327037  88.0713694 122.7532041  46.0114845  93.7165741
 122.0996454  45.6963862  93.0922356 122.7112515  45.3890586  94.4425564
 123.8643246  56.2934140  85.6319033 122.9570308  56.0623394  85.8310182
 124.3614278  55.4971760  85.8193015 126.7711325  65.0031647  88.5515720
 126.0973024  65.3063344  89.1600677 127.1577147  65.8060728  88.2021177
 125.9869782  52.4996779  98.0413389 125.0692343  52.7211726  97.8835077
 126.4029925  52.5743089  97.1825096 126.7704829  53.8988194  93.1716069
 127.5176648  54.4109592  92.8623191 127.0396419  53.5772247  94.0320463
 125.0431480  56.3946735  90.1543023 124.1342699  56.1105768  90.2515493
 125.0726563  56.8145814  89.2946330 130.2750747  60.0053325  93.9234191
 129.8213074  59.1644235  93.9799382 129.6444714  60.6414723  94.2608971
 129.2183667  50.9345311  95.1534859 128.4806423  50.4222697  95.4845101
 129.4710440  50.4945692  94.3418135 128.7183686  61.8429821  94.8584009
 129.0106661  62.4034878  94.1396375 129.2282307  62.1358382  95.6137168
 129.3195294  43.7121563  95.7476628 129.6254171  42.8518926  95.4602543
 130.0447899  44.3039183  95.5475622 115.6119650  54.1152249  94.1358226
 115.4144050  53.5221610  93.4109292 115.0566314  53.8104459  94.8534164
 123.5916374  54.0075356  96.2552819 123.6464983  53.0549192  96.1795295
 122.7807576  54.1634795  96.7394117 124.7407567  57.9355479  87.4931102
 124.3026997  57.2191338  87.0336739 125.4818008  58.1631594  86.9316193
 121.5308734  52.6252415  94.0143198 120.7176599  52.9246586  94.4208390
 122.0267728  52.2308104  94.7317680 123.6817311  62.6210172  95.9477462
 123.6393490  62.8471019  95.0185994 124.5980010  62.3873547  96.0963264
 127.1282945  53.0894240 102.8458092 127.4832333  53.3165713 103.7052557
 127.7755076  53.4212617 102.2235347 132.8580682  56.2112676  93.5507421
 132.7198581  56.4014272  92.6228610 132.5016901  56.9732059  94.0075472
 121.0222808  50.1970771  99.6304433 121.6622188  50.0559530  98.9327396
 120.1900339  49.9105284  99.2543035 132.8850062  58.2789203  98.5618692
 133.3186568  58.1864492  99.4101746 133.5981642  58.2546703  97.9238708
 121.7983112  59.4973201  95.7439425 122.5923711  59.0023522  95.5422000
 121.0874805  58.9691065  95.3807131 126.6177957  61.8791297 100.0951793
 126.6714979  62.4482233 100.8629509 125.7492738  62.0493182  99.7305830
 118.1065876  53.6416283  91.8199178 117.1763464  53.5800739  92.0369140
 118.2023348  53.1192236  91.0235819 118.0251425  50.1671096  94.4077419
 118.2858242  51.0816429  94.2986580 118.8468597  49.6995539  94.5574032
 119.4976350  51.5808853 101.5776244 120.1699403  51.3726215 100.9288893
 118.6706137  51.3830939 101.1381476 133.7465611  58.3212904 101.0951578
 133.9401501  59.2258714 101.3410852 133.6466229  57.8620323 101.9290163
 125.4001922  48.2070794 103.5941905 124.7529837  48.9060744 103.5006381
 126.1702937  48.6406938 103.9618153 128.8080720  58.4719646 106.6692458
 128.6566226  58.2430198 105.7522542 128.7985399  59.4290248 106.6823803
 125.5766056  56.0451559 101.6538725 126.5058116  56.1962719 101.4807692
 125.1557086  56.1335580 100.7987371 124.3754388  60.0702223  99.4237262
 124.2365474  59.7021008 100.2963200 123.5868984  60.5849863  99.2521220
 124.9702540  65.1711320  90.7662799 125.1454296  64.6999363  91.5808421
 124.2835328  65.7977086  90.9944059 125.9259603  59.4483826  96.8126100
 125.5909436  59.4084596  97.7083750 125.4263549  58.7828542  96.3396510
 119.9003847  54.8551456 102.3378681 119.7623645  54.1231695 102.9390220
 120.8108771  54.7660356 102.0562869 128.8618795  56.7939860  87.0863160
 128.2447966  56.0686689  86.9896212 128.3935283  57.5549221  86.7430234
 122.5286148  54.5671415 101.8262361 123.2385766  53.9264608 101.7848979
 122.4855456  54.8184310 102.7488542 130.5172927  61.5038769 104.7468940
 130.4585473  60.8197989 104.0799523 130.9192445  62.2457759 104.2949566
 121.2415082  51.5536633 103.6458000 120.7052439  51.1027372 104.2979597
 120.6531790  51.6882542 102.9028465 119.5363625  68.3200683  97.5402659
 119.7760224  68.9519207  98.2181677 118.6932822  67.9688723  97.8268018
 120.6517341  51.0125285  86.2084464 119.7746807  50.8914086  85.8446711
 121.1275094  50.2211363  85.9563353 130.5190334  59.4678353 102.9782920
 129.6317113  59.1304275 103.1009319 131.0888885  58.7361384 103.2151685
 112.1719481  55.8002444  96.3025971 112.8590521  55.4864175  95.7146986
 112.0167610  56.7043809  96.0293223 116.9754203  50.6892641 100.7310995
 116.8912392  50.0818311  99.9961405 116.1536910  51.1801659 100.7320491
 124.0491487  64.1279805  99.9444163 123.9761659  64.9334777 100.4563467
 123.6068880  64.3271771  99.1192184 123.8381267  63.3651575  93.4546984
 123.0548789  63.9073255  93.5485209 124.5374012  63.8825555  93.8541226
 127.1477917  49.1746205  96.0981190 127.6446617  48.4216167  95.7782260
 126.3764899  49.2110521  95.5324399 135.0007674  54.8786570  97.7399481
 134.9897551  55.7611286  97.3693414 134.1325054  54.5258121  97.5454018
 126.5090171  64.0266639 102.1002322 127.2218143  64.6614104 102.0278223
 126.0180199  64.1230505 101.2842323 128.2307698  57.9317892  93.6719613
 127.2963976  58.0519354  93.5024318 128.4084366  57.0290359  93.4079623
 123.7312886  51.3163588  95.8252874 123.3610673  50.7634628  96.5133780
 124.2271978  50.7121721  95.2727874 131.6180249  53.7735211  94.2069647
 132.0840701  54.6063203  94.1329950 132.0687750  53.3080193  94.9114906
 121.5602084  61.7761083 102.9207892 122.2611544  62.4097566 103.0737287
 121.0897199  62.1175814 102.1603532 129.6856480  60.1179032  91.2055799
 129.9616324  60.0035627  92.1149673 128.8160979  59.7196517  91.1667972
 129.5896912  46.1415798  98.2460549 128.6759992  46.3720025  98.4142756
 130.0190013  46.2254242  99.0974581 129.3603370  54.3305690 100.7460443
 128.7074821  54.5781597 100.0912895 129.7383750  53.5169828 100.4122920
 126.3210544  64.3665383  94.8488613 126.5032939  63.5487039  95.3116365
 127.1443530  64.5833075  94.4113503 126.6552710  63.2933568  92.1103662
 127.1840476  62.7826023  91.4973824 126.9180929  62.9776099  92.9749195
 125.4090943  55.0725501 107.2326480 124.7331580  54.9719630 107.9028855
 126.2318577  54.9164715 107.6962477 117.1569802  61.3097438  99.8538995
 117.7423239  60.5641126  99.9866899 116.9594641  61.6201394 100.7375659
 120.0108458  64.3448685  94.8701437 119.3418833  64.8294813  94.3865477
 119.8721327  64.5917905  95.7844816 111.7487457  53.8803038  98.5743438
 111.7871557  53.3466629  99.3680556 111.2427750  53.3538243  97.9554415
 124.1513726  66.3792429 101.4684096 124.7032034  66.5424050 102.2333181
 124.4919920  66.9696866 100.7964121 119.1278219  48.7267578 102.0705981
 119.1919546  49.5882409 101.6583378 119.0645340  48.1141580 101.3378339
 118.6030492  50.7990711 105.7179015 119.2302531  50.4167788 106.3316539
 117.7458411  50.5804913 106.0834707 129.0024601  61.2053686 107.3232750
 129.5464505  61.8183644 106.8287705 128.4211445  61.7633264 107.8399763
 115.3796035  52.6067140  91.6497370 115.6749476  51.6977818  91.5964423
 114.4784071  52.5854879  91.3278372 127.2882114  64.3274404  98.4547778
 127.1633253  63.5264144  97.9458723 127.9461205  64.8220597  97.9661748
 118.9090282  50.6823137  97.6324918 118.1876868  51.2959104  97.4932392
 119.6983538  51.2180901  97.5541564 129.3517022  62.1283424 100.0827328
 128.4047357  62.0088775 100.0105655 129.6999795  61.2405922 100.1653589
 121.7116595  48.0177563 103.9065570 122.2350997  48.2639860 104.6691879
 121.4928929  48.8497598 103.4868707 117.1083876  50.2881238  91.7736695
 116.7796582  49.4078617  91.5911801 117.4623247  50.2328906  92.6613084
 126.3563455  61.9236140  96.2831680 126.2088418  60.9952848  96.4639250
 127.1816949  61.9456231  95.7988756 120.2225699  50.5754207  92.1412172
 120.5621772  51.1040129  91.4190781 120.6697820  50.9134614  92.9170739
 129.9597577  62.7464699  97.3696553 130.8844125  62.5407560  97.2321004
 129.7912880  62.4981100  98.2785895 122.9169140  48.9591258 101.5915240
 122.5765961  48.1599071 101.9935920 122.2108147  49.2592969 101.0192074
 123.5685612  46.0440571 100.0442564 124.3911681  45.5701049  99.9221454
 123.8123676  46.8231054 100.5441250 122.2093847  49.0728829  90.3405465
 122.9302209  49.4510082  89.8369182 121.5859151  49.7917706  90.4440443
 126.3524970  49.7773978  91.2763798 126.5688584  50.6598616  90.9752626
 125.8719037  49.3860191  90.5469440 121.0924191  52.7359691  97.8534542
 120.9468772  53.0499994  98.7458824 120.6149395  53.3544592  97.3005441
 122.9520574  49.7262239  97.9015432 122.9382143  48.8303333  97.5647730
 123.6693002  49.7332903  98.5353718 124.8046704  50.1599579  99.9468559
 124.5464482  51.0816650  99.9452890 124.2731745  49.7630014 100.6369023
 129.7492893  63.2650367  92.7258644 129.9229771  62.6996789  91.9732497
 130.2421784  64.0651261  92.5438134 115.5669853  55.2765036 100.7922203
 115.0223321  56.0524844 100.9242478 116.4449203  55.6235840 100.6341325
 122.3557470  48.6076620  93.1703002 122.4773381  47.6793266  93.3693889
 122.0659512  48.6215305  92.2581317 125.2248660  46.2931530  96.3069722
 125.2470357  46.3570863  95.3521701 125.6416719  45.4536039  96.5010228
 135.6032284  56.0286790  94.3448944 136.0463430  55.2794115  93.9468067
 134.7258795  56.0196926  93.9622676 130.7368066  62.5817131  89.8255543
 131.4318970  63.2023824  90.0442857 131.0791216  61.7312482  90.1007921
 116.3535875  54.4034932 103.6852360 115.6117611  54.5517567 104.2716991
 116.0328619  54.6643198 102.8219110 132.6359489  60.0316836  91.3542874
 133.1610813  60.3704109  90.6292194 132.5481841  59.0963852  91.1706008
 124.2979538  63.9450910 103.4832750 124.6066664  63.7000057 104.3555450
 125.0955020  64.1497549 102.9951620 124.3200150  66.0988820  95.7138127
 123.8805140  65.6065198  96.4070983 125.0708267  65.5561787  95.4730202
 116.7992489  62.2900361  95.7162755 117.6250509  61.9904133  95.3361398
 116.4486541  61.5207983  96.1652543 121.7674022  61.6426829  97.7860428
 121.1454031  60.9797534  97.4862656 122.4378889  61.6687961  97.1034076
 115.0001094  60.2086687  96.6751688 114.1633002  59.7808861  96.4935690
 114.9724739  60.4019130  97.6122480 121.8398549  50.1208617 107.3792934
 121.8886705  50.9970740 106.9970704 122.3821063  49.5786010 106.8064578
 132.3253395  60.6649740 106.6594072 131.5348939  60.6473879 106.1198571
 132.0886749  61.2038034 107.4143108 132.4451270  57.5142207 103.9726800
 132.4949275  57.3492214 104.9142323 132.3365193  56.6469466 103.5824681
 121.3287529  60.1930752  91.2618889 121.4775649  60.8766217  90.6085562
 122.1353972  60.1735842  91.7768345 129.7355032  53.4973135 105.2886107
 130.6364895  53.3579599 104.9970105 129.8103007  53.6627589 106.2284284
 124.0697838  50.8739989 104.1339293 123.2001147  51.1673555 103.8621882
 124.3057318  51.4580434 104.8546557 133.9469467  59.9339148 104.2168822
 133.6554275  60.2969129 105.0532283 133.3341598  59.2206156 104.0382154
 135.1465149  57.4992028  96.7371392 135.9812041  57.9381832  96.9008952
 135.2824278  57.0230681  95.9179638 132.1956655  55.0571763 102.6848880
 132.6710777  55.2499409 101.8767731 131.2722220  55.1130948 102.4392263
 119.0840162  56.2195930  92.2679958 118.8386204  55.3158260  92.4660168
 119.2536076  56.2213080  91.3259436 126.7736872  47.0919606 101.6504713
 127.2918815  47.8280633 101.3251202 126.4192004  47.3983600 102.4851473
 118.3535809  51.9524287  89.7666119 117.6605054  52.0268642  89.1106155
 118.1087561  51.1884631  90.2887636 127.0249466  43.5119889  97.1705610
 127.3051219  42.8443078  97.7966037 127.8100073  43.7048984  96.6580274
 124.8282934  62.6878883  88.7330636 124.2556901  63.3069070  88.2801108
 125.4015728  63.2378244  89.2670558 130.8958324  51.9337523 100.9177185
 131.8475747  52.0335620 100.9389409 130.7261774  51.1415791 101.4275270
 128.9172704  49.0193106 101.1036586 128.3222636  49.2998119 100.4083075
 128.6322400  49.5087007 101.8753327 128.0480194  62.9716033  89.8639219
 128.9810867  62.9061594  90.0672094 127.9603407  63.8072300  89.4053751
 130.6768211  62.2881903  86.8243166 130.5981842  61.9541767  87.7178924
 131.4977877  62.7803671  86.8234639 133.3746402  55.1543642 100.0319485
 133.3422722  54.2159643 100.2179169 133.9847025  55.2327679  99.2985310
 125.2129733  54.0239695  86.0746689 126.1588837  53.8945904  86.1435107
 124.8343978  53.2854357  86.5516117 133.5240890  51.9454686 100.0777768
 133.0079939  51.1613142  99.8907697 134.4080839  51.6173402 100.2424287
 131.1851617  45.6895701  96.0373581 130.9876438  45.3810790  96.9216913
 131.7951323  46.4157340  96.1671511 139.1922952  56.2159649  99.1725522
 139.9226340  55.9544937  99.7333225 138.5829897  55.4788371  99.2127590
 137.2738249  54.3567512  99.7699973 136.5471412  54.2223477  99.1616464
 136.8585536  54.6644340 100.5756691 125.0968425  58.0757442 107.5347346
 126.0171435  58.2536041 107.7287392 125.0618008  57.1313487 107.3827045
 123.3972650  51.9489672  86.0101574 122.4904105  51.6522785  86.0864288
 123.6748631  51.6519490  85.1435860 114.3150590  53.2696035  96.4600620
 113.9953375  52.4161343  96.1674994 113.7684018  53.4844613  97.2158588
 118.0930498  55.9858476 100.1770127 118.3116508  56.9175584 100.1958161
 118.5056272  55.6266451 100.9624931 125.0134716  46.4926562  92.1645815
 124.2035444  46.1473646  92.5401061 125.7019133  46.1834105  92.7533427
 126.9425264  45.5704608  93.7870112 127.4956302  45.9900062  94.4460135
 127.1795350  44.6440356  93.8293068 122.9658363  51.5591682 109.5672876
 122.8655090  52.5086039 109.4984967 122.7479905  51.2309921 108.6948946
 122.1671434  48.8076607  86.1513553 123.0290598  49.1331505  86.4109371
 122.3521779  48.0208103  85.6386619 114.1838850  56.8898947  98.4293742
 113.4902322  56.4752899  97.9163696 114.9311841  56.9319483  97.8327161
 130.3204071  47.6805133  93.2948776 129.7402740  48.3389938  92.9126829
 130.0540004  46.8582478  92.8836194 128.7707637  47.0810191  95.4970097
 129.2707416  47.1926726  94.6884415 129.4143245  46.7771244  96.1370905
 122.8289633  54.9888821 108.3837938 122.3456715  55.7889181 108.5901827
 122.9150572  54.9996766 107.4305382 116.0975593  56.8217200  96.3059757
 116.0746281  56.9204888  95.3541640 116.4076229  57.6682351  96.6276923
 118.7562971  58.8793355 100.4206371 119.7106224  58.8477298 100.3536303
 118.5575494  58.4183979 101.2356597 119.3462353  57.4494472 102.9877169
 120.1655242  57.9438550 103.0112006 119.6199160  56.5326440 102.9594737
 129.1028949  49.8405224  92.3505125 128.2154804  50.1254874  92.1325319
 129.5182938  49.6798987  91.5032401 132.4543485  49.8651745  96.0659464
 133.2303875  50.3548197  96.3384081 131.7291619  50.2909799  96.5231333
 134.8916044  50.5779364  97.1233404 135.4860535  50.3375100  96.4126713
 134.9642627  49.8586495  97.7506941 117.1113199  64.4212975  97.4376569
 116.9767667  63.6613376  96.8714567 116.6945262  65.1453875  96.9705358
 128.2472162  59.6049899  86.4453145 128.9508013  59.8099901  87.0610800
 127.5234811  60.1726660  86.7102228 129.0769973  55.3559760  92.5655415
 129.0205174  55.8128311  91.7263047 129.6298315  54.5950444  92.3878257
 132.8874779  51.1449492  93.3905534 132.6311713  50.7446127  94.2213742
 132.2627647  51.8593286  93.2655673 137.1987116  53.8845565  95.8976826
 136.6386674  53.9538754  96.6708388 136.5930620  53.7086550  95.1776322
 120.2682325  65.3182292  97.6495012 120.1514709  66.2627724  97.5473702
 119.4474772  65.0155854  98.0380811 130.1558860  60.0432428  88.4951605
 130.9904464  59.6113626  88.3129079 129.9943203  59.8714441  89.4228499
 129.8104752  56.5464541  89.8607944 129.7553556  56.3808812  88.9196388
 129.1850807  57.2540574  90.0170134 114.5997267  51.7832605 103.6869366
 115.2456131  51.2731559 104.1756591 114.3914418  52.5201287 104.2612791
 127.1250659  58.8513453 109.1861507 127.9941819  59.0254105 108.8248142
 126.6457411  59.6707870 109.0637236 123.1200877  46.0472650  89.4393262
 123.1079547  46.9914490  89.5961533 124.0124299  45.8642795  89.1452723
 121.2936839  65.9710554 100.8650940 122.1964086  66.0034164 101.1817435
 121.0674209  65.0411005 100.8797276 123.0490441  64.7241540  97.5261019
 122.0986072  64.7243402  97.4125391 123.3522928  63.9774275  97.0097054
 126.9352997  42.6415427  93.6939199 126.1685393  42.0873913  93.8395881
 127.3463702  42.7137295  94.5553351 118.9394758  48.9300222 107.7844380
 119.8026220  48.5737027 107.9947705 118.3660169  48.5914117 108.4719785
 138.7843135  70.5602079  98.5906781 139.4221545  70.4408826  97.8870121
 138.6663978  71.5082923  98.6494733 135.5932841  70.5129507  98.5268306
 135.2551353  70.3970572  97.6388841 136.4622609  70.1120672  98.5069312
 131.4519657  72.3664983  94.5165197 130.8884522  72.2754920  93.7481485
 131.3372052  71.5464888  94.9967689 136.0752624  71.6664359 104.4854512
 136.0641265  71.2717157 103.6135015 136.2373264  70.9330431 105.0788283
 128.9984089  73.8616175  97.3549417 129.7905381  73.5207000  96.9395717
 129.2380739  73.9711150  98.2751571 137.0319216  76.0335951  89.8279662
 136.3807195  76.6190031  89.4413676 137.8263578  76.5642146  89.8874699
 130.9574843  73.1225088  90.2266796 131.7305719  72.5754075  90.0879672
 131.3100242  73.9869338  90.4381258 132.7959885  74.4501470 103.4333696
 132.5049751  75.3547101 103.3180362 133.4316870  74.4917998 104.1477765
 133.7216092  71.8278319 100.0235055 134.3179664  71.6034341  99.3092018
 133.7791064  71.0863064 100.6260503 133.2941121  69.2817754  87.8585246
 133.5466641  68.7599276  87.0968709 132.3565680  69.1183900  87.9611930
 138.3384403  68.2853533  95.6659989 139.1247493  67.8672956  95.3150406
 138.6023108  69.1899625  95.8341638 138.5094481  73.7226383  90.3648646
 137.8740314  73.7961010  91.0769551 138.1791887  74.3119982  89.6867725
 133.0137409  71.1845860  90.0609621 132.8973667  70.5090764  90.7290705
 133.1239669  70.6978234  89.2441774 135.3568950  70.6456007  93.7656310
 134.9927157  70.1186628  94.4769232 136.2136066  70.2554476  93.5922796
 134.9974437  65.6745907  88.7617659 135.1648840  66.5426143  89.1288130
 134.8071606  65.8373189  87.8378948 137.7549770  74.1362886 100.4283489
 137.4550494  75.0387925 100.3199296 137.4100830  73.8695069 101.2804642
 131.2062252  70.5876683  96.4620194 130.2812748  70.4552897  96.6697885
 131.4546665  71.3670902  96.9590136 141.1546914  66.6545426  98.1080927
 140.2463792  66.5860835  97.8139688 141.1034510  67.1317371  98.9362752
 134.9763658  68.1303565  89.7464326 134.8563283  68.5760615  90.5849806
 134.2816246  68.4788882  89.1877864 128.5671063  70.2309956  97.2963983
 128.6963444  70.4844435  98.2103394 127.8868514  70.8237664  96.9768638
 132.7370550  80.9007206  93.3954457 132.6594580  81.8515031  93.4742937
 132.1332194  80.5553079  94.0529383 135.2287780  68.0735072 106.0515824
 134.4521114  68.6328992 106.0418688 135.8678343  68.5591855 106.5730694
 133.4834152  70.8820525 105.6133791 134.2248837  71.4205569 105.3368614
 132.7771138  71.5086814 105.7705343 138.9589492  73.0249666 104.2105952
 139.3672848  72.5832076 103.4660585 138.2366753  72.4502293 104.4640145
 135.3120562  67.9622272 101.5839509 136.1581757  68.3861686 101.7274158
 135.2519200  67.3055897 102.2778072 139.2818307  73.5850856  97.9658241
 138.6527169  73.7496570  97.2634309 138.8943969  73.9992466  98.7369205
 138.4620007  65.6226641 103.2420683 138.2180939  66.3768701 102.7054959
 138.7379938  66.0011988 104.0767930 140.4158470  72.1665253 101.9197948
 140.6275365  72.8097013 101.2432330 140.3688218  71.3327570 101.4519879
 138.0184699  64.7783074  98.8234521 137.1569178  65.0764327  99.1151258
 138.0447134  64.9953473  97.8915553 134.8346268  73.3225264  95.2308326
 135.2984614  73.6012967  94.4412949 134.5703067  72.4208709  95.0481417
 131.7270350  72.8696746  98.1688090 132.2971707  73.2984014  97.5305574
 132.3178461  72.5879331  98.8672275 133.7715155  69.4448417  92.0397891
 134.4739198  69.8969460  92.5071818 133.4395783  68.8032236  92.6677785
 132.2195516  68.0360173 106.4149101 131.5894177  68.7176454 106.6484498
 132.1131604  67.9243255 105.4702239 127.5140488  67.7031969  97.3415025
 126.7239542  67.9589498  96.8655136 128.0051736  68.5180307  97.4467066
 129.4655234  68.0676549  94.2998502 128.6686397  68.1795243  94.8181997
 129.2380826  68.4063201  93.4339392 135.2960901  74.5921252 102.2481016
 135.3605334  75.0541659 103.0839188 134.5871825  73.9618617 102.3763326
 125.7978191  67.9562460  99.7730016 126.0486230  68.8409470 100.0387592
 126.3337740  67.7767061  99.0005108 135.0108919  76.2589359  92.1159997
 134.8754594  77.1040895  92.5444844 135.5518732  76.4608637  91.3525930
 131.4976259  62.3380939 108.7774352 131.1043204  61.7847138 109.4521996
 132.3142399  62.6491518 109.1680869 128.4638317  73.7764797  92.6887922
 128.9762837  74.5708048  92.8393486 129.1161029  73.0791088  92.6221523
 130.2733201  76.8930554  94.7710675 130.4499830  77.8148518  94.5831659
 131.0690035  76.5788973  95.2005055 134.4144220  63.7538818 106.3694608
 135.1553933  64.3545971 106.2899071 134.6462143  63.0116456 105.8112651
 129.5585558  68.9395185 104.6472838 129.4439073  68.0380443 104.9479937
 128.7030076  69.1858882 104.2957655 136.6377396  76.8812926 106.2460339
 136.1941250  76.0949304 105.9281243 137.2994609  77.0692076 105.5804230
 131.3964517  78.4108727 100.7721017 131.9471942  78.2825791  99.9998011
 130.5575993  78.7103616 100.4215910 138.7358634  77.1615726 104.2741740
 138.7177109  77.9824607 103.7822009 139.6578554  77.0369801 104.4991881
 135.1931688  74.6759855 105.1165248 135.7260025  73.9148143 104.8864556
 134.6645769  74.3833507 105.8589403 138.3601383  59.7819921 100.6458890
 138.0165652  60.6721563 100.5698001 138.7280345  59.5921579  99.7828475
 126.4287233  72.1053452  93.4647492 127.2662455  72.5150460  93.2481200
 126.6065501  71.1652894  93.4347686 138.3251665  69.7728532  89.1531325
 137.8098289  70.5433137  89.3919713 138.0528974  69.0993668  89.7764387
 135.9098776  64.6178233  94.2116564 135.0540373  64.2285083  94.0322202
 136.3225728  64.6970194  93.3516349 137.4397923  62.1524576  98.6108123
 136.9362719  62.1154711  97.7975929 137.7328530  63.0617319  98.6704780
 133.6840809  62.2363306  97.6174305 134.5493806  62.0406115  97.2580195
 133.7518318  62.0073658  98.5443662 138.1137969  67.6455624  90.9791106
 137.8088104  67.9601774  91.8301250 139.0668411  67.7237044  91.0218439
 136.5584400  73.8045848  92.6284060 136.0305762  73.0698607  92.3157298
 136.0571903  74.5820524  92.3824029 131.2903128  64.4665514  94.9890672
 131.8646880  64.2440695  94.2563865 131.8774110  64.5354208  95.7419273
 140.3482705  70.3539241  95.7955048 140.8614587  70.9869233  96.2976758
 140.9983929  69.7540436  95.4298408 131.6172715  66.4969975  89.0086557
 130.7810027  66.8344662  89.3295832 131.4777485  66.3618955  88.0713694
 133.5925796  61.3406763  93.7165741 132.9390208  61.0255780  93.0922356
 133.5506270  60.7182503  94.4425564 134.7037001  71.6226058  85.6319033
 133.7964062  71.3915311  85.8310182 135.2008033  70.8263677  85.8193015
 137.6105080  80.3323565  88.5515720 136.9366778  80.6355262  89.1600677
 137.9970901  81.1352645  88.2021177 136.8263536  67.8288696  98.0413389
 135.9086098  68.0503643  97.8835077 137.2423680  67.9035007  97.1825096
 137.6098584  69.2280112  93.1716069 138.3570403  69.7401509  92.8623191
 137.8790173  68.9064165  94.0320463 135.8825234  71.7238653  90.1543023
 134.9736453  71.4397686  90.2515493 135.9120318  72.1437731  89.2946330
 141.1144501  75.3345242  93.9234191 140.6606829  74.4936152  93.9799382
 140.4838468  75.9706641  94.2608971 140.0577421  66.2637228  95.1534859
 139.3200178  65.7514615  95.4845101 140.3104195  65.8237610  94.3418135
 139.5577441  77.1721739  94.8584009 139.8500415  77.7326796  94.1396375
 140.0676061  77.4650300  95.6137168 140.1589048  59.0413480  95.7476628
 140.4647925  58.1810844  95.4602543 140.8841653  59.6331101  95.5475622
 126.4513404  69.4444167  94.1358226 126.2537804  68.8513528  93.4109292
 125.8960068  69.1396377  94.8534164 134.4310128  69.3367273  96.2552819
 134.4858738  68.3841110  96.1795295 133.6201330  69.4926713  96.7394117
 135.5801322  73.2647396  87.4931102 135.1420752  72.5483255  87.0336739
 136.3211763  73.4923511  86.9316193 132.3702488  67.9544333  94.0143198
 131.5570354  68.2538504  94.4208390 132.8661482  67.5600022  94.7317680
 134.5211066  77.9502090  95.9477462 134.4787245  78.1762936  95.0185994
 135.4373765  77.7165465  96.0963264 137.9676700  68.4186158 102.8458092
 138.3226087  68.6457631 103.7052557 138.6148831  68.7504534 102.2235347
 131.8616563  65.5262689  99.6304433 132.5015942  65.3851448  98.9327396
 131.0294093  65.2397202  99.2543035 132.6376867  74.8265119  95.7439425
 133.4317465  74.3315439  95.5422000 131.9268559  74.2982982  95.3807131
 137.4571711  77.2083215 100.0951793 137.5108733  77.7774151 100.8629509
 136.5886493  77.3785100  99.7305830 128.9459630  68.9708201  91.8199178
 128.0157218  68.9092656  92.0369140 129.0417102  68.4484154  91.0235819
 128.8645179  65.4963014  94.4077419 129.1251997  66.4108347  94.2986580
 129.6862352  65.0287456  94.5574032 130.3370105  66.9100771 101.5776244
 131.0093158  66.7018133 100.9288893 129.5099891  66.7122857 101.1381476
 136.2395677  63.5362712 103.5941905 135.5923592  64.2352661 103.5006381
 137.0096692  63.9698856 103.9618153 139.6474474  73.8011564 106.6692458
 139.4959981  73.5722116 105.7522542 139.6379154  74.7582165 106.6823803
 136.4159811  71.3743477 101.6538725 137.3451871  71.5254636 101.4807692
 135.9950841  71.4627497 100.7987371 135.2148143  75.3994141  99.4237262
 135.0759228  75.0312925 100.2963200 134.4262739  75.9141781  99.2521220
 135.8096295  80.5003238  90.7662799 135.9848050  80.0291281  91.5808421
 135.1229083  81.1269004  90.9944059 136.7653358  74.7775744  96.8126100
 136.4303190  74.7376514  97.7083750 136.2657304  74.1120460  96.3396510
 130.7397602  70.1843374 102.3378681 130.6017400  69.4523613 102.9390220
 131.6502525  70.0952274 102.0562869 139.7012549  72.1231778  87.0863160
 139.0841720  71.3978606  86.9896212 139.2329038  72.8841138  86.7430234
 133.3679902  69.8963333 101.8262361 134.0779521  69.2556525 101.7848979
 133.3249211  70.1476228 102.7488542 132.0808836  66.8828551 103.6458000
 131.5446193  66.4319289 104.2979597 131.4925545  67.0174460 102.9028465
 130.3757380  83.6492600  97.5402659 130.6153978  84.2811124  98.2181677
 129.5326576  83.2980640  97.8268018 131.4911095  66.3417202  86.2084464
 130.6140562  66.2206003  85.8446711 131.9668848  65.5503281  85.9563353
 123.0113236  71.1294362  96.3025971 123.6984275  70.8156092  95.7146986
 122.8561364  72.0335727  96.0293223 127.8147958  66.0184559 100.7310995
 127.7306146  65.4110228  99.9961405 126.9930664  66.5093577 100.7320491
 134.8885242  79.4571723  99.9444163 134.8155413  80.2626694 100.4563467
 134.4462635  79.6563689  99.1192184 134.6775021  78.6943493  93.4546984
 133.8942543  79.2365173  93.5485209 135.3767767  79.2117472  93.8541226
 137.9871672  64.5038122  96.0981190 138.4840371  63.7508085  95.7782260
 137.2158653  64.5402439  95.5324399 137.3483925  79.3558557 102.1002322
 138.0611898  79.9906022 102.0278223 136.8573954  79.4522423 101.2842323
 139.0701452  73.2609809  93.6719613 138.1357731  73.3811272  93.5024318
 139.2478121  72.3582276  93.4079623 134.5706640  66.6455505  95.8252874
 134.2004428  66.0926546  96.5133780 135.0665733  66.0413639  95.2727874
 132.3995839  77.1053000 102.9207892 133.1005298  77.7389483 103.0737287
 131.9290954  77.4467732 102.1603532 140.5250235  75.4470950  91.2055799
 140.8010079  75.3327545  92.1149673 139.6554733  75.0488435  91.1667972
 140.4290666  61.4707716  98.2460549 139.5153746  61.7011943  98.4142756
 140.8583768  61.5546160  99.0974581 140.1997125  69.6597608 100.7460443
 139.5468575  69.9073515 100.0912895 140.5777505  68.8461746 100.4122920
 137.1604299  79.6957301  94.8488613 137.3426693  78.8778957  95.3116365
 137.9837285  79.9124993  94.4113503 137.4946464  78.6225486  92.1103662
 138.0234231  78.1117941  91.4973824 137.7574684  78.3068016  92.9749195
 136.2484698  70.4017419 107.2326480 135.5725335  70.3011548 107.9028855
 137.0712332  70.2456633 107.6962477 127.9963557  76.6389355  99.8538995
 128.5816994  75.8933043  99.9866899 127.7988395  76.9493312 100.7375659
 130.8502212  79.6740603  94.8701437 130.1812587  80.1586730  94.3865477
 130.7115082  79.9209823  95.7844816 122.5881212  69.2094956  98.5743438
 122.6265311  68.6758546  99.3680556 122.0821504  68.6830161  97.9554415
 134.9907481  81.7084346 101.4684096 135.5425789  81.8715968 102.2333181
 135.3313674  82.2988784 100.7964121 129.9671974  64.0559496 102.0705981
 130.0313300  64.9174327 101.6583378 129.9039094  63.4433498 101.3378339
 129.4424246  66.1282629 105.7179015 130.0696285  65.7459706 106.3316539
 128.5852165  65.9096831 106.0834707 139.8418355  76.5345604 107.3232750
 140.3858259  77.1475562 106.8287705 139.2605200  77.0925182 107.8399763
 126.2189789  67.9359058  91.6497370 126.5143230  67.0269736  91.5964423
 125.3177825  67.9146797  91.3278372 138.1275868  79.6566322  98.4547778
 138.0027007  78.8556062  97.9458723 138.7854959  80.1512515  97.9661748
 129.7484036  66.0115054  97.6324918 129.0270622  66.6251022  97.4932392
 130.5377292  66.5472819  97.5541564 140.1910776  77.4575342 100.0827328
 139.2441112  77.3380693 100.0105655 140.5393550  76.5697840 100.1653589
 132.5510350  63.3469481 103.9065570 133.0744752  63.5931777 104.6691879
 132.3322683  64.1789516 103.4868707 127.9477631  65.6173155  91.7736695
 127.6190337  64.7370534  91.5911801 128.3017002  65.5620824  92.6613084
 137.1957210  77.2528058  96.2831680 137.0482172  76.3244765  96.4639250
 138.0210703  77.2748149  95.7988756 131.0619454  65.9046125  92.1412172
 131.4015526  66.4332046  91.4190781 131.5091574  66.2426531  92.9170739
 133.7562895  64.2883176 101.5915240 133.4159715  63.4890989 101.9935920
 133.0501901  64.5884887 101.0192074 134.4079367  61.3732488 100.0442564
 135.2305436  60.8992966  99.9221454 134.6517430  62.1522972 100.5441250
 133.0487601  64.4020747  90.3405465 133.7695964  64.7802000  89.8369182
 132.4252905  65.1209624  90.4440443 137.1918724  65.1065896  91.2763798
 137.4082338  65.9890534  90.9752626 136.7112791  64.7152109  90.5469440
 131.9317945  68.0651609  97.8534542 131.7862526  68.3791912  98.7458824
 131.4543149  68.6836509  97.3005441 133.7914328  65.0554157  97.9015432
 133.7775897  64.1595250  97.5647730 134.5086756  65.0624821  98.5353718
 135.6440459  65.4891497  99.9468559 135.3858237  66.4108568  99.9452890
 135.1125499  65.0921932 100.6369023 140.5886648  78.5942284  92.7258644
 140.7623525  78.0288707  91.9732497 141.0815539  79.3943179  92.5438134
 126.4063608  70.6056953 100.7922203 125.8617076  71.3816761 100.9242478
 127.2842957  70.9527758 100.6341325 133.1951224  63.9368537  93.1703002
 133.3167135  63.0085183  93.3693889 132.9053267  63.9507223  92.2581317
 136.0642415  61.6223448  96.3069722 136.0864111  61.6862781  95.3521701
 136.4810474  60.7827956  96.5010228 127.1929629  69.7326850 103.6852360
 126.4511365  69.8809485 104.2716991 126.8722374  69.9935115 102.8219110
 135.1373292  79.2742828 103.4832750 135.4460418  79.0291975 104.3555450
 135.9348774  79.4789466 102.9951620 135.1593904  81.4280737  95.7138127
 134.7198894  80.9357116  96.4070983 135.9102021  80.8853705  95.4730202
 127.6386243  77.6192278  95.7162755 128.4644263  77.3196050  95.3361398
 127.2880295  76.8499901  96.1652543 132.6067776  76.9718747  97.7860428
 131.9847786  76.3089452  97.4862656 133.2772643  76.9979878  97.1034076
 125.8394848  75.5378605  96.6751688 125.0026756  75.1100779  96.4935690
 125.8118494  75.7311048  97.6122480 132.6792304  65.4500535 107.3792934
 132.7280459  66.3262657 106.9970704 133.2214818  64.9077928 106.8064578
 132.1681283  75.5222670  91.2618889 132.3169404  76.2058134  90.6085562
 132.9747727  75.5027760  91.7768345 134.9091592  66.2031907 104.1339293
 134.0394902  66.4965473 103.8621882 135.1451073  66.7872352 104.8546557
 129.9233916  71.5487848  92.2679958 129.6779958  70.6450178  92.4660168
 130.0929831  71.5504998  91.3259436 137.6130626  62.4211524 101.6504713
 138.1312570  63.1572551 101.3251202 137.2585759  62.7275517 102.4851473
 129.1929564  67.2816205  89.7666119 128.4998809  67.3560560  89.1106155
 128.9481316  66.5176549  90.2887636 137.8643220  58.8411806  97.1705610
 138.1444974  58.1734995  97.7966037 138.6493827  59.0340902  96.6580274
 135.6676689  78.0170800  88.7330636 135.0950656  78.6360987  88.2801108
 136.2409482  78.5670162  89.2670558 139.7566458  64.3485024 101.1036586
 139.1616390  64.6290036 100.4083075 139.4716155  64.8378925 101.8753327
 138.8873948  78.3007950  89.8639219 139.8204622  78.2353512  90.0672094
 138.7997161  79.1364217  89.4053751 136.0523487  69.3531613  86.0746689
 136.9982592  69.2237821  86.1435107 135.6737732  68.6146275  86.5516117
 135.9362180  73.4049359 107.5347346 136.8565189  73.5827958 107.7287392
 135.9011763  72.4605405 107.3827045 134.2366404  67.2781589  86.0101574
 133.3297860  66.9814702  86.0864288 134.5142385  66.9811408  85.1435860
 125.1544345  68.5987953  96.4600620 124.8347129  67.7453261  96.1674994
 124.6077773  68.8136531  97.2158588 128.9324252  71.3150394 100.1770127
 129.1510262  72.2467502 100.1958161 129.3450026  70.9558368 100.9624931
 135.8528470  61.8218479  92.1645815 135.0429198  61.4765564  92.5401061
 136.5412887  61.5126023  92.7533427 137.7819018  60.8996526  93.7870112
 138.3350057  61.3191979  94.4460135 138.0189105  59.9732274  93.8293068
 133.8052118  66.8883600 109.5672876 133.7048844  67.8377957 109.4984967
 133.5873660  66.5601839 108.6948946 133.0065189  64.1368525  86.1513553
 133.8684353  64.4623423  86.4109371 133.1915533  63.3500021  85.6386619
 125.0232605  72.2190864  98.4293742 124.3296076  71.8044817  97.9163696
 125.7705596  72.2611401  97.8327161 139.6101392  62.4102109  95.4970097
 140.1101170  62.5218643  94.6884415 140.2537000  62.1063162  96.1370905
 133.6683388  70.3180738 108.3837938 133.1850469  71.1181099 108.5901827
 133.7544327  70.3288683 107.4305382 126.9369347  72.1509118  96.3059757
 126.9140035  72.2496805  95.3541640 127.2469984  72.9974269  96.6276923
 129.5956725  74.2085273 100.4206371 130.5499979  74.1769216 100.3536303
 129.3969249  73.7475897 101.2356597 130.1856107  72.7786389 102.9877169
 131.0048996  73.2730468 103.0112006 130.4592915  71.8618357 102.9594737
 139.9422703  65.1697142  92.3505125 139.0548558  65.4546792  92.1325319
 140.3576693  65.0090905  91.5032401 127.9506954  79.7504893  97.4376569
 127.8161422  78.9905294  96.8714567 127.5339016  80.4745793  96.9705358
 139.0865917  74.9341816  86.4453145 139.7901767  75.1391819  87.0610800
 138.3628566  75.5018578  86.7102228 139.9163727  70.6851677  92.5655415
 139.8598929  71.1420229  91.7263047 140.4692070  69.9242362  92.3878257
 131.1076080  80.6474210  97.6495012 130.9908464  81.5919642  97.5473702
 130.2868526  80.3447771  98.0380811 140.6498507  71.8756459  89.8607944
 140.5947310  71.7100730  88.9196388 140.0244562  72.5832492  90.0170134
 125.4391021  67.1124523 103.6869366 126.0849885  66.6023477 104.1756591
 125.2308173  67.8493205 104.2612791 137.9644414  74.1805371 109.1861507
 138.8335573  74.3546023 108.8248142 137.4851165  74.9999787 109.0637236
 133.9594632  61.3764568  89.4393262 133.9473302  62.3206408  89.5961533
 134.8518054  61.1934713  89.1452723 132.1330594  81.3002472 100.8650940
 133.0357841  81.3326082 101.1817435 131.9067964  80.3702923 100.8797276
 133.8884196  80.0533458  97.5261019 132.9379827  80.0535320  97.4125391
 134.1916682  79.3066193  97.0097054 137.7746751  57.9707344  93.6939199
 137.0079147  57.4165831  93.8395881 138.1857456  58.0429213  94.5553351
 129.7788512  64.2592140 107.7844380 130.6419974  63.9028945 107.9947705
 129.2053923  63.9206035 108.4719785 139.8377843  89.1908093  97.3549417
 140.6299135  88.8498917  96.9395717 140.0774493  89.3003068  98.2751571
 139.4064817  85.5601874  97.2963983 139.5357199  85.8136353  98.2103394
 138.7262269  86.1529582  96.9768638 138.3534243  83.0323887  97.3415025
 137.5633297  83.2881416  96.8655136 138.8445490  83.8472225  97.4467066
 140.3048988  83.3968466  94.2998502 139.5080152  83.5087161  94.8181997
 140.0774581  83.7355118  93.4339392 136.6371946  83.2854377  99.7730016
 136.8879984  84.1701387 100.0387592 137.1731494  83.1058979  99.0005108
 139.3032071  89.1056715  92.6887922 139.8156592  89.8999965  92.8393486
 139.9554784  88.4083005  92.6221523 140.3979312  84.2687103 104.6472838
 140.2832827  83.3672360 104.9479937 139.5423830  84.5150800 104.2957655
 137.2680988  87.4345369  93.4647492 138.1056210  87.8442378  93.2481200
 137.4459256  86.4944811  93.4347686 137.2907159  84.7736085  94.1358226
 137.0931559  84.1805445  93.4109292 136.7353823  84.4688295  94.8534164
 139.7853385  84.3000119  91.8199178 138.8550973  84.2384574  92.0369140
 139.8810857  83.7776071  91.0235819 139.7038934  80.8254931  94.4077419
 139.9645751  81.7400265  94.2986580 140.5256106  80.3579374  94.5574032
 133.8506990  86.4586280  96.3025971 134.5378030  86.1448010  95.7146986
 133.6955119  87.3627644  96.0293223 138.6541712  81.3476476 100.7310995
 138.5699901  80.7402146  99.9961405 137.8324419  81.8385495 100.7320491
 138.8357311  91.9681273  99.8538995 139.4210748  91.2224961  99.9866899
 138.6382150  92.2785230 100.7375659 133.4274966  84.5386873  98.5743438
 133.4659066  84.0050464  99.3680556 132.9215259  84.0122079  97.9554415
 140.8065728  79.3851414 102.0705981 140.8707055  80.2466245 101.6583378
 140.7432849  78.7725415 101.3378339 140.2818001  81.4574546 105.7179015
 140.9090040  81.0751624 106.3316539 139.4245920  81.2388748 106.0834707
 137.0583544  83.2650975  91.6497370 137.3536985  82.3561654  91.5964423
 136.1571579  83.2438715  91.3278372 138.7871385  80.9465073  91.7736695
 138.4584091  80.0662452  91.5911801 139.1410756  80.8912742  92.6613084
 137.2457362  85.9348871 100.7922203 136.7010830  86.7108679 100.9242478
 138.1236712  86.2819675 100.6341325 138.0323384  85.0618767 103.6852360
 137.2905120  85.2101403 104.2716991 137.7116128  85.3227033 102.8219110
 138.4779998  92.9484196  95.7162755 139.3038017  92.6487968  95.3361398
 138.1274050  92.1791818  96.1652543 136.6788603  90.8670522  96.6751688
 135.8420511  90.4392697  96.4935690 136.6512248  91.0602966  97.6122480
 140.7627671  86.8779765  92.2679958 140.5173713  85.9742095  92.4660168
 140.9323585  86.8796916  91.3259436 140.0323318  82.6108123  89.7666119
 139.3392563  82.6852478  89.1106155 139.7875070  81.8468466  90.2887636
 135.9938099  83.9279871  96.4600620 135.6740884  83.0745179  96.1674994
 135.4471527  84.1428449  97.2158588 139.7718007  86.6442312 100.1770127
 139.9904017  87.5759419 100.1958161 140.1843781  86.2850286 100.9624931
 135.8626359  87.5482782  98.4293742 135.1689831  87.1336735  97.9163696
 136.6099350  87.5903319  97.8327161 137.7763102  87.4801036  96.3059757
 137.7533790  87.5788723  95.3541640 138.0863738  88.3266187  96.6276923
 138.7900708  95.0796810  97.4376569 138.6555176  94.3197211  96.8714567
 138.3732771  95.8037710  96.9705358 136.2784776  82.4416441 103.6869366
 136.9243640  81.9315395 104.1756591 136.0701927  83.1785122 104.2612791
 100.2189288  11.9193576  80.1199764 100.1413318  12.8701401  80.1988244
  99.6150932  11.5739448  80.7774690 102.4927657   7.2775729  78.8405303
 102.3573332   8.1227265  79.2690151 103.0337469   7.4795007  78.0771237
  97.7551939   7.9116923  81.4955982  97.9318567   8.8334888  81.3076965
  98.5508773   7.5975342  81.9250361  98.8783254   9.4295097  87.4966324
  99.4290680   9.3012160  86.7243318  98.0394730   9.7289986  87.1461217
 105.0923817  11.3509935  75.2761026 104.4185516  11.6541631  75.8845984
 105.4789639  12.1539015  74.9266483 102.0029804   8.9688460  82.6722769
 101.9605982   9.1949306  81.7431301 102.9192503   8.7351834  82.8208570
 104.9390449   8.2269584  86.8197099 104.9927471   8.7960521  87.5874815
 104.0705230   8.3971469  86.4551137 103.2915032  11.5189607  77.4908105
 103.4666788  11.0477650  78.3053728 102.6047820  12.1455373  77.7189366
  97.8576118  14.6678970  84.2647966  98.0972716  15.2997494  84.9426984
  97.0145314  14.3167010  84.5513325 102.3703980  10.4758092  86.6689470
 102.2974151  11.2813064  87.1808774 101.9281373  10.6750058  85.8437491
 102.1593759   9.7129862  80.1792291 101.3761281  10.2551543  80.2730516
 102.8586504  10.2303842  80.5786532 104.8302663  10.3744926  88.8247628
 105.5430635  11.0092391  88.7523530 104.3392692  10.4708792  88.0087630
  99.8814577   8.1239370  89.6453199 100.5824036   8.7575853  89.7982593
  99.4109692   8.4654101  88.8848838 104.6423036  10.7143670  81.5733920
 104.8245431   9.8965326  82.0361672 105.4656023  10.9311363  81.1358810
 104.9765202   9.6411856  78.8348968 105.5052968   9.1304310  78.2219130
 105.2393422   9.3254386  79.6994501  95.4782295   7.6575725  86.5784302
  96.0635732   6.9119413  86.7112206  95.2807133   7.9679682  87.4620966
  98.3320950  10.6926972  81.5946744  97.6631325  11.1773100  81.1110784
  98.1933820  10.9396193  82.5090123 102.4726219  12.7270716  88.1929402
 103.0244527  12.8902337  88.9578488 102.8132412  13.3175154  87.5209427
 105.6094606  10.6752691  85.1793085 105.4845745   9.8742431  84.6704030
 106.2673697  11.1698885  84.6907055 102.6192030  10.2929197  90.2078057
 102.9279156  10.0478344  91.0800756 103.4167512  10.4975836  89.7196927
 102.6412642  12.4467107  82.4383433 102.2017632  11.9543486  83.1316290
 103.3920759  11.9040075  82.1975509  95.1204981   8.6378648  82.4408061
  95.9463001   8.3382420  82.0606705  94.7699033   7.8686270  82.8897850
 100.0886514   7.9905116  84.5105735  99.4666523   7.3275821  84.2107963
 100.7591381   8.0166248  83.8279383  93.3213586   6.5564974  83.3996995
  92.4845494   6.1287149  83.2180996  93.2937231   6.7497418  84.3367786
 103.1495426   9.0357170  75.4575943 102.5769394   9.6547357  75.0046415
 103.7228220   9.5856532  75.9915865 106.3692686   9.3194320  76.5884525
 107.3023359   9.2539882  76.7917401 106.2815899  10.1550587  76.1299058
  95.4325692  10.7691262  84.1621876  95.2980160  10.0091663  83.5959874
  95.0157754  11.4932162  83.6950665  98.5894818  11.6660579  84.3740319
  98.4727202  12.6106012  84.2719009  97.7687264  11.3634141  84.7626118
  99.6149332  12.3188841  87.5896247 100.5176578  12.3512451  87.9062742
  99.3886702  11.3889292  87.6042583 101.3702934  11.0719828  84.2506326
 100.4198565  11.0721689  84.1370698 101.6735420  10.3252562  83.7342360
 117.1055627  16.9080366  85.3152088 117.7434037  16.7887113  84.6115428
 116.9876470  17.8561210  85.3740040 113.9145333  16.8607794  85.2513613
 113.5763845  16.7448859  84.3634148 114.7835102  16.4598959  85.2314619
 109.7732149  18.7143271  81.2410504 109.2097014  18.6233208  80.4726791
 109.6584544  17.8943175  81.7212996 114.3965116  18.0142646  91.2099818
 114.3853757  17.6195444  90.3380322 114.5585756  17.2808719  91.8033590
 107.3196581  20.2094462  84.0794724 108.1117873  19.8685287  83.6641023
 107.5593231  20.3189437  84.9996877 115.3531708  22.3814238  76.5524969
 114.7019688  22.9668319  76.1658982 116.1476071  22.9120433  76.6120006
 109.2787335  19.4703375  76.9512103 110.0518211  18.9232363  76.8124979
 109.6312734  20.3347625  77.1626564 111.1172378  20.7979758  90.1579002
 110.8262244  21.7025389  90.0425668 111.7529362  20.8396285  90.8723072
 112.0428584  18.1756606  86.7480362 112.6392157  17.9512629  86.0337325
 112.1003556  17.4341352  87.3505810 111.6153613  15.6296042  74.5830553
 111.8679134  15.1077563  73.8214016 110.6778172  15.4662187  74.6857236
 116.6596896  14.6331820  82.3905296 117.4459985  14.2151243  82.0395713
 116.9235600  15.5377912  82.5586944 116.8306973  20.0704670  77.0893953
 116.1952806  20.1439297  77.8014857 116.5004379  20.6598269  76.4113032
 111.3349902  17.5324148  76.7854928 111.2186160  16.8569051  77.4536012
 111.4452162  17.0456521  75.9687081 113.6781443  16.9934295  80.4901617
 113.3139650  16.4664916  81.2014538 114.5348558  16.6032764  80.3168102
 113.3186930  12.0224194  75.4862965 113.4861332  12.8904431  75.8533437
 113.1284099  12.1851476  74.5624255 116.0762263  20.4841173  87.1528796
 115.7762986  21.3866212  87.0444603 115.7313322  20.2173356  88.0049949
 109.5274744  16.9354970  83.1865500 108.6025241  16.8031184  83.3943192
 109.7759157  17.7149189  83.6835443 113.2976150  14.4781852  76.4709632
 113.1775776  14.9238903  77.3095113 112.6028739  14.8267170  75.9123170
 106.8883555  16.5788244  84.0209289 107.0175936  16.8322723  84.9348701
 106.2081007  17.1715952  83.7013944 111.0583043  27.2485494  80.1199764
 110.9807072  28.1993319  80.1988244 110.4544686  26.9031366  80.7774690
 113.5500272  14.4213359  92.7761130 112.7733606  14.9807279  92.7663995
 114.1890835  14.9070142  93.2976001 118.9961217  14.9503325  77.2989966
 119.9079073  15.1830712  77.1237664 118.4870864  15.5340369  76.7365045
 111.8046645  17.2298812  92.3379097 112.5461329  17.7683856  92.0613921
 111.0983630  17.8565101  92.4950649 117.2801984  19.3727953  90.9351259
 117.6885340  18.9310363  90.1905891 116.5579246  18.7980580  91.1885452
 113.6333054  14.3100560  88.3084816 114.4794249  14.7339973  88.4519465
 113.5731692  13.6534184  89.0023379 117.6030799  19.9329143  84.6903548
 116.9739661  20.0974858  83.9879616 117.2156461  20.3470753  85.4614512
 121.4820031  20.8683581  82.0447912 120.7971069  21.2482483  81.4944945
 121.5663880  21.4778908  82.7779859 118.7370962  18.5143540  88.6443255
 118.9487858  19.1575300  87.9677636 118.6900711  17.6805857  88.1765185
 113.1558761  19.6703552  81.9553633 113.6197106  19.9491255  81.1658255
 112.8915559  18.7686996  81.7726724 110.0482842  19.2175033  84.8933396
 110.6184199  19.6462301  84.2550881 110.6390954  18.9357618  85.5917582
 112.0927647  15.7926704  78.7643198 112.7951690  16.2447748  79.2317124
 111.7608275  15.1510523  79.3923091 110.5408008  14.3838461  93.1394407
 109.9106669  15.0654741  93.3729804 110.4344096  14.2721542  92.1947546
 105.8352981  14.0510257  84.0660332 105.0452035  14.3067785  83.5900442
 106.3264228  14.8658594  84.1712372 119.8516790  21.3915496  86.8165612
 120.6734234  20.9895683  86.5348294 119.8479193  21.2883730  87.7681728
 107.7867726  14.4154836  81.0243808 106.9898889  14.5273530  81.5427304
 107.5593318  14.7541488  80.1584699 113.6173394  20.9399539  88.9726323
 113.6817826  21.4019946  89.8084495 112.9084318  20.3096904  89.1008633
 104.1190684  14.3040747  86.4975322 104.3698722  15.1887757  86.7632898
 104.6550232  14.1245349  85.7250414 127.9422783  17.7354244  83.1650584
 127.1886492  17.1661642  83.0094588 128.0770325  17.7016909  84.1121219
 113.3321411  22.6067647  78.8405303 113.1967086  23.4519182  79.2690151
 113.8731224  22.8086924  78.0771237 106.7850809  20.1243085  79.4133228
 107.2975329  20.9186335  79.5638793 107.4373522  19.4269375  79.3466830
 108.5945694  23.2408841  81.4955982 108.7712322  24.1626806  81.3076965
 109.3902527  22.9267260  81.9250361 107.8798050  15.2873473  91.3718145
 107.7651565  14.3858730  91.6725244 107.0242568  15.5337170  91.0202961
 114.9589888  23.2291213  92.9705645 114.5153742  22.4427592  92.6526550
 115.6207101  23.4170364  92.3049536 109.7177009  24.7587015  87.4966324
 110.2684434  24.6304078  86.7243318 108.8788485  25.0581904  87.1461217
 117.0571126  23.5094013  90.9987047 117.0389601  24.3302894  90.5067316
 117.9791046  23.3848088  91.2237188 113.5144180  21.0238142  91.8410555
 114.0472517  20.2626431  91.6109863 112.9858261  20.7311794  92.5834709
 104.7499726  18.4531739  80.1892799 105.5874948  18.8628747  79.9726507
 104.9277993  17.5131181  80.1592993 116.6464158  16.1206820  75.8776632
 116.1310781  16.8911424  76.1165019 116.3741466  15.4471956  76.5009693
 121.6198432  18.8739174  77.8129805 120.8427875  18.5350334  77.3684967
 122.2989913  18.8791797  77.1384770 116.4350461  13.9933912  77.7036413
 116.1300596  14.3080061  78.5546556 117.3880903  14.0715332  77.7463746
 114.8796893  20.1524135  79.3529367 114.3518254  19.4176895  79.0402604
 114.3784395  20.9298811  79.1069335 119.8589739  18.3473155  84.4696413
 119.2013413  19.0372417  84.5576542 120.6630138  18.7369587  84.8130400
 109.6115620  10.8143801  81.7135979 110.1859372  10.5918983  80.9809171
 110.1986603  10.8832496  82.4664580 118.6695198  16.7017528  82.5200355
 119.1827079  17.3347520  83.0222065 119.3196421  16.1018724  82.1543715
 109.9385207  12.8448262  75.7331864 109.1022520  13.1822949  76.0541139
 109.7989977  12.7097242  74.7959001 113.0249493  17.9704345  72.3564340
 112.1176555  17.7393599  72.5555489 113.5220525  17.1741964  72.5438322
 115.9317572  26.6801852  75.2761026 115.2579271  26.9833549  75.8845984
 116.3183394  27.4830933  74.9266483 115.1476028  14.1766984  84.7658696
 114.2298590  14.3981931  84.6080384 115.5636172  14.2513294  83.9070403
 115.9311076  15.5758399  79.8961376 116.6782895  16.0879797  79.5868498
 116.2002666  15.2542452  80.7565769 114.2037726  18.0716940  76.8788330
 113.2948946  17.7875973  76.9760800 114.2332810  18.4916019  76.0191637
 119.4356994  21.6823530  80.6479498 118.9819321  20.8414439  80.7044688
 118.8050960  22.3184928  80.9854278 117.8789933  23.5200026  81.5829316
 118.1712907  24.0805083  80.8641681 118.3888554  23.8128587  82.3382475
 104.7725897  15.7922454  80.8603532 104.5750297  15.1991815  80.1354599
 104.2172561  15.4874664  81.5779471 112.7522620  15.6845561  82.9798125
 112.8071230  14.7319397  82.9040602 111.9413822  15.8405000  83.4639424
 113.9013814  19.6125684  74.2176409 113.4633244  18.8961543  73.7582046
 114.6424255  19.8401799  73.6561500 110.6914980  14.3022620  80.7388504
 109.8782846  14.6016791  81.1453696 111.1873974  13.9078309  81.4562987
 112.8423558  24.2980377  82.6722769 112.7999737  24.5241224  81.7431301
 113.7586257  24.0643752  82.8208570 116.2889192  14.7664445  89.5703398
 116.6438580  14.9935918  90.4297864 116.9361323  15.0982822  88.9480654
 122.0186929  17.8882881  80.2752727 121.8804828  18.0784477  79.3473916
 121.6623148  18.6502264  80.7320778 110.1829055  11.8740976  86.3549739
 110.8228434  11.7329735  85.6572703 109.3506586  11.5875489  85.9788341
 122.0456309  19.9559408  85.2863999 122.4792815  19.8634697  86.1347053
 122.7587889  19.9316908  84.6484015 110.9589359  21.1743406  82.4684732
 111.7529957  20.6793726  82.2667307 110.2481051  20.6461269  82.1052437
 115.7784203  23.5561502  86.8197099 115.8321226  24.1252438  87.5874815
 114.9098985  23.7263387  86.4551137 107.2672122  15.3186488  78.5444484
 106.3369711  15.2570944  78.7614447 107.3629594  14.7962441  77.7481126
 107.1857671  11.8441301  81.1322726 107.4464489  12.7586634  81.0231887
 108.0074844  11.3765743  81.2819339 108.6582597  13.2579058  88.3021551
 109.3305650  13.0496420  87.6534200 107.8312383  13.0601144  87.8626783
 122.9071858  19.9983108  87.8196884 123.1007748  20.9028919  88.0656159
 122.8072476  19.5390528  88.6535469 117.9686967  20.1489851  93.3937765
 117.8172473  19.9200403  92.4767848 117.9591646  21.1060453  93.4069110
 114.7372303  17.7221764  88.3784031 115.6664363  17.8732924  88.2052999
 114.3163333  17.8105785  87.5232678 113.5360635  21.7472428  86.1482569
 113.3971721  21.3791213  87.0208507 112.7475231  22.2620068  85.9766527
 114.1308787  26.8481525  77.4908105 114.3060543  26.3769568  78.3053728
 113.4441575  27.4747291  77.7189366 115.0865850  21.1254031  83.5371407
 114.7515683  21.0854801  84.4329057 114.5869796  20.4598747  83.0641817
 109.0610094  16.5321661  89.0623988 108.9229892  15.8001900  89.6635527
 109.9715018  16.4430561  88.7808176 118.0225042  18.4710065  73.8108466
 117.4054212  17.7456894  73.7141519 117.5541530  19.2319426  73.4675541
 111.6892395  16.2441620  88.5507667 112.3992013  15.6034813  88.5094286
 111.6461703  16.4954515  89.4733848 119.6779173  23.1808974  91.4714247
 119.6191720  22.4968194  90.8044830 120.0798692  23.9227964  91.0194873
 110.4021329  13.2306838  90.3703307 109.8658686  12.7797577  91.0224903
 109.8138037  13.3652747  89.6273771 108.6969872  29.9970888  84.2647966
 108.9366470  30.6289412  84.9426984 107.8539069  29.6458928  84.5513325
 109.8123588  12.6895490  72.9329771 108.9353054  12.5684290  72.5692017
 110.2881341  11.8981568  72.6808659 119.6796581  21.1448558  89.7028226
 118.7923359  20.8074479  89.8254625 120.2495132  20.4131589  89.9396992
 101.3325728  17.4772649  83.0271278 102.0196768  17.1634379  82.4392293
 101.1773856  18.3814014  82.7538529 106.1360450  12.3662846  87.4556301
 106.0518639  11.7588516  86.7206711 105.3143156  12.8571864  87.4565798
 113.2097734  25.8050010  86.6689470 113.1367906  26.6104982  87.1808774
 112.7675127  26.0041976  85.8437491 112.9987514  25.0421780  80.1792291
 112.2155036  25.5843460  80.2730516 113.6980259  25.5595760  80.5786532
 124.1613921  16.5556775  84.4644788 124.1503797  17.4381490  84.0938721
 123.2931301  16.2028326  84.2699325 115.6696418  25.7036844  88.8247628
 116.3824390  26.3384309  88.7523530 115.1786446  25.8000710  88.0087630
 117.3913945  19.6088097  80.3964920 116.4570223  19.7289559  80.2269624
 117.5690613  18.7060564  80.1324930 112.8919133  12.9933793  82.5498181
 112.5216920  12.4404833  83.2379087 113.3878225  12.3891926  81.9973181
 120.7786496  15.4505416  80.9314954 121.2446948  16.2833408  80.8575257
 121.2293996  14.9850398  81.6360213 110.7208331  23.4531288  89.6453199
 111.4217791  24.0867770  89.7982593 110.2503446  23.7946019  88.8848838
 118.8462727  21.7949237  77.9301106 119.1222571  21.6805832  78.8394980
 117.9767226  21.3966722  77.8913279 118.5209617  16.0075895  87.4705749
 117.8681067  16.2551802  86.8158202 118.8989997  15.1940033  87.1368227
 115.4816791  26.0435588  81.5733920 115.6639186  25.2257244  82.0361672
 116.3049777  26.2603280  81.1358810 115.8158956  24.9703773  78.8348968
 116.3446723  24.4596228  78.2219130 116.0787176  24.6546303  79.6994501
 114.5697190  16.7495706  93.9571786 113.8937827  16.6489835  94.6274162
 115.3924824  16.5934920  94.4207784 106.3176049  22.9867643  86.5784302
 106.9029486  22.2411330  86.7112206 106.1200888  23.2971599  87.4620966
 109.1714704  26.0218890  81.5946744 108.5025080  26.5065018  81.1110784
 109.0327574  26.2688110  82.5090123 100.9093704  15.5573243  85.2988745
 100.9477803  15.0236833  86.0925863 100.4033997  15.0308448  84.6799722
 113.3119973  28.0562633  88.1929402 113.8638281  28.2194255  88.9578488
 113.6526166  28.6467071  87.5209427 108.2884466  10.4037783  88.7951287
 108.3525793  11.2652614  88.3828685 108.2251586   9.7911785  88.0623646
 107.7636739  12.4760916  92.4424321 108.3908778  12.0937993  93.0561846
 106.9064658  12.2575118  92.8080014 118.1630847  22.8823891  94.0478057
 118.7070751  23.4953849  93.5533012 117.5817692  23.4403469  94.5645070
 104.5402282  14.2837345  78.3742676 104.8355723  13.3748023  78.3209730
 103.6390317  14.2625084  78.0523679 116.4488360  26.0044609  85.1793085
 116.3239500  25.2034349  84.6704030 117.1067451  26.4990802  84.6907055
 108.0696529  12.3593341  84.3570225 107.3483114  12.9729309  84.2177698
 108.8589784  12.8951106  84.2786871 118.5123269  23.8053629  86.8072635
 117.5653604  23.6858980  86.7350961 118.8606042  22.9176127  86.8898896
 106.2690123  11.9651443  78.4982001 105.9402829  11.0848822  78.3157107
 106.6229494  11.9099111  79.3858391 115.5169702  23.6006345  83.0076987
 115.3694664  22.6723053  83.1884557 116.3423195  23.6226436  82.5234062
 109.3831946  12.2524412  78.8657479 109.7228019  12.7810334  78.1436087
 109.8304067  12.5904819  79.6416046 119.1203824  24.4234904  84.0941860
 120.0450371  24.2177765  83.9566311 118.9519127  24.1751305  85.0031201
 111.3700093  10.7499034  77.0650772 112.0908456  11.1280287  76.5614489
 110.7465398  11.4687911  77.1685750 110.2530438  14.4129896  84.5779849
 110.1075018  14.7270199  85.4704130 109.7755641  15.0314797  84.0250747
 113.9652951  11.8369784  86.6713866 113.7070729  12.7586855  86.6698196
 113.4337992  11.4400219  87.3614330 118.9099140  24.9420571  79.4503951
 119.0836018  24.3766994  78.6977804 119.4028031  25.7421466  79.2683441
 104.7276100  16.9535241  87.5167510 104.1829568  17.7295049  87.6487784
 105.6055450  17.3006045  87.3586631 124.7638531  17.7056994  81.0694251
 125.2069677  16.9564320  80.6713374 123.8865041  17.6967131  80.6867983
 119.8974313  24.2587336  76.5500849 120.5925217  24.8794029  76.7688164
 120.2397463  23.4082687  76.8253227 105.5142122  16.0805137  90.4097667
 104.7723858  16.2287772  90.9962297 105.1934866  16.3413402  89.5464416
 121.7965736  21.7087041  78.0788180 122.3217060  22.0474314  77.3537500
 121.7088088  20.7734057  77.8951315 113.4585784  25.6221115  90.2078057
 113.7672911  25.3770262  91.0800756 114.2561266  25.8267754  89.7196927
 113.4806396  27.7759025  82.4383433 113.0411387  27.2835403  83.1316290
 114.2314513  27.2331992  82.1975509 105.9598735  23.9670566  82.4408061
 106.7856755  23.6674337  82.0606705 105.6092787  23.1978188  82.8897850
 110.9280269  23.3197034  84.5105735 110.3060278  22.6567739  84.2107963
 111.5985135  23.3458166  83.8279383 104.1607340  21.8856892  83.3996995
 103.3239249  21.4579066  83.2180996 104.1330986  22.0789335  84.3367786
 111.0004796  11.7978822  94.1038241 111.0492951  12.6740945  93.7216011
 111.5427310  11.2556215  93.5309884 121.4859642  22.3419945  93.3839378
 120.6955185  22.3244084  92.8443878 121.2492996  22.8808239  94.1388415
 121.6057517  19.1912411  90.6972107 121.6555522  19.0262419  91.6387629
 121.4971440  18.3239670  90.3069987 110.4893775  21.8700957  77.9864196
 110.6381896  22.5536422  77.3330868 111.2960219  21.8506047  78.5013651
 118.8961279  15.1743339  92.0131413 119.7971142  15.0349804  91.7215411
 118.9709254  15.3397794  92.9529591 113.2304084  12.5510194  90.8584600
 112.3607394  12.8443760  90.5867188 113.4663565  13.1350639  91.5791863
 123.1075714  21.6109353  90.9414128 122.8160522  21.9739333  91.7777589
 122.4947845  20.8976361  90.7627460 124.3071396  19.1762233  83.4616698
 125.1418287  19.6152037  83.6254259 124.4430525  18.7000886  82.6424944
 121.3562902  16.7341968  89.4094186 121.8317023  16.9269614  88.6013038
 120.4328467  16.7901153  89.1637570 108.2446408  17.8966135  78.9925264
 107.9992450  16.9928465  79.1905475 108.4142323  17.8983285  78.0504742
 107.5142056  13.6294492  76.4911426 106.8211301  13.7038847  75.8351462
 107.2693808  12.8654836  77.0132943 113.9889181  24.3649088  75.4575943
 113.4163148  24.9839275  75.0046415 114.5621975  24.9148449  75.9915865
 117.2086441  24.6486238  76.5884525 118.1417114  24.5831799  76.7917401
 117.1209654  25.4842505  76.1299058 119.8374457  23.9652108  73.5488473
 119.7588089  23.6311972  74.4424231 120.6584124  24.4573876  73.5479945
 122.5352649  16.8313847  86.7564791 122.5028969  15.8929848  86.9424475
 123.1453272  16.9097884  86.0230616 114.3735979  15.7009900  72.7991995
 115.3195084  15.5716108  72.8680414 113.9950224  14.9624562  73.2761424
 128.3529198  17.8929854  85.8970828 129.0832587  17.6315142  86.4578532
 127.7436144  17.1558576  85.9372896 126.4344496  16.0337717  86.4945279
 125.7077659  15.8993682  85.8861771 126.0191782  16.3414545  87.3001997
 114.2574672  19.7527646  94.2592652 115.1777681  19.9306245  94.4532699
 114.2224255  18.8083692  94.1072352 112.5578897  13.6259877  72.7346881
 111.6510352  13.3292989  72.8109594 112.8354878  13.3289695  71.8681167
 103.4756837  14.9466240  83.1845927 103.1559621  14.0931548  82.8920301
 102.9290265  15.1614818  83.9403894 107.2536745  17.6628681  86.9015434
 107.4722754  18.5945789  86.9203467 107.6662518  17.3036656  87.6870237
 112.1264610  13.2361887  96.2918183 112.0261337  14.1856244  96.2230274
 111.9086152  12.9080126  95.4194253 103.3445097  18.5669152  85.1539049
 102.6508568  18.1523104  84.6409003 104.0918088  18.6089688  84.5572468
 111.9895880  16.6659026  95.1083244 111.5062962  17.4659386  95.3147133
 112.0756819  16.6766971  94.1550688 105.2581840  18.4987405  83.0305064
 105.2352528  18.5975093  82.0786947 105.5682476  19.3452556  83.3522230
 107.9169217  20.5563560  87.1451678 108.8712471  20.5247503  87.0781610
 107.7181741  20.0954184  87.9601904 108.5068600  19.1264676  89.7122476
 109.3261489  19.6208755  89.7357313 108.7805407  18.2096645  89.6840043
 106.2719446  26.0983180  84.1621876 106.1373914  25.3383581  83.5959874
 105.8551508  26.8224080  83.6950665 117.4078409  21.2820103  73.1698451
 118.1114259  21.4870106  73.7856107 116.6841058  21.8496865  73.4347535
 118.2376219  17.0329965  79.2900721 118.1811421  17.4898516  78.4508354
 118.7904562  16.2720649  79.1123564 109.4288572  26.9952497  84.3740319
 109.3120956  27.9397929  84.2719009 108.6081018  26.6926058  84.7626118
 119.3165107  21.7202633  75.2196911 120.1510711  21.2883831  75.0374386
 119.1549450  21.5484646  76.1473806 118.9710999  18.2234746  76.5853251
 118.9159803  18.0579017  75.6441695 118.3457054  18.9310779  76.7415440
 103.7603514  13.4602810  90.4114673 104.4062377  12.9501764  90.9001898
 103.5520665  14.1971492  90.9858098 116.2856906  20.5283658  95.9106813
 117.1548066  20.7024310  95.5493448 115.8063657  21.3478075  95.7882543
 110.4543086  27.6480759  87.5896247 111.3570333  27.6804369  87.9062742
 110.2280456  26.7181210  87.6042583 112.2096688  26.4011745  84.2506326
 111.2592319  26.4013607  84.1370698 112.5129174  25.6544480  83.7342360
 108.1001005  10.6070427  94.5089687 108.9632466  10.2507232  94.7193012
 107.5266415  10.2684322  95.1965091 127.9449382  32.2372284  85.3152088
 128.5827792  32.1179031  84.6115428 127.8270225  33.1853128  85.3740040
 124.7539088  32.1899712  85.2513613 124.4157600  32.0740777  84.3634148
 125.6228856  31.7890877  85.2314619 120.6125904  34.0435188  81.2410504
 120.0490769  33.9525125  80.4726791 120.4978299  33.2235093  81.7212996
 125.2358871  33.3434564  91.2099818 125.2247512  32.9487362  90.3380322
 125.3979510  32.6100636  91.8033590 118.1590336  35.5386380  84.0794724
 118.9511628  35.1977205  83.6641023 118.3986986  35.6481355  84.9996877
 126.1925462  37.7106156  76.5524969 125.5413442  38.2960236  76.1658982
 126.9869825  38.2412351  76.6120006 120.1181090  34.7995293  76.9512103
 120.8911966  34.2524280  76.8124979 120.4706488  35.6639542  77.1626564
 121.9566132  36.1271675  90.1579002 121.6655998  37.0317306  90.0425668
 122.5923116  36.1688203  90.8723072 122.8822339  33.5048524  86.7480362
 123.4785911  33.2804546  86.0337325 122.9397310  32.7633269  87.3505810
 122.4547367  30.9587959  74.5830553 122.7072888  30.4369481  73.8214016
 121.5171926  30.7954105  74.6857236 127.4990650  29.9623738  82.3905296
 128.2853739  29.5443161  82.0395713 127.7629355  30.8669830  82.5586944
 127.6700728  35.3996588  77.0893953 127.0346561  35.4731214  77.8014857
 127.3398134  35.9890187  76.4113032 132.8999077  29.8998971  83.2938275
 133.6324249  29.3298188  83.5276104 132.1438433  29.5120571  83.7344780
 122.1743656  32.8616065  76.7854928 122.0579914  32.1860969  77.4536012
 122.2845916  32.3748439  75.9687081 124.5175197  32.3226212  80.4901617
 124.1533404  31.7956833  81.2014538 125.3742313  31.9324681  80.3168102
 130.4224498  23.6120545  87.7532883 130.0907822  24.4815956  87.5294098
 129.8270111  23.2956829  88.4326914 124.1580684  27.3516112  75.4862965
 124.3255086  28.2196348  75.8533437 123.9677853  27.5143394  74.5624255
 126.9156017  35.8133091  87.1528796 126.6156740  36.7158130  87.0444603
 126.5707077  35.5465274  88.0049949 120.3668499  32.2646888  83.1865500
 119.4418995  32.1323102  83.3943192 120.6152912  33.0441107  83.6835443
 130.3153161  28.3315631  84.8326233 129.4070038  28.2631040  84.5384994
 130.2640757  28.8087576  85.6608059 124.1369905  29.8073769  76.4709632
 124.0169530  30.2530820  77.3095113 123.4422493  30.1559087  75.9123170
 117.7277310  31.9080161  84.0209289 117.8569691  32.1614640  84.9348701
 117.0474761  32.5007869  83.7013944 121.8976797  42.5777411  80.1199764
 121.8200827  43.5285236  80.1988244 121.2938441  42.2323284  80.7774690
 124.3894027  29.7505277  92.7761130 123.6127361  30.3099197  92.7663995
 125.0284590  30.2362060  93.2976001 132.1814807  26.5332069  86.6104107
 131.5389188  26.8264603  85.9643902 131.6769736  26.4184990  87.4157304
 129.8354971  30.2795243  77.2989966 130.7472827  30.5122629  77.1237664
 129.3264618  30.8632287  76.7365045 122.6440399  32.5590730  92.3379097
 123.3855083  33.0975774  92.0613921 121.9377385  33.1857019  92.4950649
 128.1195739  34.7019871  90.9351259 128.5279095  34.2602281  90.1905891
 127.3973000  34.1272498  91.1885452 124.4726809  29.6392477  88.3084816
 125.3188004  30.0631891  88.4519465 124.4125446  28.9826102  89.0023379
 128.4424553  35.2621061  84.6903548 127.8133416  35.4266775  83.9879616
 128.0550215  35.6762671  85.4614512 132.3213785  36.1975499  82.0447912
 131.6364823  36.5774400  81.4944945 132.4057635  36.8070826  82.7779859
 127.6226254  27.2996846  89.9665990 127.3787186  28.0538906  89.4300265
 127.8986185  27.6782193  90.8013237 129.5764717  33.8435458  88.6443255
 129.7881612  34.4867218  87.9677636 129.5294465  33.0097775  88.1765185
 127.1790946  26.4553279  85.5479827 126.3175425  26.7534532  85.8396565
 127.2053380  26.6723678  84.6160860 123.9952515  34.9995469  81.9553633
 124.4590861  35.2783172  81.1658255 123.7309313  34.0978914  81.7726724
 120.8876596  34.5466951  84.8933396 121.4577953  34.9754219  84.2550881
 121.4784708  34.2649535  85.5917582 122.9321401  31.1218622  78.7643198
 123.6345445  31.5739665  79.2317124 122.6002030  30.4802440  79.3923091
 121.3801763  29.7130378  93.1394407 120.7500423  30.3946659  93.3729804
 121.2737851  29.6013460  92.1947546 116.6746735  29.3802174  84.0660332
 115.8845789  29.6359703  83.5900442 117.1657983  30.1950512  84.1712372
 130.6910545  36.7207413  86.8165612 131.5127989  36.3187601  86.5348294
 130.6872948  36.6175648  87.7681728 118.6261481  29.7446754  81.0243808
 117.8292644  29.8565448  81.5427304 118.3987073  30.0833406  80.1584699
 124.4567148  36.2691457  88.9726323 124.5211581  36.7311864  89.8084495
 123.7478072  35.6388822  89.1008633 114.9584438  29.6332665  86.4975322
 115.2092477  30.5179675  86.7632898 115.4943987  29.4537266  85.7250414
 138.7816538  33.0646162  83.1650584 138.0280246  32.4953560  83.0094588
 138.9164079  33.0308826  84.1121219 124.1715166  37.9359564  78.8405303
 124.0360841  38.7811100  79.2690151 124.7124978  38.1378842  78.0771237
 120.6582506  24.0151144  95.5019658 120.2649451  23.4617343  96.1767303
 121.4748646  24.3261723  95.8926176 117.6244563  35.4535002  79.4133228
 118.1369084  36.2478253  79.5638793 118.2767276  34.7561293  79.3466830
 119.4339448  38.5700759  81.4955982 119.6106076  39.4918723  81.3076965
 120.2296282  38.2559178  81.9250361 123.5750467  25.4309023  93.0939915
 124.3160180  26.0316176  93.0144378 123.8068389  24.6886661  92.5357958
 118.7191805  30.6165390  91.3718145 118.6045320  29.7150648  91.6725244
 117.8636322  30.8629087  91.0202961 125.7983642  38.5583131  92.9705645
 125.3547496  37.7719509  92.6526550 126.4600856  38.7462281  92.3049536
 120.5570763  40.0878932  87.4966324 121.1078189  39.9595996  86.7243318
 119.7182239  40.3873821  87.1461217 127.8964880  38.8385931  90.9987047
 127.8783356  39.6594812  90.5067316 128.8184800  38.7140006  91.2237188
 124.3537935  36.3530060  91.8410555 124.8866271  35.5918348  91.6109863
 123.8252016  36.0603712  92.5834709 127.5207629  21.4590126  87.3704197
 127.1771899  22.3491768  87.2943307 127.8886592  21.2691784  86.5073782
 115.5893480  33.7823657  80.1892799 116.4268702  34.1920665  79.9726507
 115.7671748  32.8423099  80.1592993 127.4857912  31.4498737  75.8776632
 126.9704536  32.2203342  76.1165019 127.2135221  30.7763873  76.5009693
 125.0705023  26.2948438  80.9361870 124.2146620  25.9055288  80.7567509
 125.4831975  26.3740399  80.0761656 126.6004170  23.8294781  85.3353430
 126.0968965  23.7924916  84.5221235 126.8934777  24.7387524  85.3950087
 122.8447056  23.9133511  84.3419612 123.7100053  23.7176320  83.9825501
 122.9124565  23.6843863  85.2688968 132.4592186  34.2031092  77.8129805
 131.6821629  33.8642251  77.3684967 133.1383667  34.2083715  77.1384770
 127.2744215  29.3225829  77.7036413 126.9694351  29.6371978  78.5546556
 128.2274657  29.4007249  77.7463746 125.7190647  35.4816053  79.3529367
 125.1912009  34.7468812  79.0402604 125.2178150  36.2590729  79.1069335
 130.6983493  33.6765073  84.4696413 130.0407168  34.3664334  84.5576542
 131.5023892  34.0661505  84.8130400 120.4509375  26.1435719  81.7135979
 121.0253127  25.9210900  80.9809171 121.0380357  26.2124413  82.4664580
 129.5088952  32.0309446  82.5200355 130.0220834  32.6639438  83.0222065
 130.1590176  31.4310641  82.1543715 120.7778962  28.1740180  75.7331864
 119.9416274  28.5114866  76.0541139 120.6383732  28.0389160  74.7959001
 122.7532043  23.0176968  80.4411048 122.0996455  22.7025985  79.8167663
 122.7112517  22.3952708  81.1670871 123.8643247  33.2996263  72.3564340
 122.9570309  33.0685516  72.5555489 124.3614279  32.5033882  72.5438322
 126.7711326  42.0093770  75.2761026 126.0973025  42.3125467  75.8845984
 127.1577148  42.8122850  74.9266483 125.9869783  29.5058901  84.7658696
 125.0692344  29.7273848  84.6080384 126.4029927  29.5805212  83.9070403
 126.7704831  30.9050317  79.8961376 127.5176650  31.4171714  79.5868498
 127.0396420  30.5834370  80.7565769 125.0431481  33.4008858  76.8788330
 124.1342700  33.1167891  76.9760800 125.0726565  33.8207936  76.0191637
 130.2750748  37.0115447  80.6479498 129.8213075  36.1706357  80.7044688
 129.6444715  37.6476846  80.9854278 129.2183668  27.9407433  81.8780165
 128.4806425  27.4284819  82.2090408 129.4710441  27.5007815  81.0663442
 128.7183687  38.8491944  81.5829316 129.0106662  39.4097001  80.8641681
 129.2282308  39.1420505  82.3382475 129.3195295  20.7183685  82.4721934
 129.6254172  19.8581049  82.1847849 130.0447900  21.3101305  82.2720928
 115.6119651  31.1214372  80.8603532 115.4144051  30.5283733  80.1354599
 115.0566315  30.8166582  81.5779471 123.5916375  31.0137478  82.9798125
 123.6464985  30.0611315  82.9040602 122.7807577  31.1696917  83.4639424
 124.7407569  34.9417601  74.2176409 124.3026999  34.2253460  73.7582046
 125.4818010  35.1693716  73.6561500 121.5308735  29.6314538  80.7388504
 120.7176600  29.9308709  81.1453696 122.0267729  29.2370227  81.4562987
 123.6817313  39.6272295  82.6722769 123.6393491  39.8533141  81.7431301
 124.5980012  39.3935670  82.8208570 127.1282946  30.0956363  89.5703398
 127.4832334  30.3227836  90.4297864 127.7755078  30.4274739  88.9480654
 132.8580683  33.2174798  80.2752727 132.7198582  33.4076394  79.3473916
 132.5016902  33.9794181  80.7320778 121.0222810  27.2032894  86.3549739
 121.6622189  27.0621653  85.6572703 120.1900340  26.9167407  85.9788341
 132.8850063  35.2851325  85.2863999 133.3186570  35.1926615  86.1347053
 133.5981644  35.2608826  84.6484015 121.7983113  36.5035324  82.4684732
 122.5923712  36.0085644  82.2667307 121.0874806  35.9753187  82.1052437
 126.6177958  38.8853420  86.8197099 126.6714980  39.4544356  87.5874815
 125.7492739  39.0555305  86.4551137 118.1065877  30.6478406  78.5444484
 117.1763465  30.5862861  78.7614447 118.2023349  30.1254359  77.7481126
 118.0251426  27.1733219  81.1322726 118.2858243  28.0878552  81.0231887
 118.8468598  26.7057661  81.2819339 119.4976351  28.5870976  88.3021551
 120.1699405  28.3788338  87.6534200 118.6706138  28.3893062  87.8626783
 133.7465613  35.3275026  87.8196884 133.9401503  36.2320837  88.0656159
 133.6466231  34.8682445  88.6535469 125.4001923  25.2132917  90.3187212
 124.7529838  25.9122866  90.2251688 126.1702939  25.6469061  90.6863460
 128.8080721  35.4781769  93.3937765 128.6566228  35.2492321  92.4767848
 128.7985401  36.4352370  93.4069110 125.5766058  33.0513682  88.3784031
 126.5058118  33.2024841  88.2052999 125.1557088  33.1397702  87.5232678
 124.3754389  37.0764346  86.1482569 124.2365475  36.7083130  87.0208507
 123.5868986  37.5911985  85.9766527 124.9702541  42.1773442  77.4908105
 125.1454297  41.7061486  78.3053728 124.2835329  42.8039209  77.7189366
 125.9259605  36.4545949  83.5371407 125.5909437  36.4146719  84.4329057
 125.4263550  35.7890665  83.0641817 119.9003849  31.8613579  89.0623988
 119.7623647  31.1293818  89.6635527 120.8108772  31.7722479  88.7808176
 128.8618796  33.8001983  73.8108466 128.2447967  33.0748811  73.7141519
 128.3935285  34.5611343  73.4675541 122.5286149  31.5733538  88.5507667
 123.2385768  30.9326730  88.5094286 122.4855457  31.8246433  89.4733848
 130.5172928  38.5100891  91.4714247 130.4585474  37.8260112  90.8044830
 130.9192446  39.2519881  91.0194873 121.2415083  28.5598756  90.3703307
 120.7052440  28.1089494  91.0224903 120.6531792  28.6944665  89.6273771
 119.5363627  45.3262805  84.2647966 119.7760225  45.9581329  84.9426984
 118.6932823  44.9750845  84.5513325 120.6517342  28.0187407  72.9329771
 119.7746808  27.8976208  72.5692017 121.1275095  27.2273486  72.6808659
 130.5190335  36.4740475  89.7028226 129.6317114  36.1366397  89.8254625
 131.0888886  35.7423507  89.9396992 112.1719482  32.8064567  83.0271278
 112.8590522  32.4926297  82.4392293 112.0167611  33.7105932  82.7538529
 116.9754204  27.6954764  87.4556301 116.8912393  27.0880433  86.7206711
 116.1536911  28.1863782  87.4565798 124.0491489  41.1341928  86.6689470
 123.9761660  41.9396899  87.1808774 123.6068882  41.3333894  85.8437491
 123.8381268  40.3713698  80.1792291 123.0548790  40.9135378  80.2730516
 124.5374013  40.8887677  80.5786532 127.1477918  26.1808327  82.8226496
 127.6446618  25.4278290  82.5027567 126.3764900  26.2172644  82.2569706
 135.0007676  31.8848693  84.4644788 134.9897552  32.7673408  84.0938721
 134.1325055  31.5320244  84.2699325 126.5090172  41.0328762  88.8247628
 127.2218144  41.6676227  88.7523530 126.0180201  41.1292628  88.0087630
 128.2307699  34.9380014  80.3964920 127.2963978  35.0581477  80.2269624
 128.4084367  34.0352481  80.1324930 123.7312887  28.3225710  82.5498181
 123.3610675  27.7696751  83.2379087 124.2271980  27.7183844  81.9973181
 131.6180250  30.7797334  80.9314954 132.0840703  31.6125325  80.8575257
 132.0687751  30.3142315  81.6360213 121.5602086  38.7823205  89.6453199
 122.2611545  39.4159688  89.7982593 121.0897201  39.1237937  88.8848838
 129.6856481  37.1241155  77.9301106 129.9616325  37.0097750  78.8394980
 128.8160980  36.7258640  77.8913279 129.5896913  23.1477921  84.9705855
 128.6759993  23.3782148  85.1388062 130.0190015  23.2316365  85.8219888
 129.3603372  31.3367813  87.4705749 128.7074822  31.5843720  86.8158202
 129.7383751  30.5231951  87.1368227 126.3210545  41.3727506  81.5733920
 126.5032940  40.5549162  82.0361672 127.1443531  41.5895198  81.1358810
 126.6552711  40.2995691  78.8348968 127.1840477  39.7888146  78.2219130
 126.9180931  39.9838221  79.6994501 125.4090945  32.0787624  93.9571786
 124.7331582  31.9781753  94.6274162 126.2318579  31.9226837  94.4207784
 117.1569804  38.3159560  86.5784302 117.7423241  37.5703248  86.7112206
 116.9594642  38.6263517  87.4620966 120.0108459  41.3510808  81.5946744
 119.3418834  41.8356935  81.1110784 119.8721329  41.5980028  82.5090123
 111.7487458  30.8865160  85.2988745 111.7871558  30.3528751  86.0925863
 111.2427751  30.3600366  84.6799722 124.1513728  43.3854551  88.1929402
 124.7032036  43.5486173  88.9578488 124.4919921  43.9758989  87.5209427
 119.1278221  25.7329701  88.7951287 119.1919547  26.5944532  88.3828685
 119.0645341  25.1203703  88.0623646 118.6030493  27.8052833  92.4424321
 119.2302532  27.4229911  93.0561846 117.7458412  27.5867035  92.8080014
 129.0024602  38.2115809  94.0478057 129.5464506  38.8245767  93.5533012
 128.4211447  38.7695387  94.5645070 115.3796036  29.6129263  78.3742676
 115.6749477  28.7039941  78.3209730 114.4784072  29.5917002  78.0523679
 127.2882115  41.3336527  85.1793085 127.1633254  40.5326267  84.6704030
 127.9461206  41.8282720  84.6907055 118.9090283  27.6885259  84.3570225
 118.1876869  28.3021227  84.2177698 119.6983539  28.2243024  84.2786871
 129.3517023  39.1345547  86.8072635 128.4047359  39.0150898  86.7350961
 129.6999796  38.2468045  86.8898896 121.7116597  25.0239686  90.6310877
 122.2350998  25.2701982  91.3937186 121.4928930  25.8559720  90.2114014
 117.1083878  27.2943360  78.4982001 116.7796584  26.4140739  78.3157107
 117.4623248  27.2391029  79.3858391 126.3563456  38.9298263  83.0076987
 126.2088419  38.0014970  83.1884557 127.1816950  38.9518354  82.5234062
 120.2225701  27.5816330  78.8657479 120.5621773  28.1102251  78.1436087
 120.6697821  27.9196736  79.6416046 129.9597578  39.7526822  84.0941860
 130.8844126  39.5469683  83.9566311 129.7912882  39.5043223  85.0031201
 122.9169142  25.9653381  88.3160547 122.5765962  25.1661194  88.7181227
 122.2108148  26.2655092  87.7437380 123.5685613  23.0502693  86.7687870
 124.3911683  22.5763171  86.6466760 123.8123677  23.8293177  87.2686556
 122.2093848  26.0790952  77.0650772 122.9302210  26.4572204  76.5614489
 121.5859152  26.7979828  77.1685750 126.3524971  26.7836101  78.0009104
 126.5688585  27.6660738  77.6997932 125.8719038  26.3922314  77.2714746
 121.0924192  29.7421814  84.5779849 120.9468773  30.0562117  85.4704130
 120.6149396  30.3606714  84.0250747 122.9520575  26.7324362  84.6260738
 122.9382144  25.8365455  84.2893036 123.6693003  26.7395026  85.2599024
 124.8046706  27.1661702  86.6713866 124.5464484  28.0878773  86.6698196
 124.2731746  26.7692137  87.3614330 129.7492895  40.2712489  79.4503951
 129.9229772  39.7058912  78.6977804 130.2421786  41.0713384  79.2683441
 115.5669854  32.2827158  87.5167510 115.0223322  33.0586966  87.6487784
 116.4449204  32.6297963  87.3586631 122.3557471  25.6138742  79.8948308
 122.4773382  24.6855388  80.0939196 122.0659513  25.6277428  78.9826624
 125.2248661  23.2993653  83.0315028 125.2470358  23.3632986  82.0767008
 125.6416720  22.4598161  83.2255534 135.6032286  33.0348912  81.0694251
 136.0463432  32.2856237  80.6713374 134.7258796  33.0259048  80.6867983
 130.7368067  39.5879254  76.5500849 131.4318972  40.2085946  76.7688164
 131.0791217  38.7374605  76.8253227 116.3535876  31.4097055  90.4097667
 115.6117612  31.5579690  90.9962297 116.0328620  31.6705320  89.5464416
 132.6359490  37.0378959  78.0788180 133.1610814  37.3766232  77.3537500
 132.5481843  36.1025974  77.8951315 124.2979539  40.9513033  90.2078057
 124.6066665  40.7062180  91.0800756 125.0955021  41.1559671  89.7196927
 124.3200151  43.1050942  82.4383433 123.8805141  42.6127321  83.1316290
 125.0708268  42.5623910  82.1975509 116.7992490  39.2962483  82.4408061
 117.6250510  38.9966255  82.0606705 116.4486542  38.5270106  82.8897850
 121.7674023  38.6488951  84.5105735 121.1454032  37.9859656  84.2107963
 122.4378890  38.6750083  83.8279383 115.0001095  37.2148810  83.3996995
 114.1633003  36.7870984  83.2180996 114.9724740  37.4081253  84.3367786
 121.8398551  27.1270739  94.1038241 121.8886706  28.0032862  93.7216011
 122.3821065  26.5848133  93.5309884 132.3253396  37.6711863  93.3839378
 131.5348940  37.6536002  92.8443878 132.0886751  38.2100156  94.1388415
 132.4451271  34.5204329  90.6972107 132.4949276  34.3554337  91.6387629
 132.3365195  33.6531588  90.3069987 121.3287530  37.1992875  77.9864196
 121.4775650  37.8828339  77.3330868 122.1353973  37.1797965  78.5013651
 129.7355034  30.5035257  92.0131413 130.6364896  30.3641722  91.7215411
 129.8103008  30.6689712  92.9529591 124.0697839  27.8802112  90.8584600
 123.2001148  28.1735678  90.5867188 124.3057319  28.4642557  91.5791863
 133.9469468  36.9401271  90.9414128 133.6554276  37.3031251  91.7777589
 133.3341599  36.2268279  90.7627460 135.1465150  34.5054150  83.4616698
 135.9812042  34.9443954  83.6254259 135.2824279  34.0292804  82.6424944
 132.1956656  32.0633885  89.4094186 132.6710778  32.2561532  88.6013038
 131.2722222  32.1193071  89.1637570 119.0840163  33.2258052  78.9925264
 118.8386205  32.3220382  79.1905475 119.2536077  33.2275203  78.0504742
 126.7736873  24.0981729  88.3750020 127.2918817  24.8342756  88.0496509
 126.4192006  24.4045722  89.2096779 118.3535810  28.9586410  76.4911426
 117.6605055  29.0330765  75.8351462 118.1087562  28.1946754  77.0132943
 127.0249467  20.5182011  83.8950917 127.3051221  19.8505200  84.5211343
 127.8100074  20.7111107  83.3825581 124.8282935  39.6941005  75.4575943
 124.2556903  40.3131192  75.0046415 125.4015729  40.2440367  75.9915865
 130.8958325  28.9399645  87.6422492 131.8475748  29.0397743  87.6634716
 130.7261776  28.1477914  88.1520576 128.9172705  26.0255229  87.8281893
 128.3222637  26.3060241  87.1328381 128.6322401  26.5149129  88.5998634
 128.0480195  39.9778155  76.5884525 128.9810868  39.9123717  76.7917401
 127.9603408  40.8134422  76.1299058 130.6768212  39.2944026  73.5488473
 130.5981843  38.9603889  74.4424231 131.4977879  39.7865794  73.5479945
 133.3746403  32.1605765  86.7564791 133.3422723  31.2221766  86.9424475
 133.9847027  32.2389802  86.0230616 125.2129734  31.0301818  72.7991995
 126.1588839  30.9008026  72.8680414 124.8343979  30.2916480  73.2761424
 133.5240892  28.9516808  86.8023075 133.0079940  28.1675265  86.6153003
 134.4080840  28.6235525  86.9669594 131.1851618  22.6957824  82.7618887
 130.9876440  22.3872912  83.6462219 131.7951324  23.4219463  82.8916817
 139.1922953  33.2221772  85.8970828 139.9226341  32.9607060  86.4578532
 138.5829898  32.4850494  85.9372896 137.2738250  31.3629634  86.4945279
 136.5471414  31.2285599  85.8861771 136.8585537  31.6706463  87.3001997
 125.0968426  35.0819564  94.2592652 126.0171436  35.2598163  94.4532699
 125.0618010  34.1375609  94.1072352 123.3972651  28.9551794  72.7346881
 122.4904106  28.6584907  72.8109594 123.6748632  28.6581612  71.8681167
 114.3150591  30.2758158  83.1845927 113.9953376  29.4223466  82.8920301
 113.7684020  30.4906736  83.9403894 118.0930499  32.9920599  86.9015434
 118.3116509  33.9237707  86.9203467 118.5056273  32.6328573  87.6870237
 125.0134717  23.4988684  78.8891122 124.2035445  23.1535769  79.2646368
 125.7019134  23.1896228  79.4778734 126.9425265  22.5766731  80.5115419
 127.4956304  22.9962184  81.1705442 127.1795351  21.6502479  80.5538375
 122.9658364  28.5653805  96.2918183 122.8655091  29.5148162  96.2230274
 122.7479906  28.2372043  95.4194253 122.1671436  25.8138730  72.8758860
 123.0290600  26.1393628  73.1354677 122.3521780  25.0270226  72.3631926
 114.1838851  33.8961069  85.1539049 113.4902323  33.4815022  84.6409003
 114.9311842  33.9381606  84.5572468 130.3204072  24.6867256  80.0194083
 129.7402741  25.3452060  79.6372135 130.0540005  23.8644601  79.6081500
 128.7707639  24.0872314  82.2215403 129.2707417  24.1988848  81.4129722
 129.4143246  23.7833367  82.8616212 122.8289634  31.9950943  95.1083244
 122.3456716  32.7951304  95.3147133 122.9150573  32.0058888  94.1550688
 116.0975594  33.8279323  83.0305064 116.0746282  33.9267010  82.0786947
 116.4076231  34.6744474  83.3522230 118.7562972  35.8855478  87.1451678
 119.7106225  35.8539420  87.0781610 118.5575495  35.4246102  87.9601904
 119.3462354  34.4556594  89.7122476 120.1655243  34.9500673  89.7357313
 119.6199162  33.5388562  89.6840043 129.1028950  26.8467346  79.0750431
 128.2154805  27.1316997  78.8570626 129.5182939  26.6861110  78.2277708
 132.4543486  26.8713867  82.7904770 133.2303876  27.3610320  83.0629387
 131.7291621  27.2971922  83.2476640 134.8916045  27.5841487  83.8478711
 135.4860536  27.3437223  83.1372019 134.9642629  26.8648617  84.4752247
 117.1113201  41.4275098  84.1621876 116.9767669  40.6675498  83.5959874
 116.6945263  42.1515997  83.6950665 128.2472164  36.6112021  73.1698451
 128.9508014  36.8162024  73.7856107 127.5234812  37.1788783  73.4347535
 129.0769974  32.3621882  79.2900721 129.0205175  32.8190434  78.4508354
 129.6298316  31.6012567  79.1123564 132.8874780  28.1511614  80.1150841
 132.6311714  27.7508250  80.9459049 132.2627648  28.8655408  79.9900980
 137.1987118  30.8907687  82.6222132 136.6386676  30.9600877  83.3953694
 136.5930621  30.7148672  81.9021628 120.2682327  42.3244415  84.3740319
 120.1514711  43.2689847  84.2719009 119.4474773  42.0217976  84.7626118
 130.1558861  37.0494550  75.2196911 130.9904465  36.6175749  75.0374386
 129.9943204  36.8776564  76.1473806 129.8104753  33.5526664  76.5853251
 129.7553557  33.3870935  75.6441695 129.1850809  34.2602697  76.7415440
 114.5997268  28.7894728  90.4114673 115.2456132  28.2793682  90.9001898
 114.3914419  29.5263410  90.9858098 127.1250660  35.8575575  95.9106813
 127.9941820  36.0316228  95.5493448 126.6457412  36.6769992  95.7882543
 123.1200879  23.0534773  76.1638569 123.1079549  23.9976613  76.3206840
 124.0124301  22.8704918  75.8698030 121.2936841  42.9772676  87.5896247
 122.1964087  43.0096287  87.9062742 121.0674211  42.0473127  87.6042583
 123.0490443  41.7303663  84.2506326 122.0986074  41.7305525  84.1370698
 123.3522929  40.9836398  83.7342360 126.9352998  19.6477549  80.4184506
 126.1685394  19.0936036  80.5641188 127.3463703  19.7199418  81.2798657
 118.9394759  25.9362345  94.5089687 119.8026221  25.5799150  94.7193012
 118.3660170  25.5976240  95.1965091 138.7843136  47.5664201  85.3152088
 139.4221546  47.4470949  84.6115428 138.6663979  48.5145045  85.3740040
 135.5932842  47.5191630  85.2513613 135.2551354  47.4032694  84.3634148
 136.4622611  47.1182795  85.2314619 131.4519658  49.3727106  81.2410504
 130.8884523  49.2817043  80.4726791 131.3372053  48.5527010  81.7212996
 136.0752625  48.6726481  91.2099818 136.0641266  48.2779280  90.3380322
 136.2373265  47.9392554  91.8033590 128.9984090  50.8678298  84.0794724
 129.7905382  50.5269122  83.6641023 129.2380740  50.9773273  84.9996877
 137.0319217  53.0398074  76.5524969 136.3807197  53.6252154  76.1658982
 137.8263580  53.5704269  76.6120006 130.9574844  50.1287211  76.9512103
 131.7305720  49.5816198  76.8124979 131.3100243  50.9931460  77.1626564
 132.7959887  51.4563593  90.1579002 132.5049753  52.3609224  90.0425668
 133.4316871  51.4980121  90.8723072 133.7216093  48.8340442  86.7480362
 134.3179666  48.6096464  86.0337325 133.7791065  48.0925187  87.3505810
 133.2941122  46.2879877  74.5830553 133.5466643  45.7661398  73.8214016
 132.3565681  46.1246022  74.6857236 138.3384405  45.2915655  82.3905296
 139.1247494  44.8735078  82.0395713 138.6023109  46.1961747  82.5586944
 138.5094482  50.7288506  77.0893953 137.8740315  50.8023132  77.8014857
 138.1791888  51.3182104  76.4113032 133.0137411  48.1907983  76.7854928
 132.8973669  47.5152886  77.4536012 133.1239670  47.7040357  75.9687081
 135.3568952  47.6518130  80.4901617 134.9927159  47.1248751  81.2014538
 136.2136067  47.2616599  80.3168102 134.9974439  42.6808030  75.4862965
 135.1648841  43.5488266  75.8533437 134.8071608  42.8435311  74.5624255
 137.7549772  51.1425009  87.1528796 137.4550495  52.0450047  87.0444603
 137.4100831  50.8757192  88.0049949 131.2062253  47.5938805  83.1865500
 130.2812750  47.4615020  83.3943192 131.4546666  48.3733025  83.6835443
 141.1546915  43.6607549  84.8326233 140.2463793  43.5922957  84.5384994
 141.1034511  44.1379494  85.6608059 134.9763659  45.1365687  76.4709632
 134.8563285  45.5822738  77.3095113 134.2816248  45.4851005  75.9123170
 128.5671064  47.2372079  84.0209289 128.6963445  47.4906558  84.9348701
 127.8868516  47.8299787  83.7013944 132.7370551  57.9069329  80.1199764
 132.6594581  58.8577154  80.1988244 132.1332195  57.5615201  80.7774690
 135.2287781  45.0797194  92.7761130 134.4521115  45.6391114  92.7663995
 135.8678344  45.5653977  93.2976001 133.4834154  47.8882648  92.3379097
 134.2248838  48.4267692  92.0613921 132.7771139  48.5148936  92.4950649
 138.9589493  50.0311788  90.9351259 139.3672849  49.5894199  90.1905891
 138.2366755  49.4564416  91.1885452 135.3120563  44.9684395  88.3084816
 136.1581758  45.3923809  88.4519465 135.2519201  44.3118019  89.0023379
 139.2818308  50.5912979  84.6903548 138.6527170  50.7558693  83.9879616
 138.8943970  51.0054588  85.4614512 138.4620009  42.6288763  89.9665990
 138.2180940  43.3830824  89.4300265 138.7379939  43.0074111  90.8013237
 140.4158471  49.1727376  88.6443255 140.6275367  49.8159136  87.9677636
 140.3688220  48.3389692  88.1765185 138.0184700  41.7845196  85.5479827
 137.1569179  42.0826450  85.8396565 138.0447135  42.0015595  84.6160860
 134.8346270  50.3287387  81.9553633 135.2984615  50.6075090  81.1658255
 134.5703068  49.4270831  81.7726724 131.7270351  49.8758868  84.8933396
 132.2971708  50.3046137  84.2550881 132.3178463  49.5941453  85.5917582
 133.7715156  46.4510539  78.7643198 134.4739199  46.9031583  79.2317124
 133.4395784  45.8094358  79.3923091 132.2195517  45.0422296  93.1394407
 131.5894178  45.7238577  93.3729804 132.1131605  44.9305377  92.1947546
 127.5140490  44.7094092  84.0660332 126.7239544  44.9651620  83.5900442
 128.0051737  45.5242430  84.1712372 129.4655235  45.0738671  81.0243808
 128.6686398  45.1857365  81.5427304 129.2380827  45.4125323  80.1584699
 135.2960903  51.5983374  88.9726323 135.3605335  52.0603782  89.8084495
 134.5871827  50.9680739  89.1008633 125.7978193  44.9624582  86.4975322
 126.0486231  45.8471592  86.7632898 126.3337741  44.7829184  85.7250414
 135.0108920  53.2651482  78.8405303 134.8754595  54.1103018  79.2690151
 135.5518733  53.4670760  78.0771237 131.4976260  39.3443062  95.5019658
 131.1043206  38.7909260  96.1767303 132.3142400  39.6553640  95.8926176
 128.4638318  50.7826920  79.4133228 128.9762838  51.5770170  79.5638793
 129.1161031  50.0853210  79.3466830 130.2733202  53.8992676  81.4955982
 130.4499831  54.8210641  81.3076965 131.0690036  53.5851095  81.9250361
 134.4144221  40.7600941  93.0939915 135.1553934  41.3608094  93.0144378
 134.6462144  40.0178579  92.5357958 129.5585559  45.9457308  91.3718145
 129.4439074  45.0442565  91.6725244 128.7030077  46.1921005  91.0202961
 136.6377397  53.8875048  92.9705645 136.1941251  53.1011427  92.6526550
 137.2994610  54.0754199  92.3049536 131.3964518  55.4170850  87.4966324
 131.9471943  55.2887913  86.7243318 130.5575994  55.7165739  87.1461217
 138.7358635  54.1677848  90.9987047 138.7177110  54.9886729  90.5067316
 139.6578555  54.0431924  91.2237188 135.1931689  51.6821978  91.8410555
 135.7260026  50.9210266  91.6109863 134.6645770  51.3895630  92.5834709
 138.3601384  36.7882044  87.3704197 138.0165653  37.6783685  87.2943307
 138.7280347  36.5983701  86.5073782 126.4287235  49.1115574  80.1892799
 127.2662457  49.5212583  79.9726507 126.6065502  48.1715016  80.1592993
 138.3251667  46.7790655  75.8776632 137.8098290  47.5495260  76.1165019
 138.0528975  46.1055791  76.5009693 135.9098778  41.6240356  80.9361870
 135.0540374  41.2347206  80.7567509 136.3225729  41.7032316  80.0761656
 137.4397924  39.1586699  85.3353430 136.9362720  39.1216834  84.5221235
 137.7328531  40.0679442  85.3950087 133.6840810  39.2425429  84.3419612
 134.5493807  39.0468237  83.9825501 133.7518319  39.0135780  85.2688968
 138.1137970  44.6517747  77.7036413 137.8088105  44.9663896  78.5546556
 139.0668412  44.7299167  77.7463746 136.5584402  50.8107970  79.3529367
 136.0305763  50.0760730  79.0402604 136.0571904  51.5882647  79.1069335
 131.2903129  41.4727637  81.7135979 131.8646881  41.2502818  80.9809171
 131.8774112  41.5416331  82.4664580 140.3482707  47.3601363  82.5200355
 140.8614588  47.9931355  83.0222065 140.9983930  46.7602559  82.1543715
 131.6172716  43.5032098  75.7331864 130.7810029  43.8406784  76.0541139
 131.4777486  43.3681077  74.7959001 133.5925797  38.3468885  80.4411048
 132.9390209  38.0317903  79.8167663 133.5506271  37.7244626  81.1670871
 134.7037002  48.6288181  72.3564340 133.7964064  48.3977434  72.5555489
 135.2008034  47.8325800  72.5438322 137.6105081  57.3385688  75.2761026
 136.9366780  57.6417384  75.8845984 137.9970903  58.1414768  74.9266483
 136.8263537  44.8350819  84.7658696 135.9086099  45.0565766  84.6080384
 137.2423681  44.9097129  83.9070403 137.6098585  46.2342235  79.8961376
 138.3570404  46.7463632  79.5868498 137.8790175  45.9126287  80.7565769
 135.8825235  48.7300775  76.8788330 134.9736455  48.4459808  76.9760800
 135.9120319  49.1499854  76.0191637 141.1144503  52.3407365  80.6479498
 140.6606830  51.4998275  80.7044688 140.4838469  52.9768763  80.9854278
 140.0577422  43.2699351  81.8780165 139.3200179  42.7576737  82.2090408
 140.3104196  42.8299733  81.0663442 139.5577442  54.1783862  81.5829316
 139.8500416  54.7388919  80.8641681 140.0676063  54.4712423  82.3382475
 140.1589050  36.0475603  82.4721934 140.4647926  35.1872966  82.1847849
 140.8841654  36.6393223  82.2720928 126.4513406  46.4506290  80.8603532
 126.2537806  45.8575650  80.1354599 125.8960070  46.1458500  81.5779471
 134.4310129  46.3429396  82.9798125 134.4858739  45.3903232  82.9040602
 133.6201331  46.4988835  83.4639424 135.5801323  50.2709519  74.2176409
 135.1420753  49.5545378  73.7582046 136.3211764  50.4985634  73.6561500
 132.3702489  44.9606456  80.7388504 131.5570355  45.2600626  81.1453696
 132.8661483  44.5662145  81.4562987 134.5211067  54.9564213  82.6722769
 134.4787246  55.1825059  81.7431301 135.4373766  54.7227587  82.8208570
 137.9676701  45.4248280  89.5703398 138.3226089  45.6519753  90.4297864
 138.6148832  45.7566657  88.9480654 131.8616564  42.5324811  86.3549739
 132.5015943  42.3913570  85.6572703 131.0294095  42.2459325  85.9788341
 132.6376868  51.8327242  82.4684732 133.4317466  51.3377562  82.2667307
 131.9268560  51.3045105  82.1052437 137.4571712  54.2145337  86.8197099
 137.5108735  54.7836274  87.5874815 136.5886494  54.3847222  86.4551137
 128.9459631  45.9770323  78.5444484 128.0157220  45.9154779  78.7614447
 129.0417103  45.4546276  77.7481126 128.8645180  42.5025136  81.1322726
 129.1251998  43.4170470  81.0231887 129.6862353  42.0349579  81.2819339
 130.3370106  43.9162893  88.3021551 131.0093159  43.7080256  87.6534200
 129.5099892  43.7184979  87.8626783 136.2395678  40.5424834  90.3187212
 135.5923593  41.2414784  90.2251688 137.0096693  40.9760978  90.6863460
 139.6474476  50.8073687  93.3937765 139.4959982  50.5784238  92.4767848
 139.6379155  51.7644288  93.4069110 136.4159812  48.3805599  88.3784031
 137.3451872  48.5316759  88.2052999 135.9950842  48.4689620  87.5232678
 135.2148144  52.4056264  86.1482569 135.0759230  52.0375048  87.0208507
 134.4262740  52.9203903  85.9766527 135.8096296  57.5065360  77.4908105
 135.9848052  57.0353403  78.3053728 135.1229084  58.1331126  77.7189366
 136.7653359  51.7837866  83.5371407 136.4303192  51.7438636  84.4329057
 136.2657305  51.1182582  83.0641817 130.7397603  47.1905496  89.0623988
 130.6017401  46.4585735  89.6635527 131.6502527  47.1014397  88.7808176
 139.7012551  49.1293901  73.8108466 139.0841721  48.4040729  73.7141519
 139.2329039  49.8903261  73.4675541 133.3679904  46.9025456  88.5507667
 134.0779522  46.2618648  88.5094286 133.3249212  47.1538351  89.4733848
 132.0808838  43.8890674  90.3703307 131.5446195  43.4381412  91.0224903
 131.4925546  44.0236582  89.6273771 130.3757381  60.6554723  84.2647966
 130.6153979  61.2873247  84.9426984 129.5326578  60.3042763  84.5513325
 131.4911097  43.3479325  72.9329771 130.6140563  43.2268126  72.5692017
 131.9668850  42.5565403  72.6808659 123.0113237  48.1356485  83.0271278
 123.6984277  47.8218215  82.4392293 122.8561365  49.0397849  82.7538529
 127.8147959  43.0246681  87.4556301 127.7306148  42.4172351  86.7206711
 126.9930665  43.5155700  87.4565798 134.8885243  56.4633845  86.6689470
 134.8155415  57.2688817  87.1808774 134.4462636  56.6625811  85.8437491
 134.6775023  55.7005615  80.1792291 133.8942545  56.2427296  80.2730516
 135.3767768  56.2179595  80.5786532 137.9871673  41.5100245  82.8226496
 138.4840372  40.7570207  82.5027567 137.2158654  41.5464562  82.2569706
 137.3483927  56.3620679  88.8247628 138.0611899  56.9968144  88.7523530
 136.8573955  56.4584545  88.0087630 139.0701453  50.2671932  80.3964920
 138.1357732  50.3873395  80.2269624 139.2478122  49.3644399  80.1324930
 134.5706642  43.6517628  82.5498181 134.2004429  43.0988668  83.2379087
 135.0665734  43.0475761  81.9973181 132.3995840  54.1115123  89.6453199
 133.1005300  54.7451606  89.7982593 131.9290955  54.4529854  88.8848838
 140.5250236  52.4533073  77.9301106 140.8010080  52.3389667  78.8394980
 139.6554735  52.0550558  77.8913279 140.4290668  38.4769838  84.9705855
 139.5153747  38.7074065  85.1388062 140.8583769  38.5608282  85.8219888
 140.1997126  46.6659730  87.4705749 139.5468576  46.9135638  86.8158202
 140.5777506  45.8523869  87.1368227 137.1604300  56.7019423  81.5733920
 137.3426694  55.8841079  82.0361672 137.9837286  56.9187116  81.1358810
 137.4946465  55.6287609  78.8348968 138.0234232  55.1180063  78.2219130
 137.7574685  55.3130139  79.6994501 136.2484699  47.4079541  93.9571786
 135.5725336  47.3073671  94.6274162 137.0712333  47.2518755  94.4207784
 127.9963558  53.6451478  86.5784302 128.5816995  52.8995166  86.7112206
 127.7988397  53.9555435  87.4620966 130.8502213  56.6802725  81.5946744
 130.1812589  57.1648853  81.1110784 130.7115083  56.9271946  82.5090123
 122.5881213  46.2157078  85.2988745 122.6265312  45.6820669  86.0925863
 122.0821506  45.6892284  84.6799722 134.9907482  58.7146469  88.1929402
 135.5425790  58.8778090  88.9578488 135.3313675  59.3050907  87.5209427
 129.9671975  41.0621619  88.7951287 130.0313302  41.9236450  88.3828685
 129.9039095  40.4495620  88.0623646 129.4424248  43.1344751  92.4424321
 130.0696287  42.7521828  93.0561846 128.5852167  42.9158953  92.8080014
 139.8418356  53.5407726  94.0478057 140.3858260  54.1537685  93.5533012
 139.2605201  54.0987305  94.5645070 126.2189791  44.9421180  78.3742676
 126.5143232  44.0331859  78.3209730 125.3177826  44.9208920  78.0523679
 138.1275869  56.6628444  85.1793085 138.0027009  55.8618184  84.6704030
 138.7854960  57.1574638  84.6907055 129.7484037  43.0177177  84.3570225
 129.0270623  43.6313145  84.2177698 130.5377293  43.5534942  84.2786871
 140.1910778  54.4637464  86.8072635 139.2441113  54.3442816  86.7350961
 140.5393551  53.5759962  86.8898896 132.5510351  40.3531603  90.6310877
 133.0744753  40.5993900  91.3937186 132.3322684  41.1851638  90.2114014
 127.9477632  42.6235278  78.4982001 127.6190338  41.7432657  78.3157107
 128.3017003  42.5682947  79.3858391 137.1957211  54.2590181  83.0076987
 137.0482173  53.3306888  83.1884557 138.0210704  54.2810271  82.5234062
 131.0619455  42.9108248  78.8657479 131.4015528  43.4394169  78.1436087
 131.5091576  43.2488654  79.6416046 133.7562896  41.2945298  88.3160547
 133.4159716  40.4953112  88.7181227 133.0501902  41.5947009  87.7437380
 134.4079368  38.3794611  86.7687870 135.2305437  37.9055089  86.6466760
 134.6517431  39.1585095  87.2686556 133.0487602  41.4082869  77.0650772
 133.7695965  41.7864122  76.5614489 132.4252907  42.1271746  77.1685750
 137.1918725  42.1128018  78.0009104 137.4082340  42.9952656  77.6997932
 136.7112792  41.7214232  77.2714746 131.9317947  45.0713732  84.5779849
 131.7862527  45.3854035  85.4704130 131.4543150  45.6898632  84.0250747
 133.7914330  42.0616280  84.6260738 133.7775898  41.1657373  84.2893036
 134.5086758  42.0686943  85.2599024 135.6440460  42.4953620  86.6713866
 135.3858238  43.4170690  86.6698196 135.1125501  42.0984054  87.3614330
 140.5886649  55.6004407  79.4503951 140.7623527  55.0350829  78.6977804
 141.0815540  56.4005302  79.2683441 126.4063609  47.6119076  87.5167510
 125.8617077  48.3878884  87.6487784 127.2842959  47.9589880  87.3586631
 133.1951225  40.9430660  79.8948308 133.3167137  40.0147306  80.0939196
 132.9053268  40.9569346  78.9826624 136.0642416  38.6285570  83.0315028
 136.0864113  38.6924903  82.0767008 136.4810475  37.7890079  83.2255534
 127.1929631  46.7388972  90.4097667 126.4511367  46.8871608  90.9962297
 126.8722375  46.9997238  89.5464416 135.1373293  56.2804950  90.2078057
 135.4460420  56.0354097  91.0800756 135.9348775  56.4851589  89.7196927
 135.1593905  58.4342860  82.4383433 134.7198896  57.9419239  83.1316290
 135.9102022  57.8915828  82.1975509 127.6386244  54.6254401  82.4408061
 128.4644264  54.3258173  82.0606705 127.2880296  53.8562023  82.8897850
 132.6067778  53.9780869  84.5105735 131.9847787  53.3151574  84.2107963
 133.2772644  54.0042001  83.8279383 125.8394849  52.5440727  83.3996995
 125.0026758  52.1162902  83.2180996 125.8118495  52.7373171  84.3367786
 132.6792305  42.4562657  94.1038241 132.7280460  43.3324780  93.7216011
 133.2214819  41.9140050  93.5309884 132.1681284  52.5284792  77.9864196
 132.3169405  53.2120257  77.3330868 132.9747728  52.5089883  78.5013651
 134.9091593  43.2094030  90.8584600 134.0394903  43.5027596  90.5867188
 135.1451074  43.7934475  91.5791863 129.9233917  48.5549970  78.9925264
 129.6779959  47.6512300  79.1905475 130.0929832  48.5567121  78.0504742
 137.6130627  39.4273646  88.3750020 138.1312571  40.1634673  88.0496509
 137.2585760  39.7337640  89.2096779 129.1929565  44.2878328  76.4911426
 128.4998810  44.3622683  75.8351462 128.9481317  43.5238671  77.0132943
 137.8643221  35.8473929  83.8950917 138.1444975  35.1797118  84.5211343
 138.6493828  36.0403025  83.3825581 135.6676690  55.0232923  75.4575943
 135.0950657  55.6423110  75.0046415 136.2409484  55.5732285  75.9915865
 139.7566459  41.3547146  87.8281893 139.1616391  41.6352159  87.1328381
 139.4716156  41.8441047  88.5998634 138.8873950  55.3070073  76.5884525
 139.8204623  55.2415635  76.7917401 138.7997163  56.1426340  76.1299058
 136.0523488  46.3593736  72.7991995 136.9982593  46.2299944  72.8680414
 135.6737733  45.6208398  73.2761424 135.9362181  50.4111482  94.2592652
 136.8565190  50.5890081  94.4532699 135.9011764  49.4667527  94.1072352
 134.2366406  44.2843712  72.7346881 133.3297861  43.9876825  72.8109594
 134.5142387  43.9873530  71.8681167 125.1544346  45.6050075  83.1845927
 124.8347130  44.7515384  82.8920301 124.6077774  45.8198654  83.9403894
 128.9324254  48.3212516  86.9015434 129.1510263  49.2529624  86.9203467
 129.3450027  47.9620491  87.6870237 135.8528471  38.8280602  78.8891122
 135.0429200  38.4827687  79.2646368 136.5412888  38.5188146  79.4778734
 137.7819020  37.9058649  80.5115419 138.3350058  38.3254102  81.1705442
 138.0189106  36.9794397  80.5538375 133.8052119  43.8945722  96.2918183
 133.7048846  44.8440079  96.2230274 133.5873661  43.5663961  95.4194253
 133.0065190  41.1430647  72.8758860 133.8684354  41.4685546  73.1354677
 133.1915534  40.3562143  72.3631926 125.0232606  49.2252987  85.1539049
 124.3296077  48.8106940  84.6409003 125.7705597  49.2673523  84.5572468
 139.6101393  39.4164231  82.2215403 140.1101171  39.5280766  81.4129722
 140.2537001  39.1125284  82.8616212 133.6683389  47.3242861  95.1083244
 133.1850471  48.1243221  95.3147133 133.7544328  47.3350806  94.1550688
 126.9369349  49.1571241  83.0305064 126.9140037  49.2558928  82.0786947
 127.2469985  50.0036392  83.3522230 129.5956726  51.2147396  87.1451678
 130.5499980  51.1831338  87.0781610 129.3969250  50.7538020  87.9601904
 130.1856109  49.7848512  89.7122476 131.0048998  50.2792590  89.7357313
 130.4592916  48.8680480  89.6840043 139.9422705  42.1759264  79.0750431
 139.0548560  42.4608915  78.8570626 140.3576694  42.0153028  78.2277708
 127.9506955  56.7567015  84.1621876 127.8161423  55.9967416  83.5959874
 127.5339017  57.4807915  83.6950665 139.0865918  51.9403939  73.1698451
 139.7901768  52.1453941  73.7856107 138.3628567  52.5080701  73.4347535
 139.9163728  47.6913800  79.2900721 139.8598930  48.1482351  78.4508354
 140.4692071  46.9304485  79.1123564 131.1076081  57.6536332  84.3740319
 130.9908465  58.5981765  84.2719009 130.2868527  57.3509894  84.7626118
 140.6498508  48.8818581  76.5853251 140.5947312  48.7162853  75.6441695
 140.0244563  49.5894614  76.7415440 125.4391023  44.1186646  90.4114673
 126.0849886  43.6085600  90.9001898 125.2308174  44.8555327  90.9858098
 137.9644415  51.1867493  95.9106813 138.8335575  51.3608145  95.5493448
 137.4851166  52.0061910  95.7882543 133.9594633  38.3826690  76.1638569
 133.9473303  39.3268530  76.3206840 134.8518055  38.1996836  75.8698030
 132.1330595  58.3064594  87.5896247 133.0357842  58.3388204  87.9062742
 131.9067965  57.3765045  87.6042583 133.8884197  57.0595581  84.2506326
 132.9379828  57.0597442  84.1370698 134.1916683  56.3128315  83.7342360
 137.7746753  34.9769467  80.4184506 137.0079148  34.4227954  80.5641188
 138.1857458  35.0491336  81.2798657 129.7788514  41.2654263  94.5089687
 130.6419975  40.9091068  94.7193012 129.2053924  40.9268158  95.1965091
 139.8377845  66.1970215  84.0794724 140.6299137  65.8561040  83.6641023
 140.0774495  66.3065190  84.9996877 139.4064819  62.5663997  84.0209289
 139.5357200  62.8198476  84.9348701 138.7262270  63.1591705  83.7013944
 138.3534244  60.0386010  84.0660332 137.5633298  60.2943538  83.5900442
 138.8445492  60.8534347  84.1712372 140.3048990  60.4030589  81.0243808
 139.5080153  60.5149283  81.5427304 140.0774582  60.7417241  80.1584699
 136.6371947  60.2916500  86.4975322 136.8879986  61.1763510  86.7632898
 137.1731496  60.1121102  85.7250414 139.3032072  66.1118838  79.4133228
 139.8156593  66.9062088  79.5638793 139.9554785  65.4145128  79.3466830
 140.3979314  61.2749226  91.3718145 140.2832829  60.3734483  91.6725244
 139.5423831  61.5212923  91.0202961 137.2680989  64.4407492  80.1892799
 138.1056211  64.8504500  79.9726507 137.4459257  63.5006934  80.1592993
 137.2907160  61.7798207  80.8603532 137.0931560  61.1867568  80.1354599
 136.7353824  61.4750417  81.5779471 139.7853386  61.3062241  78.5444484
 138.8550974  61.2446697  78.7614447 139.8810858  60.7838194  77.7481126
 139.7038935  57.8317054  81.1322726 139.9645752  58.7462387  81.0231887
 140.5256107  57.3641497  81.2819339 133.8506991  63.4648402  83.0271278
 134.5378031  63.1510132  82.4392293 133.6955120  64.3689767  82.7538529
 138.6541713  58.3538599  87.4556301 138.5699902  57.7464269  86.7206711
 137.8324420  58.8447617  87.4565798 138.8357313  68.9743396  86.5784302
 139.4210749  68.2287083  86.7112206 138.6382151  69.2847352  87.4620966
 133.4274967  61.5448996  85.2988745 133.4659067  61.0112586  86.0925863
 132.9215260  61.0184201  84.6799722 140.8065730  56.3913536  88.7951287
 140.8707056  57.2528367  88.3828685 140.7432850  55.7787538  88.0623646
 140.2818002  58.4636669  92.4424321 140.9090041  58.0813746  93.0561846
 139.4245921  58.2450871  92.8080014 137.0583545  60.2713098  78.3742676
 137.3536986  59.3623776  78.3209730 136.1571581  60.2500837  78.0523679
 138.7871387  57.9527196  78.4982001 138.4584093  57.0724575  78.3157107
 139.1410757  57.8974864  79.3858391 137.2457363  62.9410994  87.5167510
 136.7010831  63.7170802  87.6487784 138.1236713  63.2881798  87.3586631
 138.0323385  62.0680890  90.4097667 137.2905121  62.2163525  90.9962297
 137.7116129  62.3289155  89.5464416 138.4779999  69.9546319  82.4408061
 139.3038019  69.6550090  82.0606705 138.1274051  69.1853941  82.8897850
 136.6788604  67.8732645  83.3996995 135.8420512  67.4454819  83.2180996
 136.6512249  68.0665088  84.3367786 140.7627672  63.8841888  78.9925264
 140.5173714  62.9804218  79.1905475 140.9323586  63.8859038  78.0504742
 140.0323319  59.6170245  76.4911426 139.3392564  59.6914600  75.8351462
 139.7875071  58.8530589  77.0132943 135.9938100  60.9341993  83.1845927
 135.6740885  60.0807301  82.8920301 135.4471529  61.1490571  83.9403894
 139.7718008  63.6504434  86.9015434 139.9904018  64.5821542  86.9203467
 140.1843782  63.2912409  87.6870237 135.8626360  64.5544905  85.1539049
 135.1689832  64.1398857  84.6409003 136.6099351  64.5965441  84.5572468
 137.7763103  64.4863158  83.0305064 137.7533791  64.5850846  82.0786947
 138.0863739  65.3328309  83.3522230 138.7900710  72.0858933  84.1621876
 138.6555178  71.3259334  83.5959874 138.3732772  72.8099833  83.6950665
 136.2784777  59.4478563  90.4114673 136.9243641  58.9377517  90.9001898
 136.0701928  60.1847245  90.9858098 121.8976798  19.5839534  66.8445070
 121.8200828  20.5347359  66.9233551 121.2938442  19.2385406  67.5019996
 124.1715167  14.9421687  65.5650610 124.0360842  15.7873223  65.9935458
 124.7124980  15.1440964  64.8016544 119.4339449  15.5762881  68.2201288
 119.6106078  16.4980846  68.0322272 120.2296283  15.2621300  68.6495668
 120.5570765  17.0941055  74.2211631 121.1078190  16.9658118  73.4488624
 119.7182241  17.3935944  73.8706523 126.7711328  19.0155893  62.0006333
 126.0973026  19.3187589  62.6091291 127.1577150  19.8184973  61.6511790
 123.6817314  16.6334418  69.3968076 123.6393493  16.8595264  68.4676608
 124.5980013  16.3997792  69.5453877 126.6177959  15.8915542  73.5442406
 126.6714981  16.4606478  74.3120122 125.7492741  16.0617427  73.1796443
 124.9702543  19.1835565  64.2153412 125.1454298  18.7123608  65.0299035
 124.2835331  19.8101331  64.4434673 119.5363628  22.3324928  70.9893272
 119.7760226  22.9643452  71.6672291 118.6932824  21.9812968  71.2758631
 124.0491490  18.1404050  73.3934776 123.9761661  18.9459022  73.9054081
 123.6068883  18.3396016  72.5682798 123.8381269  17.3775820  66.9037598
 123.0548791  17.9197501  66.9975822 124.5374015  17.8949800  67.3031839
 126.5090173  18.0390884  75.5492935 127.2218146  18.6738349  75.4768836
 126.0180202  18.1354750  74.7332937 121.5602087  15.7885328  76.3698506
 122.2611546  16.4221811  76.5227900 121.0897202  16.1300059  75.6094145
 126.3210547  18.3789628  68.2979226 126.5032941  17.5611284  68.7606979
 127.1443533  18.5957321  67.8604116 126.6552712  17.3057814  65.5594275
 127.1840479  16.7950268  64.9464437 126.9180932  16.9900344  66.4239808
 117.1569805  15.3221683  73.3029608 117.7423242  14.5765371  73.4357513
 116.9594643  15.6325640  74.1866272 120.0108460  18.3572930  68.3192051
 119.3418835  18.8419058  67.8356091 119.8721330  18.6042151  69.2335429
 124.1513729  20.3916674  74.9174709 124.7032037  20.5548295  75.6823794
 124.4919922  20.9821112  74.2454734 127.2882116  18.3398649  71.9038391
 127.1633255  17.5388389  71.3949337 127.9461207  18.8344843  71.4152361
 124.2979540  17.9575155  76.9323363 124.6066667  17.7124302  77.8046063
 125.0955022  18.1621794  76.4442234 124.3200152  20.1113065  69.1628740
 123.8805142  19.6189444  69.8561597 125.0708269  19.5686033  68.9220815
 116.7992491  16.3024606  69.1653368 117.6250511  16.0028378  68.7852012
 116.4486543  15.5332228  69.6143157 121.7674024  15.6551074  71.2351042
 121.1454034  14.9921779  70.9353270 122.4378891  15.6812206  70.5524689
 115.0001096  14.2210932  70.1242302 114.1633004  13.7933107  69.9426303
 114.9724742  14.4143376  71.0613093 124.8282937  16.7003128  62.1821250
 124.2556904  17.3193315  61.7291722 125.4015730  17.2502490  62.7161172
 128.0480196  16.9840278  63.3129832 128.9810870  16.9185840  63.5162707
 127.9603409  17.8196545  62.8544365 117.1113202  18.4337220  70.8867183
 116.9767670  17.6737621  70.3205181 116.6945264  19.1578120  70.4195971
 120.2682328  19.3306537  71.0985625 120.1514712  20.2751970  70.9964315
 119.4474774  19.0280099  71.4871424 121.2936842  19.9834799  74.3141554
 122.1964089  20.0158409  74.6308049 121.0674212  19.0535250  74.3287889
 123.0490444  18.7365786  70.9751632 122.0986075  18.7367647  70.8616004
 123.3522930  17.9898520  70.4587667 138.7843137  24.5726324  72.0397395
 139.4221547  24.4533071  71.3360735 138.6663980  25.5207168  72.0985347
 135.5932844  24.5253752  71.9758919 135.2551355  24.4094817  71.0879454
 136.4622612  24.1244917  71.9559925 131.4519659  26.3789229  67.9655810
 130.8884525  26.2879165  67.1972098 131.3372054  25.5589133  68.4458303
 136.0752627  25.6788604  77.9345125 136.0641267  25.2841402  77.0625628
 136.2373266  24.9454676  78.5278896 128.9984091  27.8740420  70.8040031
 129.7905383  27.5331245  70.3886330 129.2380742  27.9835395  71.7242184
 137.0319218  30.0460196  63.2770275 136.3807198  30.6314277  62.8904289
 137.8263581  30.5766391  63.3365313 130.9574845  27.1349333  63.6757410
 131.7305721  26.5878320  63.5370285 131.3100244  27.9993583  63.8871871
 132.7959888  28.4625716  76.8824309 132.5049754  29.3671347  76.7670975
 133.4316872  28.5042243  77.5968378 133.7216095  25.8402564  73.4725668
 134.3179667  25.6158587  72.7582631 133.7791066  25.0987310  74.0751116
 133.2941123  23.2942000  61.3075859 133.5466644  22.7723521  60.5459322
 132.3565682  23.1308145  61.4102543 138.3384406  22.2977778  69.1150603
 139.1247495  21.8797201  68.7641020 138.6023110  23.2023870  69.2832251
 138.5094483  27.7350628  63.8139259 137.8740316  27.8085255  64.5260164
 138.1791890  28.3244227  63.1358339 133.0137412  25.1970105  63.5100234
 132.8973670  24.5215009  64.1781319 133.1239672  24.7102479  62.6932387
 135.3568953  24.6580253  67.2146924 134.9927160  24.1310874  67.9259845
 136.2136069  24.2678722  67.0413409 134.9974440  19.6870152  62.2108272
 135.1648842  20.5550389  62.5778743 134.8071609  19.8497434  61.2869561
 137.7549773  28.1487131  73.8774102 137.4550496  29.0512170  73.7689910
 137.4100832  27.8819314  74.7295255 131.2062254  24.6000928  69.9110807
 130.2812751  24.4677142  70.1188499 131.4546668  25.3795147  70.4080749
 134.9763661  22.1427810  63.1954939 134.8563286  22.5884861  64.0340419
 134.2816249  22.4913127  62.6368477 128.5671065  24.2434202  70.7454596
 128.6963447  24.4968680  71.6594008 127.8868517  24.8361910  70.4259251
 132.7370553  34.9131452  66.8445070 132.6594582  35.8639277  66.9233551
 132.1332196  34.5677324  67.5019996 135.2287783  22.0859317  79.5006437
 134.4521117  22.6453237  79.4909302 135.8678346  22.5716100  80.0221307
 133.4834155  24.8944770  79.0624404 134.2248839  25.4329814  78.7859228
 132.7771140  25.5211059  79.2195956 138.9589494  27.0373911  77.6596566
 139.3672850  26.5956321  76.9151198 138.2366756  26.4626538  77.9130758
 135.3120565  21.9746518  75.0330123 136.1581760  22.3985931  75.1764772
 135.2519202  21.3180142  75.7268686 139.2818309  27.5975101  71.4148854
 138.6527172  27.7620816  70.7124922 138.8943971  28.0116711  72.1859818
 140.4158473  26.1789498  75.3688562 140.6275368  26.8221258  74.6922943
 140.3688221  25.3451815  74.9010492 134.8346271  27.3349509  68.6798940
 135.2984617  27.6137212  67.8903562 134.5703069  26.4332954  68.4972030
 131.7270352  26.8820991  71.6178703 132.2971709  27.3108259  70.9796187
 132.3178464  26.6003576  72.3162888 133.7715157  23.4572662  65.4888505
 134.4739200  23.9093706  65.9562431 133.4395786  22.8156481  66.1168398
 132.2195519  22.0484418  79.8639714 131.5894179  22.7300699  80.0975111
 132.1131606  21.9367500  78.9192852 127.5140491  21.7156215  70.7905638
 126.7239545  21.9713743  70.3145749 128.0051738  22.5304552  70.8957679
 129.4655236  22.0800794  67.7489115 128.6686400  22.1919488  68.2672611
 129.2380829  22.4187446  66.8830005 135.2960904  28.6045497  75.6971630
 135.3605337  29.0665904  76.5329801 134.5871828  27.9742862  75.8253939
 125.7978194  21.9686705  73.2220629 126.0486232  22.8533715  73.4878205
 126.3337742  21.7891307  72.4495721 135.0108922  30.2713604  65.5650610
 134.8754596  31.1165140  65.9935458 135.5518734  30.4732882  64.8016544
 128.4638319  27.7889043  66.1378535 128.9762840  28.5832293  66.2884100
 129.1161032  27.0915333  66.0712136 130.2733204  30.9054799  68.2201288
 130.4499832  31.8272763  68.0322272 131.0690037  30.5913218  68.6495668
 129.5585560  22.9519431  78.0963451 129.4439075  22.0504688  78.3970550
 128.7030078  23.1983127  77.7448268 136.6377398  30.8937171  79.6950952
 136.1941252  30.1073550  79.3771856 137.2994612  31.0816321  79.0294843
 131.3964519  32.4232973  74.2211631 131.9471944  32.2950036  73.4488624
 130.5575995  32.7227862  73.8706523 138.7358636  31.1739971  77.7232353
 138.7177111  31.9948852  77.2312622 139.6578556  31.0494046  77.9482494
 135.1931690  28.6884100  78.5655862 135.7260027  27.9272389  78.3355170
 134.6645771  28.3957752  79.3080016 126.4287236  26.1177697  66.9138106
 127.2662458  26.5274705  66.6971813 126.6065504  25.1777139  66.8838299
 138.3251668  23.7852777  62.6021938 137.8098291  24.5557382  62.8410326
 138.0528976  23.1117914  63.2255000 138.1137971  21.6579870  64.4281720
 137.8088107  21.9726019  65.2791863 139.0668413  21.7361289  64.4709053
 136.5584403  27.8170093  66.0774674 136.0305765  27.0822852  65.7647911
 136.0571906  28.5944769  65.8314642 131.2903131  18.4789759  68.4381285
 131.8646882  18.2564941  67.7054478 131.8774113  18.5478454  69.1909886
 140.3482708  24.3663486  69.2445662 140.8614590  24.9993478  69.7467371
 140.9983932  23.7664682  68.8789022 131.6172718  20.5094220  62.4577170
 130.7810030  20.8468907  62.7786445 131.4777487  20.3743200  61.5204307
 134.7037003  25.6350303  59.0809647 133.7964065  25.4039557  59.2800796
 135.2008035  24.8387922  59.2683628 137.6105082  34.3447810  62.0006333
 136.9366781  34.6479507  62.6091291 137.9970904  35.1476891  61.6511790
 136.8263539  21.8412942  71.4904002 135.9086100  22.0627889  71.3325690
 137.2423682  21.9159252  70.6315710 137.6098586  23.2404357  66.6206682
 138.3570405  23.7525755  66.3113805 137.8790176  22.9188410  67.4811076
 135.8825237  25.7362898  63.6033637 134.9736456  25.4521931  63.7006107
 135.9120320  26.1561977  62.7436944 141.1144504  29.3469488  67.3724804
 140.6606831  28.5060397  67.4289995 140.4838471  29.9830886  67.7099584
 139.5577443  31.1845984  68.3074622 139.8500418  31.7451041  67.5886988
 140.0676064  31.4774545  69.0627782 126.4513407  23.4568412  67.5848839
 126.2537807  22.8637773  66.8599906 125.8960071  23.1520622  68.3024778
 134.4310131  23.3491519  69.7043432 134.4858740  22.3965355  69.6285909
 133.6201333  23.5050958  70.1884731 135.5801324  27.2771642  60.9421715
 135.1420754  26.5607501  60.4827353 136.3211765  27.5047757  60.3806807
 132.3702491  21.9668578  67.4633811 131.5570356  22.2662749  67.8699003
 132.8661485  21.5724267  68.1808293 134.5211068  31.9626335  69.3968076
 134.4787247  32.1887182  68.4676608 135.4373767  31.7289710  69.5453877
 137.9676702  22.4310403  76.2948705 138.3226090  22.6581876  77.1543171
 138.6148833  22.7628780  75.6725960 131.8616565  19.5386934  73.0795046
 132.5015945  19.3975693  72.3818009 131.0294096  19.2521447  72.7033648
 132.6376869  28.8389364  69.1930038 133.4317468  28.3439684  68.9912613
 131.9268562  28.3107227  68.8297744 137.4571714  31.2207460  73.5442406
 137.5108736  31.7898396  74.3120122 136.5886495  31.3909345  73.1796443
 128.9459633  22.9832446  65.2689791 128.0157221  22.9216902  65.4859753
 129.0417105  22.4608399  64.4726432 128.8645182  19.5087259  67.8568033
 129.1251999  20.4232592  67.7477193 129.6862354  19.0411701  68.0064646
 130.3370107  20.9225016  75.0266857 131.0093160  20.7142378  74.3779506
 129.5099894  20.7247102  74.5872090 139.6474477  27.8135809  80.1183071
 139.4959983  27.5846361  79.2013155 139.6379156  28.7706411  80.1314416
 136.4159813  25.3867722  75.1029338 137.3451873  25.5378881  74.9298305
 135.9950843  25.4751743  74.2477984 135.2148145  29.4118386  72.8727876
 135.0759231  29.0437171  73.7453814 134.4262741  29.9266026  72.7011833
 135.8096297  34.5127483  64.2153412 135.9848053  34.0415526  65.0299035
 135.1229085  35.1393249  64.4434673 136.7653360  28.7899989  70.2616713
 136.4303193  28.7500759  71.1574363 136.2657306  28.1244705  69.7887124
 130.7397604  24.1967619  75.7869294 130.6017402  23.4647858  76.3880833
 131.6502528  24.1076519  75.5053482 139.7012552  26.1356023  60.5353773
 139.0841723  25.4102851  60.4386826 139.2329040  26.8965384  60.1920847
 133.3679905  23.9087578  75.2752974 134.0779524  23.2680771  75.2339593
 133.3249213  24.1600473  76.1979155 132.0808839  20.8952796  77.0948614
 131.5446196  20.4443535  77.7470210 131.4925547  21.0298705  76.3519078
 130.3757382  37.6616846  70.9893272 130.6153981  38.2935370  71.6672291
 129.5326579  37.3104886  71.2758631 131.4911098  20.3541448  59.6575077
 130.6140564  20.2330248  59.2937324 131.9668851  19.5627526  59.4053966
 123.0113238  25.1418607  69.7516584 123.6984278  24.8280337  69.1637600
 122.8561367  26.0459972  69.4783836 127.8147960  20.0308804  74.1801608
 127.7306149  19.4234473  73.4452018 126.9930667  20.5217822  74.1811104
 134.8885244  33.4695968  73.3934776 134.8155416  34.2750939  73.9054081
 134.4462637  33.6687934  72.5682798 134.6775024  32.7067738  66.9037598
 133.8942546  33.2489418  66.9975822 135.3767769  33.2241718  67.3031839
 137.3483928  33.3682802  75.5492935 138.0611900  34.0030267  75.4768836
 136.8573956  33.4646668  74.7332937 139.0701455  27.2734055  67.1210227
 138.1357733  27.3935517  66.9514931 139.2478123  26.3706521  66.8570236
 134.5706643  20.6579750  69.2743488 134.2004430  20.1050791  69.9624393
 135.0665735  20.0537884  68.7218488 132.3995841  31.1177245  76.3698506
 133.1005301  31.7513728  76.5227900 131.9290956  31.4591977  75.6094145
 140.5250237  29.4595195  64.6546413 140.8010081  29.3451790  65.5640287
 139.6554736  29.0612680  64.6158586 140.1997127  23.6721853  74.1951056
 139.5468578  23.9197760  73.5403509 140.5777507  22.8585991  73.8613533
 137.1604301  33.7081546  68.2979226 137.3426696  32.8903202  68.7606979
 137.9837287  33.9249238  67.8604116 137.4946467  32.6349731  65.5594275
 138.0234233  32.1242186  64.9464437 137.7574686  32.3192261  66.4239808
 136.2484700  24.4141664  80.6817093 135.5725337  24.3135793  81.3519468
 137.0712334  24.2580878  81.1453090 127.9963559  30.6513601  73.3029608
 128.5816996  29.9057288  73.4357513 127.7988398  30.9617557  74.1866272
 130.8502215  33.6864848  68.3192051 130.1812590  34.1710976  67.8356091
 130.7115084  33.9334068  69.2335429 122.5881214  23.2219201  72.0234051
 122.6265314  22.6882791  72.8171170 122.0821507  22.6954406  71.4045029
 134.9907483  35.7208591  74.9174709 135.5425791  35.8840213  75.6823794
 135.3313677  36.3113029  74.2454734 129.9671976  18.0683741  75.5196594
 130.0313303  18.9298572  75.1073991 129.9039097  17.4557743  74.7868952
 129.4424249  20.1406874  79.1669628 130.0696288  19.7583951  79.7807152
 128.5852168  19.9221076  79.5325321 139.8418358  30.5469849  80.7723364
 140.3858262  31.1599807  80.2778318 139.2605202  31.1049427  81.2890377
 126.2189792  21.9483303  65.0987983 126.5143233  21.0393981  65.0455037
 125.3177828  21.9271042  64.7768985 138.1275871  33.6690567  71.9038391
 138.0027010  32.8680307  71.3949337 138.7854962  34.1636760  71.4152361
 129.7484039  20.0239299  71.0815531 129.0270625  20.6375267  70.9423005
 130.5377295  20.5597064  71.0032177 140.1910779  31.4699587  73.5317941
 139.2441114  31.3504938  73.4596268 140.5393552  30.5822085  73.6144203
 127.9477633  19.6297401  65.2227308 127.6190339  18.7494779  65.0402414
 128.3017004  19.5745069  66.1103697 137.1957212  31.2652303  69.7322294
 137.0482175  30.3369011  69.9129864 138.0210706  31.2872394  69.2479369
 131.0619456  19.9170370  65.5902786 131.4015529  20.4456292  64.8681394
 131.5091577  20.2550776  66.3661352 133.0487604  18.4144992  63.7896078
 133.7695966  18.7926245  63.2859795 132.4252908  19.1333869  63.8931056
 131.9317948  22.0775854  71.3025155 131.7862529  22.3916157  72.1949437
 131.4543152  22.6960754  70.7496054 135.6440461  19.5015742  73.3959172
 135.3858239  20.4232813  73.3943503 135.1125502  19.1046177  74.0859637
 140.5886650  32.6066529  66.1749258 140.7623528  32.0412952  65.4223110
 141.0815541  33.4067424  65.9928748 126.4063610  24.6181199  74.2412817
 125.8617078  25.3941006  74.3733091 127.2842960  24.9652003  74.0831938
 127.1929632  23.7451095  77.1342973 126.4511368  23.8933730  77.7207604
 126.8722376  24.0059360  76.2709723 135.1373295  33.2867073  76.9323363
 135.4460421  33.0416220  77.8046063 135.9348777  33.4913711  76.4442234
 135.1593907  35.4404983  69.1628740 134.7198897  34.9481361  69.8561597
 135.9102024  34.8977950  68.9220815 127.6386246  31.6316523  69.1653368
 128.4644266  31.3320295  68.7852012 127.2880298  30.8624146  69.6143157
 132.6067779  30.9842992  71.2351042 131.9847788  30.3213697  70.9353270
 133.2772646  31.0104124  70.5524689 125.8394851  29.5502850  70.1242302
 125.0026759  29.1225024  69.9426303 125.8118496  29.7435293  71.0613093
 132.6792306  19.4624780  80.8283548 132.7280462  20.3386903  80.4461317
 133.2214820  18.9202173  80.2555191 132.1681286  29.5346915  64.7109502
 132.3169406  30.2182379  64.0576175 132.9747729  29.5152005  65.2258958
 134.9091595  20.2156152  77.5829906 134.0394904  20.5089718  77.3112495
 135.1451075  20.7996597  78.3037170 129.9233919  25.5612093  65.7170571
 129.6779961  24.6574423  65.9150781 130.0929833  25.5629243  64.7750049
 129.1929566  21.2940450  63.2156733 128.4998811  21.3684805  62.5596769
 128.9481318  20.5300794  63.7378250 135.6676691  32.0295046  62.1821250
 135.0950658  32.6485233  61.7291722 136.2409485  32.5794407  62.7161172
 138.8873951  32.3132196  63.3129832 139.8204624  32.2477757  63.5162707
 138.7997164  33.1488462  62.8544365 136.0523490  23.3655858  59.5237302
 136.9982594  23.2362066  59.5925720 135.6737735  22.6270520  60.0006730
 135.9362182  27.4173604  80.9837959 136.8565192  27.5952203  81.1778006
 135.9011765  26.4729650  80.8317658 134.2366407  21.2905835  59.4592187
 133.3297862  20.9938947  59.5354901 134.5142388  20.9935653  58.5926474
 125.1544347  22.6112198  69.9091234 124.8347132  21.7577506  69.6165608
 124.6077775  22.8260776  70.6649201 128.9324255  25.3274639  73.6260740
 129.1510265  26.2591747  73.6448774 129.3450029  24.9682613  74.4115544
 133.8052120  20.9007845  83.0163489 133.7048847  21.8502202  82.9475580
 133.5873662  20.5726084  82.1439559 125.0232607  26.2315110  71.8784355
 124.3296079  25.8169062  71.3654310 125.7705598  26.2735646  71.2817774
 133.6683390  24.3304984  81.8328551 133.1850472  25.1305344  82.0392440
 133.7544329  24.3412929  80.8795995 126.9369350  26.1633363  69.7550370
 126.9140038  26.2621051  68.8032253 127.2469986  27.0098514  70.0767536
 129.5956728  28.2209518  73.8696985 130.5499981  28.1893461  73.8026916
 129.3969251  27.7600142  74.6847211 130.1856110  26.7910634  76.4367782
 131.0048999  27.2854713  76.4602620 130.4592917  25.8742603  76.4085350
 127.9506956  33.7629138  70.8867183 127.8161424  33.0029539  70.3205181
 127.5339019  34.4870038  70.4195971 139.0865919  28.9466061  59.8943758
 139.7901770  29.1516064  60.5101413 138.3628568  29.5142823  60.1592841
 139.9163730  24.6975923  66.0146028 139.8598931  25.1544474  65.1753660
 140.4692072  23.9366607  65.8368871 131.1076082  34.6598455  71.0985625
 130.9908466  35.6043887  70.9964315 130.2868529  34.3572016  71.4871424
 140.6498509  25.8880704  63.3098557 140.5947313  25.7224975  62.3687001
 140.0244564  26.5956737  63.4660747 125.4391024  21.1248768  77.1359979
 126.0849888  20.6147722  77.6247205 125.2308175  21.8617450  77.7103405
 137.9644416  28.1929616  82.6352120 138.8335576  28.3670268  82.2738755
 137.4851168  29.0124033  82.5127849 132.1330596  35.3126717  74.3141554
 133.0357843  35.3450327  74.6308049 131.9067966  34.3827168  74.3287889
 133.8884198  34.0657703  70.9751632 132.9379829  34.0659565  70.8616004
 134.1916685  33.3190438  70.4587667 129.7788515  18.2716385  81.2334994
 130.6419977  17.9153190  81.4438318 129.2053926  17.9330280  81.9210398
 139.8377846  43.2032338  70.8040031 140.6299138  42.8623162  70.3886330
 140.0774496  43.3127313  71.7242184 139.4064820  39.5726119  70.7454596
 139.5357201  39.8260598  71.6594008 138.7262271  40.1653827  70.4259251
 138.3534245  37.0448132  70.7905638 137.5633299  37.3005661  70.3145749
 138.8445493  37.8596470  70.8957679 140.3048991  37.4092711  67.7489115
 139.5080154  37.5211406  68.2672611 140.0774583  37.7479364  66.8830005
 136.6371948  37.2978623  73.2220629 136.8879987  38.1825633  73.4878205
 137.1731497  37.1183224  72.4495721 139.3032074  43.1180960  66.1378535
 139.8156594  43.9124210  66.2884100 139.9554786  42.4207251  66.0712136
 140.3979315  38.2811348  78.0963451 140.2832830  37.3796606  78.3970550
 139.5423833  38.5275045  77.7448268 137.2680990  41.4469614  66.9138106
 138.1056212  41.8566623  66.6971813 137.4459258  40.5069057  66.8838299
 137.2907161  38.7860330  67.5848839 137.0931561  38.1929691  66.8599906
 136.7353825  38.4812540  68.3024778 139.7853387  38.3124364  65.2689791
 138.8550975  38.2508819  65.4859753 139.8810859  37.7900316  64.4726432
 139.7038936  34.8379177  67.8568033 139.9645754  35.7524510  67.7477193
 140.5256109  34.3703619  68.0064646 133.8506993  40.4710525  69.7516584
 134.5378032  40.1572255  69.1637600 133.6955121  41.3751890  69.4783836
 138.6541715  35.3600722  74.1801608 138.5699903  34.7526391  73.4452018
 137.8324421  35.8509740  74.1811104 138.8357314  45.9805518  73.3029608
 139.4210751  45.2349206  73.4357513 138.6382152  46.2909475  74.1866272
 133.4274969  38.5511118  72.0234051 133.4659068  38.0174709  72.8171170
 132.9215261  38.0246324  71.4045029 140.8065731  33.3975659  75.5196594
 140.8707057  34.2590490  75.1073991 140.7432851  32.7849661  74.7868952
 140.2818003  35.4698791  79.1669628 140.9090042  35.0875869  79.7807152
 139.4245922  35.2512993  79.5325321 137.0583546  37.2775221  65.0987983
 137.3536987  36.3685899  65.0455037 136.1571582  37.2562960  64.7768985
 138.7871388  34.9589318  65.2227308 138.4584094  34.0786697  65.0402414
 139.1410759  34.9036987  66.1103697 137.2457365  39.9473116  74.2412817
 136.7010833  40.7232924  74.3733091 138.1236714  40.2943921  74.0831938
 138.0323386  39.0743012  77.1342973 137.2905122  39.2225648  77.7207604
 137.7116131  39.3351278  76.2709723 138.4780000  46.9608441  69.1653368
 139.3038020  46.6612213  68.7852012 138.1274052  46.1916064  69.6143157
 136.6788605  44.8794768  70.1242302 135.8420513  44.4516942  69.9426303
 136.6512251  45.0727211  71.0613093 140.7627673  40.8904010  65.7170571
 140.5173715  39.9866340  65.9150781 140.9323588  40.8921161  64.7750049
 140.0323321  36.6232368  63.2156733 139.3392566  36.6976723  62.5596769
 139.7875073  35.8592712  63.7378250 135.9938102  37.9404116  69.9091234
 135.6740886  37.0869424  69.6165608 135.4471530  38.1552694  70.6649201
 139.7718009  40.6566557  73.6260740 139.9904019  41.5883665  73.6448774
 140.1843783  40.2974531  74.4115544 135.8626362  41.5607027  71.8784355
 135.1689833  41.1460980  71.3654310 136.6099353  41.6027564  71.2817774
 137.7763104  41.4925281  69.7550370 137.7533792  41.5912968  68.8032253
 138.0863741  42.3390432  70.0767536 138.7900711  49.0921056  70.8867183
 138.6555179  48.3321456  70.3205181 138.3732773  49.8161955  70.4195971
 136.2784779  36.4540686  77.1359979 136.9243642  35.9439640  77.6247205
 136.0701930  37.1909368  77.7103405 138.8357315  22.9867641  60.0274915
 139.4210752  22.2411329  60.1602819 138.6382154  23.2971597  60.9111579
 138.4780001  23.9670564  55.8898675 139.3038021  23.6674336  55.5097318
 138.1274053  23.1978186  56.3388463 136.6788606  21.8856890  56.8487608
 135.8420515  21.4579065  56.6671610 136.6512252  22.0789334  57.7858399
 138.7900712  26.0983178  57.6112489 138.6555180  25.3383579  57.0450487
 138.3732774  26.8224078  57.1441278  39.4775420  76.0335955 142.9298432
  38.8263400  76.6190035 142.5432446  40.2719783  76.5642150 142.9893470
  35.7397325  69.2817758 140.9604016  35.9922846  68.7599279 140.1987480
  34.8021884  69.1183903 141.0630700  40.9550685  73.7226387 143.4667417
  40.3196518  73.7961013 144.1788321  40.6248092  74.3119985 142.7886496
  35.1826755  80.9007210 146.4973227  35.1050784  81.8515035 146.5761708
  34.5788398  80.5553082 147.1548154  43.1204929  68.6025041 143.6763430
  44.0322785  68.8352428 143.5011128  42.6114576  69.1862086 143.1138509
  45.6063743  74.5205298 148.4221375  44.9214781  74.9004199 147.8718409
  45.6907592  75.1300624 149.1553323  37.4565124  76.2589363 145.2178767
  37.3210798  77.1040899 145.6463615  37.9974936  76.4608640 144.4544701
  40.7707870  69.7728536 142.2550096  40.2554493  70.5433140 142.4938483
  40.4985178  69.0993672 142.8783157  45.7442144  72.5260890 144.1903269
  44.9671587  72.1872050 143.7458431  46.4233625  72.5313514 143.5158234
  37.1493205  71.6226062 138.7337804  36.2420267  71.3915315 138.9328953
  37.6464237  70.8263681 138.9211785  40.0561284  80.3323569 141.6534490
  39.3822983  80.6355265 142.2619448  40.4427106  81.1352649 141.3039947
  38.3281439  71.7238656 143.2561794  37.4192658  71.4397689 143.3534264
  38.3576522  72.1437735 142.3965101  43.5600706  75.3345246 147.0252961
  43.1063033  74.4936156 147.0818152  42.9294673  75.9706644 147.3627742
  42.0033645  77.1721743 147.9602780  42.2956620  77.7326800 147.2415145
  42.5132266  77.4650304 148.7155939  38.0257526  73.2647400 140.5949872
  37.5876956  72.5483259 140.1355510  38.7667967  73.4923515 140.0334964
  46.1430641  71.5404597 146.6526191  46.0048540  71.7306193 145.7247380
  45.7866860  72.3023980 147.1094242  38.2552499  80.5003241 143.8681569
  38.4304255  80.0291284 144.6827192  37.5685287  81.1269007 144.0962830
  42.1468754  72.1231782 140.1881930  41.5297925  71.3978610 140.0914983
  41.6785242  72.8841142 139.8449004  37.1231226  78.6943496 146.5565755
  36.3398748  79.2365177 146.6503979  37.8223971  79.2117476 146.9559996
  42.9706439  75.4470954 144.3074570  43.2466283  75.3327548 145.2168444
  42.1010938  75.0488438 144.2686743  39.6060503  79.6957304 147.9507383
  39.7882898  78.8778960 148.4135136  40.4293489  79.9124997 147.5132273
  39.9402669  78.6225490 145.2122432  40.4690435  78.1117944 144.5992594
  40.2030888  78.3068020 146.0767965  43.0342852  78.5942288 145.8277415
  43.2079730  78.0288710 145.0751267  43.5271744  79.3943183 145.6456905
  48.8882243  71.3578711 147.4467715  49.3313390  70.6086036 147.0486838
  48.0108754  71.3488847 147.0641447  44.0218025  77.9109052 142.9274313
  44.7168929  78.5315745 143.1461628  44.3641175  77.0604403 143.2026691
  45.9209448  75.3608758 144.4561644  46.4460772  75.6996030 143.7310964
  45.8331800  74.4255773 144.2724779  34.6137488  75.5222673 144.3637659
  34.7625608  76.2058138 143.7104332  35.4203931  75.5027763 144.8787115
  38.1132893  78.0170804 141.8349407  37.5406860  78.6360991 141.3819879
  38.6865687  78.5670166 142.3689329  41.3330153  78.3007954 142.9657989
  42.2660826  78.2353516 143.1690865  41.2453366  79.1364221 142.5072522
  43.9618170  77.6173824 139.9261937  43.8831801  77.2833688 140.8197694
  44.7827836  78.1095592 139.9253409  38.4979692  69.3531617 139.1765459
  39.4438796  69.2237825 139.2453877  38.1193937  68.6146279 139.6534887
  36.6822609  67.2781593 139.1120344  35.7754064  66.9814706 139.1883058
  36.9598590  66.9811411 138.2454631  41.5322121  74.9341820 139.5471915
  42.2357972  75.1391822 140.1629571  40.8084770  75.5018582 139.8120998
  43.4408819  75.3724349 141.5970375  44.2754423  74.9405547 141.4147850
  43.2793162  75.2006363 142.5247269  43.0954711  71.8756462 142.9626714
  43.0403515  71.7100734 142.0215158  42.4700766  72.5832495 143.1188904
  52.0693094  85.8894000 151.6925552  52.7071504  85.7700747 150.9888892
  51.9513937  86.8374844 151.7513504  48.8782800  85.8421428 151.6287076
  48.5401312  85.7262493 150.7407611  49.7472568  85.4412593 151.6088083
  44.7369616  87.6956905 147.6183967  44.1734481  87.6046842 146.8500255
  44.6222011  86.8756809 148.0986460  42.2834048  89.1908096 150.4568188
  43.0755340  88.8498921 150.0414487  42.5230698  89.3003071 151.3770341
  50.3169175  91.3627872 142.9298432  49.6657154  91.9481953 142.5432446
  51.1113537  91.8934067 142.9893470  44.2424802  88.4517009 143.3285567
  45.0155678  87.9045997 143.1898442  44.5950201  89.3161259 143.5400028
  47.0066051  87.1570240 153.1253826  47.6029623  86.9326263 152.4110788
  47.0641023  86.4154986 153.7279273  46.5791080  84.6109676 140.9604016
  46.8316600  84.0891197 140.1987480  45.6415639  84.4475821 141.0630700
  51.6234362  83.6145454 148.7678760  52.4097452  83.1964877 148.4169177
  51.8873067  84.5191546 148.9360408  51.7944440  89.0518304 143.4667417
  51.1590273  89.1252931 144.1788321  51.4641846  89.6411903 142.7886496
  57.0242790  83.5520687 149.6711738  57.7567962  82.9819904 149.9049568
  56.2682145  83.1642288 150.1118244  46.2987368  86.5137782 143.1628391
  46.1823626  85.8382685 143.8309476  46.4089628  86.0270155 142.3460545
  48.6418909  85.9747929 146.8675081  48.2777117  85.4478550 147.5788002
  49.4986025  85.5846398 146.6941566  48.2824396  81.0037828 141.8636429
  48.4498799  81.8718065 142.2306900  48.0921565  81.1665110 140.9397718
  44.4912211  85.9168604 149.5638964  43.5662707  85.7844818 149.7716656
  44.7396624  86.6962823 150.0608906  54.4396873  81.9837347 151.2099697
  53.5313751  81.9152756 150.9158458  54.3884469  82.4609292 152.0381522
  48.2613617  83.4595486 142.8483096  48.1413242  83.9052537 143.6868576
  47.5666206  83.8080803 142.2896634  41.8521022  85.5601878 150.3982753
  41.9813403  85.8136357 151.3122165  41.1718473  86.1529586 150.0787408
  46.0220509  96.2299128 146.4973227  45.9444539  97.1806953 146.5761708
  45.4182153  95.8845000 147.1548154  56.3058520  80.1853786 152.9877571
  55.6632900  80.4786319 152.3417365  55.8013448  80.0706706 153.7930767
  53.9598683  83.9316959 143.6763430  54.8716539  84.1644346 143.5011128
  53.4508330  84.5154003 143.1138509  52.5668266  88.9142777 151.0677012
  51.9377128  89.0788492 150.3653079  52.1793928  89.3284387 151.8387976
  56.4457498  89.8497215 148.4221375  55.7608536  90.2296117 147.8718409
  56.5301347  90.4592542 149.1553323  51.3034658  80.1074995 151.9253291
  50.4419137  80.4056249 152.2170029  51.3297093  80.3245394 150.9934324
  48.1196228  88.6517186 148.3327097  48.5834573  88.9304889 147.5431719
  47.8553026  87.7500630 148.1500187  45.0120309  88.1988667 151.2706860
  45.5821666  88.6275935 150.6324344  45.6028420  87.9171252 151.9691046
  47.0565114  84.7740338 145.1416662  47.7589157  85.2261382 145.6090588
  46.7245742  84.1324157 145.7696555  40.7990448  83.0323891 150.4433795
  40.0089502  83.2881419 149.9673906  41.2901695  83.8472228 150.5485836
  42.7505193  83.3968470 147.4017272  41.9536356  83.5087164 147.9200768
  42.5230785  83.7355122 146.5358163  62.9060250  86.7167878 149.5424048
  62.1523959  86.1475276 149.3868052  63.0407791  86.6830543 150.4894682
  48.2958878  91.5881281 145.2178767  48.1604553  92.4332816 145.6463615
  48.8368691  91.7900558 144.4544701  41.7488276  89.1056719 145.7906692
  42.2612796  89.8999969 145.9412257  42.4010988  88.4083009 145.7240294
  43.5583160  92.2222475 147.8729445  43.7349789  93.1440440 147.6850429
  44.3539994  91.9080894 148.3023825  39.7137192  87.4345373 146.5666263
  40.5512414  87.8442381 146.3499970  39.8915460  86.4944815 146.5366457
  51.6101624  85.1020454 142.2550096  51.0948248  85.8725058 142.4938483
  51.3378933  84.4285590 142.8783157  49.1948736  79.9470154 147.3135334
  48.3390332  79.5577005 147.1340973  49.6075687  80.0262115 146.4535119
  50.7247882  77.4816498 151.7126894  50.2212678  77.4446633 150.8994699
  51.0178489  78.3909240 151.7723550  56.5835899  87.8552808 144.1903269
  55.8065341  87.5163968 143.7458431  57.2627380  87.8605431 143.5158234
  51.3987928  82.9747546 144.0809877  51.0938063  83.2893695 144.9320020
  52.3518370  83.0528966 144.1237210  49.8434359  89.1337769 145.7302831
  49.3155721  88.3990529 145.4176068  49.3421862  89.9112445 145.4842799
  54.8227206  87.3286789 150.8469877  54.1650880  88.0186051 150.9350006
  55.6267605  87.7183221 151.1903863  44.5753087  79.7957435 148.0909442
  45.1496839  79.5732617 147.3582635  45.1624070  79.8646130 148.8438044
  53.6332664  85.6831162 148.8973819  54.1464546  86.3161154 149.3995529
  54.2833888  85.0832358 148.5317179  44.9022674  81.8261896 142.1105328
  44.0659986  82.1636583 142.4314602  44.7627444  81.6910876 141.1732465
  46.8775755  76.6698684 146.8184512  46.2240167  76.3547701 146.1941126
  46.8356229  76.0474425 147.5444335  47.9886960  86.9517979 138.7337804
  47.0814021  86.7207233 138.9328953  48.4857992  86.1555598 138.9211785
  50.8955039  95.6615486 141.6534490  50.2216737  95.9647183 142.2619448
  51.2820861  96.4644567 141.3039947  50.1113495  83.1580618 151.1432159
  49.1936057  83.3795565 150.9853847  50.5273639  83.2326928 150.2843867
  50.8948543  84.5572033 146.2734840  51.6420362  85.0693431 145.9641962
  51.1640132  84.2356086 147.1339233  49.1675193  87.0530574 143.2561794
  48.2586412  86.7689607 143.3534264  49.1970277  87.4729653 142.3965101
  54.3994461  90.6637164 147.0252961  53.9456788  89.8228073 147.0818152
  53.7688427  91.2998562 147.3627742  53.3427380  81.5929150 148.2553629
  52.6050137  81.0806536 148.5863871  53.5954154  81.1529531 147.4436906
  52.8427400  92.5013660 147.9602780  53.1350374  93.0618717 147.2415145
  53.3526020  92.7942221 148.7155939  53.4439007  74.3705402 148.8495398
  53.7497884  73.5102765 148.5621313  54.1691612  74.9623022 148.6494392
  39.7363363  84.7736088 147.2376996  39.5387763  84.1805449 146.5128063
  39.1810027  84.4688298 147.9552935  47.7160087  84.6659195 149.3571589
  47.7708697  83.7133031 149.2814066  46.9051289  84.8218634 149.8412888
  48.8651281  88.5939318 140.5949872  48.4270711  87.8775177 140.1355510
  49.6061722  88.8215433 140.0334964  45.6552447  83.2836254 147.1161968
  44.8420313  83.5830425 147.5227160  46.1511441  82.8891943 147.8336450
  47.8061025  93.2794011 149.0496233  47.7637204  93.5054858 148.1204765
  48.7223724  93.0457386 149.1982034  56.9824396  86.8696515 146.6526191
  56.8442294  87.0598111 145.7247380  56.6260615  87.6315898 147.1094242
  45.9226826  90.1557040 148.8458195  46.7167424  89.6607360 148.6440770
  45.2118518  89.6274903 148.4825901  42.2309589  84.3000122 144.9217948
  41.3007177  84.2384578 145.1387910  42.3267061  83.7776075 144.1254589
  42.1495138  80.8254935 147.5096190  42.4101956  81.7400268 147.4005350
  42.9712311  80.3579377 147.6592803  49.7009770  86.7035398 154.7557495
  50.6301830  86.8546558 154.5826462  49.2800800  86.7919419 153.9006141
  48.4998102  90.7286062 152.5256033  48.3609187  90.3604847 153.3981971
  47.7112698  91.2433702 152.3539990  49.0946254  95.8295159 143.8681569
  49.2698009  95.3583202 144.6827192  48.4079042  96.4560925 144.0962830
  50.0503317  90.1067665 149.9144870  49.7153149  90.0668435 150.8102520
  49.5507263  89.4412381 149.4415281  52.9862509  87.4523699 140.1881930
  52.3691679  86.7270528 140.0914983  52.5178997  88.2133060 139.8449004
  44.7761054  81.6709124 139.3103234  43.8990521  81.5497924 138.9465481
  45.2518808  80.8795202 139.0582123  47.9624980  94.0235414 146.5565755
  47.1792502  94.5657094 146.6503979  48.6617726  94.5409394 146.9559996
  51.2721631  79.8330044 149.1999960  51.7690330  79.0800006 148.8801030
  50.5008612  79.8694360 148.6343170  59.1251388  85.5370409 150.8418252
  59.1141264  86.4195124 150.4712185  58.2568767  85.1841960 150.6472789
  52.3551411  88.5901731 146.7738384  51.4207690  88.7103193 146.6043088
  52.5328080  87.6874197 146.5098393  47.8556599  81.9747426 148.9271645
  47.4854387  81.4218467 149.6152550  48.3515692  81.3705560 148.3746645
  55.7423963  84.4319050 147.3088418  56.2084415  85.2647042 147.2348720
  56.1931463  83.9664032 148.0133676  53.8100194  90.7762871 144.3074570
  54.0860038  90.6619466 145.2168444  52.9404692  90.3780356 144.2686743
  53.7140625  76.7999637 151.3479319  52.8003705  77.0303864 151.5161526
  54.1433727  76.8838081 152.1993351  53.4847084  84.9889529 153.8479213
  52.8318534  85.2365436 153.1931666  53.8627464  84.1753667 153.5141690
  50.4454258  95.0249222 147.9507383  50.6276652  94.2070878 148.4135136
  51.2687244  95.2416914 147.5132273  50.7796423  93.9517407 145.2122432
  51.3084190  93.4409862 144.5992594  51.0424643  93.6359937 146.0767965
  44.1352171  95.0032524 147.9720208  43.4662546  95.4878652 147.4884248
  43.9965041  95.2501744 148.8863586  39.5039748  83.2650979 144.7516140
  39.7993189  82.3561657 144.6983194  38.6027784  83.2438718 144.4297142
  43.0333995  81.3406975 150.7343689  42.3120581  81.9542943 150.5951162
  43.8227251  81.8764740 150.6560335  41.2327590  80.9465077 144.8755465
  40.9040296  80.0662455 144.6930571  41.5866961  80.8912745 145.7631854
  50.4807169  92.5819979 149.3850451  50.3332131  91.6536687 149.5658021
  51.3060662  92.6040070 148.9007526  44.3469413  81.2338046 145.2430943
  44.6865486  81.7623968 144.5209551  44.7941533  81.5718452 146.0189509
  46.3337560  79.7312668 143.4424236  47.0545923  80.1093921 142.9387952
  45.7102864  80.4501545 143.5459214  50.4768683  80.4357817 144.3782568
  50.6932297  81.3182455 144.0771396  49.9962750  80.0444030 143.6488210
  45.2167904  83.3943530 150.9553312  45.0712485  83.7083833 151.8477594
  44.7393108  84.0128430 150.4024211  47.0764287  80.3846078 151.0034202
  47.0625856  79.4887171 150.6666500  47.7936715  80.3916742 151.6372488
  53.8736607  93.9234205 145.8277415  54.0473484  93.3580628 145.0751267
  54.3665498  94.7235100 145.6456905  46.4801183  79.2660458 146.2721772
  46.6017094  78.3377105 146.4712660  46.1903226  79.2799144 145.3600088
  49.3492374  76.9515369 149.4088492  49.3714070  77.0154702 148.4540472
  49.7660433  76.1119878 149.6028998  59.7275998  86.6870628 147.4467715
  60.1707144  85.9377954 147.0486838  58.8502508  86.6780765 147.0641447
  54.8611779  93.2400970 142.9274313  55.5562684  93.8607663 143.1461628
  55.2034929  92.3896321 143.2026691  56.7603202  90.6900675 144.4561644
  57.2854526  91.0287948 143.7310964  56.6725555  89.7547691 144.2724779
  48.4443863  96.7572659 148.8156897  48.0048853  96.2649037 149.5089754
  49.1951980  96.2145626 148.5748972  45.8917735  92.3010668 150.8879199
  45.2697745  91.6381373 150.5881427  46.5622602  92.3271800 150.2052847
  45.4531242  90.8514591 144.3637659  45.6019363  91.5350056 143.7104332
  46.2597686  90.8319681 144.8787115  59.2708863  88.1575867 149.8390162
  60.1055754  88.5965671 150.0027723  59.4067991  87.6814520 149.0198408
  43.2083875  86.8779769 145.3698728  42.9629917  85.9742099 145.5678938
  43.3779790  86.8796919 144.4278206  42.4779523  82.6108126 142.8684890
  41.7848768  82.6852481 142.2124926  42.2331275  81.8468470 143.3906407
  48.9526648  93.3462722 141.8349407  48.3800615  93.9652909 141.3819879
  49.5259441  93.8962083 142.3689329  55.0202038  82.5921362 154.0195956
  55.9719460  82.6919459 154.0408180  54.8505488  81.7999630 154.5294040
  53.0416417  79.6776945 154.2055356  52.4466349  79.9581958 153.5101845
  52.7566114  80.1670846 154.9772098  52.1723908  93.6299872 142.9657989
  53.1054581  93.5645433 143.1690865  52.0847120  94.4656139 142.5072522
  54.8011924  92.9465742 139.9261937  54.7225556  92.6125606 140.8197694
  55.6221591  93.4387510 139.9253409  57.4990115  85.8127481 153.1338255
  57.4666435  84.8743482 153.3197939  58.1090739  85.8911518 152.4004080
  49.3373446  84.6823534 139.1765459  50.2832551  84.5529742 139.2453877
  48.9587691  83.9438196 139.6534887  57.6484604  82.6038525 153.1796538
  57.1323653  81.8196981 152.9926467  58.5324552  82.2757241 153.3443058
  55.3095331  76.3479540 149.1392351  55.1120152  76.0394629 150.0235683
  55.9195036  77.0741179 149.2690281  47.5216363  82.6073511 139.1120344
  46.6147819  82.3106623 139.1883058  47.7992344  82.3103329 138.2454631
  38.4394304  83.9279874 149.5619391  38.1197088  83.0745182 149.2693765
  37.8927732  84.1428452 150.3177358  49.1378429  77.1510400 145.2664586
  48.3279157  76.8057485 145.6419832  49.8262846  76.8417944 145.8552197
  51.0668977  76.2288447 146.8888882  51.6200016  76.6483901 147.5478905
  51.3039064  75.3024195 146.9311838  46.2915148  79.4660446 139.2532324
  47.1534312  79.7915344 139.5128141  46.4765492  78.6791942 138.7405389
  54.4447784  78.3388972 146.3967547  53.8646454  78.9973776 146.0145599
  54.1783717  77.5166317 145.9854964  52.8951351  77.7394030 148.5988867
  53.3951129  77.8510565 147.7903186  53.5386959  77.4355083 149.2389675
  40.2219306  87.4801039 149.4078527  40.1989994  87.5788727 148.4560410
  40.5319943  88.3266190 149.7295693  53.2272663  80.4989063 145.4523895
  52.3398518  80.7838713 145.2344090  53.6426652  80.3382826 144.6051172
  56.5787199  80.5235584 149.1678234  57.3547589  81.0132036 149.4402851
  55.8535333  80.9493638 149.6250104  59.0159757  81.2363203 150.2252175
  59.6104248  80.9958939 149.5145483  59.0886341  80.5170334 150.8525711
  52.3715876  90.2633737 139.5471915  53.0751726  90.4683740 140.1629571
  51.6478525  90.8310499 139.8120998  53.2013686  86.0143599 145.6674185
  53.1448888  86.4712150 144.8281817  53.7542029  85.2534283 145.4897028
  57.0118492  81.8033331 146.4924305  56.7555426  81.4029966 147.3232512
  56.3871360  82.5177125 146.3674444  61.3230830  84.5429404 148.9995596
  60.7630388  84.6122593 149.7727158  60.7174333  84.3670388 148.2795092
  54.2802573  90.7016267 141.5970375  55.1148177  90.2697465 141.4147850
  54.1186916  90.5298280 142.5247269  53.9348466  87.2048380 142.9626714
  53.8797269  87.0392651 142.0215158  53.3094521  87.9124413 143.1188904
  47.2444591  76.7056489 142.5412033  47.2323261  77.6498329 142.6980304
  48.1368013  76.5226634 142.2471494  47.1734155  95.3825379 150.6279789
  46.2229786  95.3827241 150.5144162  47.4766641  94.6358114 150.1115824
  51.0596710  73.2999266 146.7957969  50.2929106  72.7457752 146.9414652
  51.4707415  73.3721134 147.6572121  57.4184834  99.9401593 140.9604016
  57.6710355  99.4183115 140.1987480  56.4809393  99.7767739 141.0630700
  57.1381123 101.8429699 143.1628391  57.0217381 101.1674603 143.8309476
  57.2483383 101.3562073 142.3460545  59.1218151  96.3329746 141.8636429
  59.2892553  97.2009982 142.2306900  58.9315320  96.4957028 140.9397718
  59.1007372  98.7887403 142.8483096  58.9806997  99.2344454 143.6868576
  58.4059960  99.1372721 142.2896634  53.5898947  98.7260387 147.4017272
  52.7930111  98.8379082 147.9200768  53.3624540  99.0647040 146.5358163
  62.4495379 100.4312371 142.2550096  61.9342002 101.2016976 142.4938483
  62.1772687  99.7577507 142.8783157  55.7416429  97.1553814 142.1105328
  54.9053741  97.4928500 142.4314602  55.6021198  97.0202794 141.1732465
  57.7169509  91.9990602 146.8184512  57.0633922  91.6839619 146.1941126
  57.6749983  91.3766342 147.5444335  58.8280714 102.2809897 138.7337804
  57.9207776 102.0499150 138.9328953  59.3251746 101.4847516 138.9211785
  50.5757118 100.1028006 147.2376996  50.3781518  99.5097367 146.5128063
  50.0203782  99.7980216 147.9552935  59.7045035 103.9231235 140.5949872
  59.2664465 103.2067094 140.1355510  60.4455476 104.1507350 140.0334964
  53.0703344  99.6292040 144.9217948  52.1400932  99.5676495 145.1387910
  53.1660816  99.1067993 144.1254589  52.9888893  96.1546853 147.5096190
  53.2495710  97.0692186 147.4005350  53.8106065  95.6871295 147.6592803
  63.8256263 102.7815617 140.1881930  63.2085434 102.0562445 140.0914983
  63.3572751 103.5424977 139.8449004  55.6154809  97.0001041 139.3103234
  54.7384275  96.8789842 138.9465481  56.0912562  96.2087120 139.0582123
  50.3433503  98.5942897 144.7516140  50.6386944  97.6853575 144.6983194
  49.4421539  98.5730636 144.4297142  52.0721344  96.2756994 144.8755465
  51.7434051  95.3954373 144.6930571  52.4260715  96.2204663 145.7631854
  55.1863168  96.5629964 145.2430943  55.5259240  97.0915885 144.5209551
  55.6335288  96.9010370 146.0189509  57.1731315  95.0604586 143.4424236
  57.8939677  95.4385838 142.9387952  56.5496619  95.7793462 143.5459214
  61.3162438  95.7649735 144.3782568  61.5326052  96.6474372 144.0771396
  60.8356505  95.3735948 143.6488210  57.3194938  94.5952376 146.2721772
  57.4410849  93.6669022 146.4712660  57.0296980  94.6091062 145.3600088
  54.0477630 102.2071686 145.3698728  53.8023672 101.3034016 145.5678938
  54.2173544 102.2088837 144.4278206  53.3173277  97.9400044 142.8684890
  52.6242522  98.0144399 142.2124926  53.0725029  97.1760388 143.3906407
  60.1767201 100.0115452 139.1765459  61.1226305  99.8821660 139.2453877
  59.7981446  99.2730114 139.6534887  58.3610118  97.9365428 139.1120344
  57.4541573  97.6398541 139.1883058  58.6386099  97.6395246 138.2454631
  59.9772184  92.4802318 145.2664586  59.1672912  92.1349403 145.6419832
  60.6656601  92.1709862 145.8552197  61.9062732  91.5580365 146.8888882
  62.4593770  91.9775818 147.5478905  62.1432818  90.6316113 146.9311838
  57.1308903  94.7952364 139.2532324  57.9928066  95.1207262 139.5128141
  57.3159247  94.0083859 138.7405389  58.0838346  92.0348407 142.5412033
  58.0717015  92.9790247 142.6980304  58.9761767  91.8518552 142.2471494
  61.8990465  88.6291183 146.7957969  61.1322861  88.0749670 146.9414652
  62.3101170  88.7013052 147.6572121  39.4775421  53.0398077 129.6543739
  38.8263401  53.6252158 129.2677753  40.2719784  53.5704272 129.7138776
  35.7397326  46.2879880 127.6849323  35.9922847  45.7661402 126.9232786
  34.8021886  46.1246026 127.7876007  40.9550687  50.7288509 130.1912723
  40.3196520  50.8023136 130.9033628  40.6248093  51.3182108 129.5131802
  35.1826756  57.9069332 133.2218534  35.1050786  58.8577158 133.3007014
  34.5788400  57.5615205 133.8793460  43.1204930  45.6087164 130.4008737
  44.0322786  45.8414551 130.2256434  42.6114577  46.1924208 129.8383815
  45.6063744  51.5267420 135.1466682  44.9214782  51.9066322 134.5963715
  45.6907594  52.1362747 135.8798630  37.4565125  53.2651485 131.9424074
  37.3210800  54.1103021 132.3708921  37.9974937  53.4670763 131.1790007
  40.7707871  46.7790658 128.9795402  40.2554495  47.5495263 129.2183790
  40.4985180  46.1055795 129.6028464  45.7442145  49.5323013 130.9148576
  44.9671588  49.1934173 130.4703738  46.4233626  49.5375636 130.2403541
  37.1493206  48.6288184 125.4583110  36.2420268  48.3977438 125.6574259
  37.6464238  47.8325803 125.6457092  40.0561285  57.3385691 128.3779797
  39.3822984  57.6417388 128.9864754  40.4427107  58.1414772 128.0285254
  38.3281440  48.7300779 129.9807101  37.4192659  48.4459812 130.0779570
  38.3576524  49.1499858 129.1210407  43.5600707  52.3407368 133.7498268
  43.1063034  51.4998278 133.8063459  42.9294674  52.9768767 134.0873048
  42.0033647  54.1783865 134.6848086  42.2956621  54.7388922 133.9660452
  42.5132267  54.4712426 135.4401245  38.0257528  50.2709523 127.3195179
  37.5876958  49.5545382 126.8600816  38.7667969  50.4985637 126.7580270
  46.1430642  48.5466720 133.3771498  46.0048541  48.7368316 132.4492687
  45.7866861  49.3086103 133.8339549  38.2552500  57.5065364 130.5926876
  38.4304256  57.0353407 131.4072498  37.5685288  58.1331130 130.8208136
  42.1468755  49.1293904 126.9127237  41.5297926  48.4040732 126.8160289
  41.6785244  49.8903265 126.5694311  37.1231227  55.7005619 133.2811061
  36.3398749  56.2427299 133.3749286  37.8223972  56.2179599 133.6805303
  42.9706441  52.4533076 131.0319876  43.2466284  52.3389671 131.9413750
  42.1010939  52.0550561 130.9932050  39.6060505  56.7019427 134.6752690
  39.7882899  55.8841083 135.1380442  40.4293491  56.9187119 134.2377580
  39.9402670  55.6287612 131.9367739  40.4690436  55.1180067 131.3237901
  40.2030890  55.3130142 132.8013272  43.0342854  55.6004410 132.5522722
  43.2079731  55.0350833 131.7996574  43.5271745  56.4005305 132.3702211
  48.8882245  48.3640833 134.1713021  49.3313391  47.6148159 133.7732145
  48.0108755  48.3550970 133.7886753  44.0218026  54.9171175 129.6519620
  44.7168931  55.5377867 129.8706934  44.3641176  54.0666526 129.9271998
  45.9209449  52.3670880 131.1806951  46.4460773  52.7058153 130.4556271
  45.8331802  51.4317896 130.9970085  34.6137489  52.5284796 131.0882966
  34.7625609  53.2120260 130.4349639  35.4203932  52.5089886 131.6032422
  38.1132894  55.0232926 128.5594713  37.5406862  55.6423114 128.1065185
  38.6865688  55.5732288 129.0934635  41.3330154  55.3070077 129.6903296
  42.2660827  55.2415638 129.8936171  41.2453367  56.1426343 129.2317828
  43.9618171  54.6235947 126.6507243  43.8831802  54.2895811 127.5443001
  44.7827838  55.1157715 126.6498716  38.4979693  46.3593739 125.9010766
  39.4438798  46.2299947 125.9699184  38.1193938  45.6208401 126.3780194
  36.6822610  44.2843716 125.8365651  35.7754066  43.9876828 125.9128365
  36.9598591  43.9873534 124.9699937  41.5322123  51.9403942 126.2717222
  42.2357973  52.1453945 126.8874877  40.8084772  52.5080704 126.5366305
  43.4408820  52.3786472 128.3215682  44.2754424  51.9467670 128.1393156
  43.2793163  52.2068485 129.2492576  43.0954712  48.8818585 129.6872021
  43.0403516  48.7162856 128.7460465  42.4700768  49.5894618 129.8434211
  52.0693095  62.8956123 138.4170858  52.7071505  62.7762870 137.7134198
  51.9513938  63.8436967 138.4758810  48.8782802  62.8483551 138.3532383
  48.5401313  62.7324615 137.4652918  49.7472570  62.4474716 138.3333389
  44.7369617  64.7019027 134.3429274  44.1734482  64.6108964 133.5745562
  44.6222012  63.8818932 134.8231767  42.2834049  66.1970219 137.1813494
  43.0755341  65.8561043 136.7659794  42.5230699  66.3065194 138.1015648
  50.3169176  68.3689995 129.6543739  49.6657156  68.9544075 129.2677753
  51.1113539  68.8996190 129.7138776  44.2424803  65.4579132 130.0530873
  45.0155679  64.9108119 129.9143749  44.5950202  66.3223381 130.2645335
  46.0809846  66.7855514 143.2597773  45.7899712  67.6901145 143.1444439
  46.7166830  66.8272042 143.9741842  47.0066053  64.1632363 139.8499132
  47.6029625  63.9388385 139.1356095  47.0641024  63.4217108 140.4524580
  51.6234364  60.6207577 135.4924066  52.4097453  60.2027000 135.1414483
  51.8873068  61.5253669 135.6605715  51.7944441  66.0580427 130.1912723
  51.1590274  66.1315053 130.9033628  51.4641847  66.6474026 129.5131802
  57.0242791  60.5582810 136.3957045  57.7567963  59.9882027 136.6294874
  56.2682147  60.1704410 136.8363550  46.2987370  63.5199904 129.8873698
  46.1823628  62.8444807 130.5554782  46.4089630  63.0332278 129.0705851
  48.6418911  62.9810051 133.5920387  48.2777118  62.4540672 134.3033309
  49.4986026  62.5908520 133.4186873  51.0399731  66.4716930 140.2547566
  50.7400454  67.3741969 140.1463373  50.6950790  66.2049113 141.1068719
  44.4912212  62.9230727 136.2884271  43.5662709  62.7906941 136.4961962
  44.7396625  63.7024946 136.7854213  54.4396875  58.9899470 137.9345004
  53.5313752  58.9214878 137.6403765  54.3884470  59.4671415 138.7626829
  41.8521023  62.5664000 137.1228060  41.9813404  62.8198479 138.0367471
  41.1718475  63.1591708 136.8032715  46.0220511  73.2361250 133.2218534
  45.9444540  74.1869075 133.3007014  45.4182154  72.8907123 133.8793460
  56.3058521  57.1915908 139.7122877  55.6632901  57.4848442 139.0662672
  55.8013449  57.0768829 140.5176074  52.2439452  65.3603709 144.0370029
  52.6522808  64.9186120 143.2924662  51.5216714  64.7856337 144.2904222
  52.5668267  65.9204900 137.7922318  51.9377129  66.0850614 137.0898386
  52.1793929  66.3346510 138.5633282  56.4457499  66.8559338 135.1466682
  55.7608537  67.2358239 134.5963715  56.5301348  67.4654665 135.8798630
  53.7008430  64.5019297 141.7462025  53.9125326  65.1451057 141.0696407
  53.6538179  63.6681613 141.2783956  51.3034659  57.1137118 138.6498598
  50.4419138  57.4118371 138.9415335  51.3297094  57.3307516 137.7179630
  48.1196229  65.6579308 135.0572403  48.5834574  65.9367011 134.2677026
  47.8553027  64.7562753 134.8745494  45.0120310  65.2050790 137.9952167
  45.5821667  65.6338058 137.3569651  45.6028422  64.9233374 138.6936352
  47.0565115  61.7802461 131.8661968  47.7589158  62.2323504 132.3335895
  46.7245743  61.1386279 132.4941862  40.7990449  60.0386013 137.1679102
  40.0089503  60.2943542 136.6919213  41.2901696  60.8534351 137.2731143
  54.8154258  67.3791252 139.9184383  55.6371702  66.9771440 139.6367064
  54.8116661  67.2759487 140.8700499  42.7505194  60.4030592 134.1262579
  41.9536357  60.5149287 134.6446074  42.5230786  60.7417245 133.2603469
  48.5810862  66.9275296 142.0745093  48.6455294  67.3895703 142.9103265
  47.8721786  66.2972661 142.2027403  62.9060251  63.7230001 136.2669354
  62.1523960  63.1537399 136.1113359  63.0407793  63.6892665 137.2139989
  48.2958879  68.5943403 131.9424074  48.1604554  69.4394939 132.3708921
  48.8368692  68.7962681 131.1790007  41.7488277  66.1118841 132.5151999
  42.2612797  66.9062091 132.6657563  42.4010990  65.4145132 132.4485600
  43.5583162  69.2284597 134.5974752  43.7349790  70.1502562 134.4095736
  44.3539995  68.9143017 135.0269132  49.9227356  69.2166970 146.0724416
  49.4791210  68.4303348 145.7545320  50.5844569  69.4046120 145.4068307
  44.6814477  70.7462771 140.5985094  45.2321902  70.6179835 139.8262088
  43.8425953  71.0457660 140.2479987  52.0208594  69.4969770 144.1005817
  52.0027069  70.3178651 143.6086086  52.9428514  69.3723845 144.3255958
  39.7137194  64.4407495 133.2911569  40.5512416  64.8504504 133.0745277
  39.8915461  63.5006938 133.2611763  49.1948737  56.9532277 134.0380641
  48.3390333  56.5639127 133.8586279  49.6075689  57.0324238 133.1780426
  50.7247883  54.4878620 138.4372200  50.2212679  54.4508755 137.6240006
  51.0178490  55.3971363 138.4968857  56.5835900  64.8614931 130.9148576
  55.8065343  64.5226090 130.4703738  57.2627381  64.8667554 130.2403541
  51.3987929  59.9809668 130.8055183  51.0938064  60.2955817 131.6565327
  52.3518371  60.0591088 130.8482516  49.8434361  66.1399892 132.4548137
  49.3155722  65.4052651 132.1421375  49.3421863  66.9174568 132.2088106
  54.8227207  64.3348912 137.5715184  54.1650881  65.0248173 137.6595312
  55.6267606  64.7245344 137.9149170  44.5753088  56.8019558 134.8154749
  45.1496840  56.5794739 134.0827942  45.1624071  56.8708252 135.5683350
  53.6332666  62.6893285 135.6219125  54.1464547  63.3223277 136.1240835
  54.2833889  62.0894480 135.2562485  46.8775756  53.6760807 133.5429818
  46.2240168  53.3609824 132.9186433  46.8356230  53.0536547 134.2689641
  50.8955040  72.6677609 128.3779797  50.2216739  72.9709306 128.9864754
  51.2820862  73.4706689 128.0285254  50.1113496  60.1642740 137.8677466
  49.1936058  60.3857687 137.7099154  50.5273640  60.2389051 137.0089173
  50.8948544  61.5634156 132.9980146  51.6420363  62.0755553 132.6887268
  51.1640134  61.2418209 133.8584540  49.1675194  64.0592697 129.9807101
  48.2586414  63.7751729 130.0779570  49.1970278  64.4791775 129.1210407
  54.3994462  67.6699286 133.7498268  53.9456789  66.8290196 133.8063459
  53.7688428  68.3060685 134.0873048  53.3427381  58.5991272 134.9798936
  52.6050138  58.0868658 135.3109178  53.5954155  58.1591654 134.1682212
  52.8427401  69.5075783 134.6848086  53.1350375  70.0680840 133.9660452
  53.3526022  69.8004344 135.4401245  53.4439009  51.3767524 135.5740705
  53.7497885  50.5164888 135.2866620  54.1691613  51.9685144 135.3739699
  39.7363365  61.7798211 133.9622303  39.5387765  61.1867571 133.2373369
  39.1810029  61.4750421 134.6798242  47.7160088  61.6721317 136.0816896
  47.7708698  60.7195154 136.0059372  46.9051290  61.8280756 136.5658194
  45.6552448  60.2898377 133.8407275  44.8420314  60.5892548 134.2472467
  46.1511443  59.8954066 134.5581757  47.8061026  70.2856134 135.7741539
  47.7637205  70.5116980 134.8450071  48.7223725  70.0519509 135.9227341
  56.9824397  63.8758637 133.3771498  56.8442296  64.0660233 132.4492687
  56.6260616  64.6378020 133.8339549  57.0093777  65.9435164 138.3882769
  57.4430283  65.8510453 139.2365823  57.7225357  65.9192665 137.7502785
  45.9226827  67.1619163 135.5703502  46.7167425  66.6669483 135.3686077
  45.2118519  66.6337026 135.2071208  50.7421671  69.5437258 139.9215870
  50.7958694  70.1128195 140.6893586  49.8736453  69.7139144 139.5569907
  42.2309590  61.3062245 131.6463255  41.3007179  61.2446700 131.8633217
  42.3267062  60.7838197 130.8499896  42.1495140  57.8317058 134.2341496
  42.4101957  58.7462391 134.1250657  42.9712312  57.3641500 134.3838109
  57.8709326  65.9858865 140.9215655  58.0645216  66.8904676 141.1674929
  57.7709944  65.5266284 141.7554240  52.9324435  66.1365608 146.4956535
  52.7809941  65.9076159 145.5786619  52.9229114  67.0936209 146.5087880
  49.7009771  63.7097521 141.4802802  50.6301831  63.8608680 141.3071769
  49.2800801  63.7981541 140.6251448  48.4998103  67.7348185 139.2501339
  48.3609189  67.3666969 140.1227277  47.7112699  68.2495824 139.0785297
  49.0946255  72.8357281 130.5926876  49.2698011  72.3645325 131.4072498
  48.4079043  73.4623048 130.8208136  50.0503318  67.1129788 136.6390177
  49.7153151  67.0730558 137.5347827  49.5507264  66.4474504 136.1660587
  54.6416641  69.1684730 144.5733017  54.5829188  68.4843950 143.9063600
  55.0436160  69.9103720 144.1213643  43.6607340  75.9846644 137.3666736
  43.9003938  76.6165168 138.0445754  42.8176537  75.6334684 137.6532095
  54.6434049  67.1324314 142.8046997  53.7560827  66.7950236 142.9273396
  55.2132600  66.4007345 143.0415762  36.2963196  63.4648406 136.1290048
  36.9834236  63.1510136 135.5411063  36.1411325  64.3689771 135.8557300
  48.1735202  71.7925767 139.7708240  48.1005374  72.5980738 140.2827544
  47.7312595  71.9917732 138.9456261  47.9624982  71.0297537 133.2811061
  47.1792504  71.5719217 133.3749286  48.6617727  71.5471516 133.6805303
  51.2721632  56.8392166 135.9245267  51.7690331  56.0862128 135.6046337
  50.5008613  56.8756483 135.3588476  59.1251389  62.5432532 137.5663558
  59.1141265  63.4257247 137.1957491  58.2568769  62.1904082 137.3718095
  50.6333886  71.6912601 141.9266399  51.3461858  72.3260065 141.8542300
  50.1423914  71.7876467 141.1106400  52.3551413  65.5963853 133.4983690
  51.4207691  65.7165316 133.3288395  52.5328081  64.6936320 133.2343700
  47.8556601  58.9809549 135.6516951  47.4854388  58.4280589 136.3397857
  48.3515693  58.3767683 135.0991951  55.7423964  61.4381173 134.0333724
  56.2084416  62.2709164 133.9594027  56.1931464  60.9726154 134.7378983
  45.6845799  69.4407044 142.7471969  46.3855259  70.0743527 142.9001364
  45.2140914  69.7821776 141.9867609  53.8100195  67.7824994 131.0319876
  54.0860039  67.6681588 131.9413750  52.9404694  67.3842479 130.9932050
  53.7140627  53.8061760 138.0724626  52.8003706  54.0365986 138.2406833
  54.1433728  53.8900204 138.9238658  53.4847085  61.9951652 140.5724520
  52.8318535  62.2427559 139.9176972  53.8627465  61.1815790 140.2386997
  50.4454259  72.0311345 134.6752690  50.6276654  71.2133001 135.1380442
  51.2687245  72.2479037 134.2377580  50.7796425  70.9579530 131.9367739
  51.3084191  70.4471984 131.3237901  51.0424644  70.6422060 132.8013272
  41.2813517  68.9743399 139.6803072  41.8666954  68.2287087 139.8130976
  41.0838356  69.2847356 140.5639736  44.1352172  72.0094647 134.6965514
  43.4662548  72.4940774 134.2129555  43.9965042  72.2563867 135.6108893
  48.2757441  74.0438390 141.2948173  48.8275749  74.2070012 142.0597258
  48.6163634  74.6342828 140.6228198  53.1268315  68.8699648 147.1496827
  53.6708219  69.4829606 146.6551782  52.5455160  69.4279226 147.6663840
  39.5039750  60.2713102 131.4761447  39.7993191  59.3623780 131.4228500
  38.6027785  60.2500841 131.1542449  51.4125828  71.9920366 138.2811855
  51.2876968  71.1910105 137.7722800  52.0704919  72.4866559 137.7925825
  43.0333997  58.3469098 137.4588995  42.3120582  58.9605066 137.3196469
  43.8227252  58.8826863 137.3805641  53.4760737  69.7929386 139.9091405
  52.5291072  69.6734737 139.8369732  53.8243510  68.9051884 139.9917666
  41.2327591  57.9527199 131.6000772  40.9040297  57.0724578 131.4175878
  41.5866962  57.8974868 132.4877161  50.4807170  69.5882102 136.1095757
  50.3332132  68.6598809 136.2903327  51.3060664  69.6102193 135.6252833
  44.3469414  58.2400169 131.9676249  44.6865487  58.7686090 131.2454858
  44.7941535  58.5780575 132.7434816  54.0841292  70.4110661 137.1960630
  55.0087839  70.2053522 137.0585081  53.9156595  70.1627062 138.1049972
  50.4768684  57.4419940 131.1027875  50.6932299  58.3244577 130.8016703
  49.9962751  57.0506153 130.3733517  45.2167906  60.4005653 137.6798619
  45.0712486  60.7145956 138.5722901  44.7393109  61.0190553 137.1269518
  47.0764289  57.3908201 137.7279509  47.0625857  56.4949294 137.3911807
  47.7936717  57.3978864 138.3617795  53.8736608  70.9296328 132.5522722
  54.0473486  70.3642751 131.7996574  54.3665499  71.7297223 132.3702211
  46.4801185  56.2722581 132.9967079  46.6017096  55.3439227 133.1957966
  46.1903227  56.2861267 132.0845394  49.3492375  53.9577491 136.1333799
  49.3714072  54.0216825 135.1785778  49.7660434  53.1182000 136.3274305
  59.7275999  63.6932751 134.1713021  60.1707145  62.9440076 133.7732145
  58.8502510  63.6842887 133.7886753  54.8611781  70.2463092 129.6519620
  55.5562685  70.8669785 129.8706934  55.2034931  69.3958444 129.9271998
  56.7603204  67.6962798 131.1806951  57.2854528  68.0350071 130.4556271
  56.6725556  66.7609813 130.9970085  48.4223252  71.6096872 143.3096827
  48.7310379  71.3646018 144.1819527  49.2198734  71.8143510 142.8215697
  48.4443864  73.7634781 135.5402204  48.0048855  73.2711160 136.2335060
  49.1951981  73.2207749 135.2994279  40.9236203  69.9546322 135.5426832
  41.7494223  69.6550094 135.1625475  40.5730255  69.1853945 135.9916620
  45.8917737  69.3072790 137.6124505  45.2697746  68.6443495 137.3126733
  46.5622603  69.3333922 136.9298153  39.1244808  67.8732649 136.5015765
  38.2876717  67.4454823 136.3199767  39.0968454  68.0665092 137.4386557
  56.4497110  68.3295702 146.4858149  55.6592653  68.3119840 145.9462648
  56.2130464  68.8683995 147.2407185  56.5694985  65.1788168 143.7990877
  56.6192990  65.0138175 144.7406400  56.4608908  64.3115427 143.4088758
  45.4531243  67.8576714 131.0882966  45.6019364  68.5412178 130.4349639
  46.2597687  67.8381804 131.6032422  58.0713182  67.5985110 144.0432899
  57.7797990  67.9615090 144.8796360  57.4585313  66.8852118 143.8646231
  59.2708864  65.1637989 136.5635469  60.1055755  65.6027793 136.7273029
  59.4067993  64.6876643 135.7443715  56.3200370  62.7217724 142.5112957
  56.7954491  62.9145370 141.7031808  55.3965935  62.7776910 142.2656340
  43.2083876  63.8841891 132.0944035  42.9629918  62.9804221 132.2924245
  43.3779791  63.8859042 131.1523513  42.4779524  59.6170249 129.5930196
  41.7848769  59.6914604 128.9370232  42.2331276  58.8530593 130.1151713
  48.9526649  70.3524844 128.5594713  48.3800616  70.9715031 128.1065185
  49.5259443  70.9024206 129.0934635  55.0202039  59.5983484 140.7441262
  55.9719462  59.6981582 140.7653486  54.8505489  58.8061753 141.2539347
  53.0416418  56.6839067 140.9300663  52.4466350  56.9644080 140.2347152
  52.7566115  57.1732968 141.7017404  52.1723909  70.6361994 129.6903296
  53.1054582  70.5707556 129.8936171  52.0847122  71.4718261 129.2317828
  54.8011925  69.9527865 126.6507243  54.7225557  69.6187728 127.5443001
  55.6221592  70.4449633 126.6498716  57.4990117  62.8189604 139.8583562
  57.4666437  61.8805605 140.0443246  58.1090740  62.8973641 139.1249387
  57.6484605  59.6100647 139.9041845  57.1323654  58.8259104 139.7171774
  58.5324554  59.2819364 140.0688364  55.3095332  53.3541663 135.8637658
  55.1120153  53.0456751 136.7480990  55.9195038  54.0803302 135.9935588
  63.3166666  63.8805611 138.9989599  64.0470055  63.6190899 139.5597302
  62.7073612  63.1434333 139.0391667  61.3981964  62.0213473 139.5964050
  60.6715127  61.8869438 138.9880541  60.9829250  62.3290302 140.4020768
  38.4394305  60.9341997 136.2864697  38.1197089  60.0807305 135.9939071
  37.8927733  61.1490575 137.0422665  42.2174213  63.6504438 140.0034204
  42.4360222  64.5821546 140.0222238  42.6299986  63.2912412 140.7889008
  49.1378430  54.1572523 131.9909892  48.3279159  53.8119608 132.3665138
  49.8262847  53.8480067 132.5797504  51.0668979  53.2350570 133.6134189
  51.6200017  53.6546023 134.2724212  51.3039065  52.3086318 133.6557145
  38.3082565  64.5544908 138.2557819  37.6146036  64.1398861 137.7427773
  39.0555556  64.5965445 137.6591238  54.4447786  55.3451095 133.1212853
  53.8646455  56.0035899 132.7390906  54.1783718  54.5228440 132.7100271
  52.8951352  54.7456153 135.3234174  53.3951130  54.8572687 134.5148492
  53.5386960  54.4417206 135.9634982  40.2219308  64.4863162 136.1323834
  40.1989996  64.5850849 135.1805717  40.5319944  65.3328313 136.4541000
  42.8806685  66.5439317 140.2470448  43.8349939  66.5123259 140.1800380
  42.6819209  66.0829941 141.0620674  53.2272664  57.5051185 132.1769202
  52.3398519  57.7900836 131.9589396  53.6426653  57.3444949 131.3296478
  56.5787200  57.5297706 135.8923541  57.3547590  58.0194159 136.1648158
  55.8535334  57.9555761 136.3495410  59.0159759  58.2425326 136.9497481
  59.6104249  58.0021062 136.2390790  59.0886342  57.5232456 137.5771018
  41.2356914  72.0858937 137.2640646  41.1011382  71.3259337 136.6978644
  40.8188976  72.8099836 136.7969435  52.3715877  67.2695860 126.2717222
  53.0751727  67.4745863 126.8874877  51.6478526  67.8372622 126.5366305
  53.2013688  63.0205721 132.3919492  53.1448889  63.4774273 131.5527124
  53.7542030  62.2596406 132.2142334  57.0118493  58.8095453 133.2169611
  56.7555428  58.4092089 134.0477819  56.3871361  59.5239247 133.0919750
  61.3230831  61.5491526 135.7240903  60.7630389  61.6184716 136.4972465
  60.7174335  61.3732511 135.0040399  44.3926040  72.9828254 137.4759089
  44.2758424  73.9273686 137.3737779  43.5718486  72.6801815 137.8644888
  54.2802575  67.7078389 128.3215682  55.1148179  67.2759588 128.1393156
  54.1186918  67.5360403 129.2492576  45.4180554  73.6356515 140.6915017
  46.3207801  73.6680126 141.0081512  45.1917924  72.7056966 140.7061353
  47.1734156  72.3887502 137.3525096  46.2229787  72.3889364 137.2389468
  47.4766642  71.6420237 136.8361131  51.0596712  50.3061388 133.5203276
  50.2929108  49.7519875 133.6659958  51.4707417  50.3783257 134.3817428
  62.9086850  78.2248040 138.4170858  63.5465260  78.1054788 137.7134198
  62.7907693  79.1728884 138.4758810  59.7176556  78.1775468 138.3532383
  59.3795068  78.0616533 137.4652918  60.5866324  77.7766634 138.3333389
  55.5763372  80.0310945 134.3429274  55.0128237  79.9400882 133.5745562
  55.4615767  79.2110849 134.8231767  60.1996339  79.3310320 144.3118589
  60.1884980  78.9363118 143.4399092  60.3616978  78.5976393 144.9052360
  53.1227804  81.5262136 137.1813494  53.9149096  81.1852961 136.7659794
  53.3624454  81.6357112 138.1015648  61.1562930  83.6981913 129.6543739
  60.5050910  84.2835993 129.2677753  61.9507293  84.2288107 129.7138776
  55.0818558  80.7871050 130.0530873  55.8549434  80.2400037 129.9143749
  55.4343956  81.6515299 130.2645335  56.9203600  82.1147432 143.2597773
  56.6293466  83.0193063 143.1444439  57.5560584  82.1563960 143.9741842
  57.8459807  79.4924281 139.8499132  58.4423379  79.2680303 139.1356095
  57.9034779  78.7509026 140.4524580  57.4184835  76.9463716 127.6849323
  57.6710356  76.4245237 126.9232786  56.4809394  76.7829861 127.7876007
  62.4628118  75.9499494 135.4924066  63.2491207  75.5318917 135.1414483
  62.7266823  76.8545586 135.6605715  62.6338196  81.3872345 130.1912723
  61.9984029  81.4606971 130.9033628  62.3035602  81.9765943 129.5131802
  67.8636545  75.8874727 136.3957045  68.5961717  75.3173944 136.6294874
  67.1075901  75.4996328 136.8363550  57.1381124  78.8491822 129.8873698
  57.0217382  78.1736725 130.5554782  57.2483384  78.3624196 129.0705851
  59.4812665  78.3101969 133.5920387  59.1170872  77.7832590 134.3033309
  60.3379781  77.9200438 133.4186873  65.3861966  69.5996302 140.8551653
  65.0545290  70.4691712 140.6312868  64.7907579  69.2832586 141.5345684
  59.1218152  73.3391869 128.5881736  59.2892554  74.2072105 128.9552207
  58.9315321  73.5019150 127.6643025  61.8793485  81.8008847 140.2547566
  61.5794208  82.7033886 140.1463373  61.5344545  81.5341031 141.1068719
  55.3305967  78.2522644 136.2884271  54.4056463  78.1198858 136.4961962
  55.5790380  79.0316864 136.7854213  65.2790629  74.3191388 137.9345004
  64.3707506  74.2506796 137.6403765  65.2278225  74.7963333 138.7626829
  59.1007373  75.7949526 129.5728403  58.9806998  76.2406577 130.4113883
  58.4059961  76.1434844 129.0141941  52.6914778  77.8955918 137.1228060
  52.8207159  78.1490397 138.0367471  52.0112229  78.4883626 136.8032715
  56.8614265  88.5653168 133.2218534  56.7838295  89.5160993 133.3007014
  56.2575909  88.2199040 133.8793460  59.3531495  75.7381033 145.8779901
  58.5764829  76.2974953 145.8682765  59.9922058  76.2237816 146.3994771
  67.1452275  72.5207826 139.7122877  66.5026656  72.8140359 139.0662672
  66.6407204  72.4060746 140.5176074  64.7992439  76.2670999 130.4008737
  65.7110295  76.4998386 130.2256434  64.2902086  76.8508043 129.8383815
  57.6077867  78.5466487 145.4397868  58.3492551  79.0851531 145.1632691
  56.9014853  79.1732775 145.5969420  63.0833207  80.6895627 144.0370029
  63.4916563  80.2478038 143.2924662  62.3610468  80.1148255 144.2904222
  59.4364277  75.6268234 141.4103586  60.2825472  76.0507647 141.5538235
  59.3762914  74.9701858 142.1042149  63.4062021  81.2496818 137.7922318
  62.7770884  81.4142532 137.0898386  63.0187683  81.6638427 138.5633282
  67.2851253  82.1851256 135.1466682  66.6002291  82.5650157 134.5963715
  67.3695103  82.7946582 135.8798630  62.5863722  73.2872602 143.0684760
  62.3424654  74.0414663 142.5319036  62.8623653  73.6657950 143.9032007
  64.5402185  79.8311215 141.7462025  64.7519080  80.4742974 141.0696407
  64.4931933  78.9973531 141.2783956  62.1428414  72.4429035 138.6498598
  61.2812893  72.7410289 138.9415335  62.1690849  72.6599434 137.7179630
  58.9589983  80.9871226 135.0572403  59.4228329  81.2658929 134.2677026
  58.6946781  80.0854670 134.8745494  55.8514064  80.5342707 137.9952167
  56.4215421  80.9629976 137.3569651  56.4422176  80.2525292 138.6936352
  57.8958869  77.1094378 131.8661968  58.5982913  77.5615422 132.3335895
  57.5639498  76.4678197 132.4941862  56.3439231  75.7006135 146.2413178
  55.7137891  76.3822416 146.4748575  56.2375319  75.5889216 145.2966316
  51.6384203  75.3677931 137.1679102  50.8483257  75.6235459 136.6919213
  52.1295451  76.1826269 137.2731143  65.6548013  82.7083170 139.9184383
  66.4765457  82.3063357 139.6367064  65.6510416  82.6051404 140.8700499
  53.5898949  75.7322510 134.1262579  52.7930112  75.8441204 134.6446074
  53.3624541  76.0709162 133.2603469  59.4204616  82.2567213 142.0745093
  59.4849049  82.7187621 142.9103265  58.7115540  81.6264578 142.2027403
  49.9221906  75.6208421 139.5994093  50.1729945  76.5055431 139.8651669
  50.4581455  75.4413023 138.8269185  73.7454006  79.0521918 136.2669354
  72.9917714  78.4829317 136.1113359  73.8801547  79.0184583 137.2139989
  59.1352634  83.9235321 131.9424074  58.9998309  84.7686857 132.3708921
  59.6762446  84.1254598 131.1790007  55.6219974  70.0026901 148.6038429
  55.2286919  69.4493099 149.2786073  56.4386114  70.3137479 148.9944946
  52.5882031  81.4410759 132.5151999  53.1006552  82.2354009 132.6657563
  53.2404744  80.7437049 132.4485600  54.3976916  84.5576515 134.5974752
  54.5743544  85.4794480 134.4095736  55.1933750  84.2434934 135.0269132
  58.5387935  71.4184780 146.1958685  59.2797648  72.0191933 146.1163148
  58.7705857  70.6762418 145.6376728  53.6829273  76.6041147 144.4736915
  53.5682788  75.7026404 144.7744014  52.8273790  76.8504844 144.1221732
  60.7621110  84.5458887 146.0724416  60.3184965  83.7595266 145.7545320
  61.4238324  84.7338038 145.4068307  55.5208231  86.0754689 140.5985094
  56.0715657  85.9471752 139.8262088  54.6819707  86.3749578 140.2479987
  62.8602348  84.8261687 144.1005817  62.8420824  85.6470568 143.6086086
  63.7822268  84.7015762 144.3255958  59.3175403  82.3405817 144.9429325
  59.8503739  81.5794105 144.7128633  58.7889484  82.0479469 145.6853480
  62.4845098  67.4465883 140.4722967  62.1409367  68.3367524 140.3962078
  62.8524060  67.2567540 139.6092552  50.5530948  79.7699413 133.2911569
  51.3906170  80.1796421 133.0745277  50.7309216  78.8298855 133.2611763
  62.4495380  77.4374494 128.9795402  61.9342004  78.2079098 129.2183790
  62.1772689  76.7639630 129.6028464  60.0342491  72.2824195 134.0380641
  59.1784088  71.8931045 133.8586279  60.4469443  72.3616155 133.1780426
  61.5641638  69.8170538 138.4372200  61.0606433  69.7800673 137.6240006
  61.8572245  70.7263281 138.4968857  57.8084524  69.9009268 137.4438382
  58.6737521  69.7052076 137.0844272  57.8762033  69.6719619 138.3707739
  67.4229654  80.1906848 130.9148576  66.6459097  79.8518008 130.4703738
  68.1021135  80.1959472 130.2403541  62.2381683  75.3101586 130.8055183
  61.9331819  75.6247735 131.6565327  63.1912126  75.3883006 130.8482516
  60.6828115  81.4691809 132.4548137  60.1549477  80.7344569 132.1421375
  60.1815618  82.2466486 132.2088106  65.6620961  79.6640830 137.5715184
  65.0044636  80.3540091 137.6595312  66.4661360  80.0537262 137.9149170
  55.4146843  72.1311475 134.8154749  55.9890595  71.9086657 134.0827942
  56.0017825  72.2000170 135.5683350  64.4726420  78.0185202 135.6219125
  64.9858302  78.6515194 136.1240835  65.1227644  77.4186398 135.2562485
  55.7416430  74.1615937 128.8350634  54.9053742  74.4990623 129.1559909
  55.6021200  74.0264916 127.8977771  57.7169511  69.0052724 133.5429818
  57.0633923  68.6901742 132.9186433  57.6749985  68.3828465 134.2689641
  58.8280715  79.2872019 125.4583110  57.9207777  79.0561273 125.6574259
  59.3251747  78.4909639 125.6457092  61.7348794  87.9969527 128.3779797
  61.0610493  88.3001223 128.9864754  62.1214616  88.7998607 128.0285254
  60.9507251  75.4934658 137.8677466  60.0329812  75.7149605 137.7099154
  61.3667395  75.5680968 137.0089173  61.7342299  76.8926074 132.9980146
  62.4814118  77.4047471 132.6887268  62.0033888  76.5710126 133.8584540
  60.0068949  79.3884614 129.9807101  59.0980168  79.1043647 130.0779570
  60.0364033  79.8083693 129.1210407  65.2388216  82.9991204 133.7498268
  64.7850543  82.1582114 133.8063459  64.6082183  83.6352602 134.0873048
  64.1821136  73.9283190 134.9798936  63.4443893  73.4160576 135.3109178
  64.4347909  73.4883571 134.1682212  63.6821156  84.8367701 134.6848086
  63.9744130  85.3972758 133.9660452  64.1919776  85.1296262 135.4401245
  64.2832763  66.7059442 135.5740705  64.5891640  65.8456805 135.2866620
  65.0085368  67.2977062 135.3739699  50.5757119  77.1090128 133.9622303
  50.3781519  76.5159489 133.2373369  50.0203783  76.8042339 134.6798242
  58.5553843  77.0013235 136.0816896  58.6102453  76.0487071 136.0059372
  57.7445045  77.1572674 136.5658194  59.7045037  80.9293358 127.3195179
  59.2664467  80.2129217 126.8600816  60.4455478  81.1569473 126.7580270
  56.4946203  75.6190295 133.8407275  55.6814068  75.9184465 134.2472467
  56.9905197  75.2245983 134.5581757  58.6454781  85.6148052 135.7741539
  58.6030960  85.8408898 134.8450071  59.5617480  85.3811426 135.9227341
  62.0920415  76.0832119 142.6722169  62.4469802  76.3103592 143.5316634
  62.7392546  76.4150496 142.0499424  67.8218151  79.2050555 133.3771498
  67.6836050  79.3952151 132.4492687  67.4654370  79.9669938 133.8339549
  55.9860278  73.1908650 139.4568510  56.6259657  73.0497409 138.7591473
  55.1537808  72.9043164 139.0807112  67.8487531  81.2727082 138.3882769
  68.2824038  81.1802371 139.2365823  68.5619112  81.2484583 137.7502785
  56.7620581  82.4911081 135.5703502  57.5561180  81.9961401 135.3686077
  56.0512274  81.9628944 135.2071208  61.5815426  84.8729176 139.9215870
  61.6352448  85.4420112 140.6893586  60.7130207  85.0431061 139.5569907
  53.0703345  76.6354162 131.6463255  52.1400933  76.5738618 131.8633217
  53.1660817  76.1130115 130.8499896  52.9888894  73.1608975 134.2341496
  53.2495711  74.0754308 134.1250657  53.8106066  72.6933418 134.3838109
  54.4613819  74.5746732 141.4040321  55.1336873  74.3664094 140.7552970
  53.6343606  74.3768818 140.9645553  68.7103081  81.3150783 140.9215655
  68.9038971  82.2196593 141.1674929  68.6103699  80.8558202 141.7554240
  60.3639391  71.2008673 143.4205982  59.7167306  71.8998623 143.3270458
  61.1340407  71.6344817 143.7882230  63.7718189  81.4657525 146.4956535
  63.6203696  81.2368077 145.5786619  63.7622869  82.4228127 146.5087880
  60.5403526  79.0389438 141.4802802  61.4695586  79.1900598 141.3071769
  60.1194556  79.1273459 140.6251448  59.3391857  83.0640103 139.2501339
  59.2002943  82.6958887 140.1227277  58.5506454  83.5787742 139.0785297
  59.9340009  88.1649199 130.5926876  60.1091765  87.6937242 131.4072498
  59.2472797  88.7914965 130.8208136  60.8897073  82.4421705 136.6390177
  60.5546905  82.4022475 137.5347827  60.3901018  81.7766421 136.1660587
  54.8641317  77.8489335 142.1642758  54.7261115  77.1169574 142.7654297
  55.7746240  77.7598235 141.8826946  63.8256264  79.7877740 126.9127237
  63.2085435  79.0624568 126.8160289  63.3572753  80.5487100 126.5694311
  57.4923617  77.5609295 141.6526438  58.2023236  76.9202487 141.6113056
  57.4492925  77.8122190 142.5752619  65.4810396  84.4976648 144.5733017
  65.4222942  83.8135868 143.9063600  65.8829914  85.2395638 144.1213643
  56.2052551  74.5474513 143.4722077  55.6689908  74.0965251 144.1243674
  55.6169260  74.6820421 142.7292542  54.5001095  91.3138562 137.3666736
  54.7397693  91.9457086 138.0445754  53.6570291  90.9626602 137.6532095
  55.6154810  74.0063164 126.0348541  54.7384277  73.8851965 125.6710788
  56.0912563  73.2149242 125.7827430  65.4827803  82.4616232 142.8046997
  64.5954582  82.1242154 142.9273396  66.0526354  81.7299263 143.0415762
  47.1356950  78.7940324 136.1290048  47.8227990  78.4802054 135.5411063
  46.9805079  79.6981688 135.8557300  51.9391672  73.6830520 140.5575072
  51.8549861  73.0756190 139.8225482  51.1174379  74.1739539 140.5584568
  59.0128957  87.1217684 139.7708240  58.9399128  87.9272656 140.2827544
  58.5706350  87.3209650 138.9456261  58.8018736  86.3589454 133.2811061
  58.0186258  86.9011134 133.3749286  59.5011481  86.8763434 133.6805303
  62.1115386  72.1684084 135.9245267  62.6084086  71.4154046 135.6046337
  61.3402368  72.2048400 135.3588476  69.9645144  77.8724449 137.5663558
  69.9535020  78.7549165 137.1957491  69.0962523  77.5196000 137.3718095
  61.4727640  87.0204518 141.9266399  62.1855612  87.6551983 141.8542300
  60.9817669  87.1168384 141.1106400  63.1945167  80.9255771 133.4983690
  62.2601446  81.0457233 133.3288395  63.3721835  80.0228238 133.2343700
  58.6950355  74.3101467 135.6516951  58.3248143  73.7572507 136.3397857
  59.1909448  73.7059600 135.0991951  66.5817718  76.7673090 134.0333724
  67.0478171  77.6001082 133.9594027  67.0325219  76.3018072 134.7378983
  56.5239554  84.7698962 142.7471969  57.2249013  85.4035445 142.9001364
  56.0534669  85.1113693 141.9867609  64.6493949  83.1116912 131.0319876
  64.9253793  82.9973506 131.9413750  63.7798448  82.7134396 130.9932050
  64.5534381  69.1353677 138.0724626  63.6397461  69.3657904 138.2406833
  64.9827483  69.2192121 138.9238658  64.3240840  77.3243569 140.5724520
  63.6712290  77.5719477 139.9176972  64.7021220  76.5107707 140.2386997
  61.2848014  87.3603262 134.6752690  61.4670408  86.5424918 135.1380442
  62.1081000  87.5770955 134.2377580  61.6190179  86.2871448 131.9367739
  62.1477945  85.7763902 131.3237901  61.8818399  85.9713978 132.8013272
  60.3728413  78.0663380 147.0590557  59.6969050  77.9657510 147.7292932
  61.1956047  77.9102594 147.5226554  52.1207272  84.3035317 139.6803072
  52.7060709  83.5579005 139.8130976  51.9232110  84.6139274 140.5639736
  54.9745927  87.3386564 134.6965514  54.3056302  87.8232692 134.2129555
  54.8358797  87.5855785 135.6108893  46.7124926  76.8740917 138.4007515
  46.7509026  76.3404508 139.1944633  46.2065219  76.3476123 137.7818492
  59.1151196  89.3730308 141.2948173  59.6669504  89.5361929 142.0597258
  59.4557389  89.9634746 140.6228198  54.0915689  71.7205458 141.8970058
  54.1557015  72.5820288 141.4847455  54.0282809  71.1079459 141.1642416
  53.5667961  73.7928590 145.5443092  54.1940000  73.4105667 146.1580616
  52.7095880  73.5742792 145.9098784  63.9662070  84.1991565 147.1496827
  64.5101974  84.8121524 146.6551782  63.3848915  84.7571144 147.6663840
  50.3433504  75.6005019 131.4761447  50.6386945  74.6915698 131.4228500
  49.4421540  75.5792759 131.1542449  62.2519583  87.3212283 138.2811855
  62.1270722  86.5202023 137.7722800  62.9098674  87.8158477 137.7925825
  53.8727751  73.6761016 137.4588995  53.1514337  74.2896983 137.3196469
  54.6621007  74.2118781 137.3805641  64.3154491  85.1221303 139.9091405
  63.3684827  85.0026655 139.8369732  64.6637264  84.2343801 139.9917666
  56.6754065  71.0115442 143.7329647  57.1988466  71.2577739 144.4955956
  56.4566398  71.8435477 143.3132784  52.0721346  73.2819117 131.6000772
  51.7434052  72.4016496 131.4175878  52.4260716  73.2266786 132.4877161
  61.3200924  84.9174020 136.1095757  61.1725887  83.9890727 136.2903327
  62.1454418  84.9394110 135.6252833  55.1863169  73.5692087 131.9676249
  55.5259241  74.0978008 131.2454858  55.6335289  73.9072493 132.7434816
  64.9235046  85.7402578 137.1960630  65.8481594  85.5345440 137.0585081
  64.7550350  85.4918979 138.1049972  57.8806610  71.9529137 141.4179317
  57.5403430  71.1536950 141.8199997  57.1745616  72.2530848 140.8456151
  58.5323081  69.0378450 139.8706641  59.3549151  68.5638928 139.7485531
  58.7761145  69.8168934 140.3705327  57.1731316  72.0666708 130.1669542
  57.8939678  72.4447961 129.6633259  56.5496620  72.7855585 130.2704520
  61.3162439  72.7711857 131.1027875  61.5326053  73.6536495 130.8016703
  60.8356506  72.3798071 130.3733517  56.0561660  75.7297570 137.6798619
  55.9106241  76.0437874 138.5722901  55.5786864  76.3482471 137.1269518
  57.9158043  72.7200118 137.7279509  57.9019612  71.8241212 137.3911807
  58.6330471  72.7270782 138.3617795  59.7684174  73.1537459 139.7732636
  59.5101952  74.0754529 139.7716967  59.2369214  72.7567893 140.4633100
  64.7130363  86.2588246 132.5522722  64.8867240  85.6934668 131.7996574
  65.2059254  87.0589141 132.3702211  50.5307322  78.2702915 140.6186280
  49.9860790  79.0462723 140.7506555  51.4086672  78.6173719 140.4605402
  57.3194939  71.6014499 132.9967079  57.4410850  70.6731145 133.1957966
  57.0296981  71.6153185 132.0845394  60.1886129  69.2869409 136.1333799
  60.2107826  69.3508742 135.1785778  60.6054188  68.4473918 136.3274305
  70.5669754  79.0224669 134.1713021  71.0100900  78.2731994 133.7732145
  69.6896264  79.0134805 133.7886753  65.7005535  85.5755010 129.6519620
  66.3956440  86.1961703 129.8706934  66.0428685  84.7250361 129.9271998
  51.3173344  77.3972811 143.5116437  50.5755080  77.5455446 144.0981068
  50.9966088  77.6581077 142.6483187  67.5996958  83.0254716 131.1806951
  68.1248282  83.3641988 130.4556271  67.5119311  82.0901731 130.9970085
  59.2617007  86.9388789 143.3096827  59.5704133  86.6937936 144.1819527
  60.0592489  87.1435428 142.8215697  59.2837619  89.0926699 135.5402204
  58.8442609  88.6003078 136.2335060  60.0345736  88.5499667 135.2994279
  51.7629958  85.2838240 135.5426832  52.5887978  84.9842012 135.1625475
  51.4124010  84.5145862 135.9916620  56.7311491  84.6364708 137.6124505
  56.1091500  83.9735413 137.3126733  57.4016358  84.6625840 136.9298153
  49.9638563  83.2024566 136.5015765  49.1270471  82.7746741 136.3199767
  49.9362208  83.3957010 137.4386557  56.8036019  73.1146496 147.2057011
  56.8524174  73.9908619 146.8234781  57.3458533  72.5723889 146.6328655
  67.2890864  83.6587619 146.4858149  66.4986408  83.6411758 145.9462648
  67.0524219  84.1975913 147.2407185  67.4088739  80.5080086 143.7990877
  67.4586744  80.3430093 144.7406400  67.3002663  79.6407345 143.4088758
  56.2924998  83.1868631 131.0882966  56.4413118  83.8704096 130.4349639
  57.0991441  83.1673721 131.6032422  64.6992502  76.4911014 145.1150184
  65.6002364  76.3517479 144.8234182  64.7740476  76.6565469 146.0548361
  59.0335307  73.8677868 143.9603370  58.1638616  74.1611435 143.6885959
  59.2694787  74.4518313 144.6810634  68.9106936  82.9277027 144.0432899
  68.6191744  83.2907008 144.8796360  68.2979067  82.2144035 143.8646231
  70.1102618  80.4929907 136.5635469  70.9449510  80.9319711 136.7273029
  70.2461747  80.0168560 135.7443715  67.1594124  78.0509642 142.5112957
  67.6348246  78.2437288 141.7031808  66.2359690  78.1068828 142.2656340
  54.0477631  79.2133809 132.0944035  53.8023673  78.3096139 132.2924245
  54.2173545  79.2150959 131.1523513  61.7374341  70.0857485 141.4768790
  62.2556285  70.8218512 141.1515279  61.3829474  70.3921479 142.3115550
  53.3173278  74.9462167 129.5930196  52.6242523  75.0206522 128.9370232
  53.0725030  74.1822510 130.1151713  61.9886935  66.5057768 136.9969687
  62.2688689  65.8380957 137.6230114  62.7737542  66.6986864 136.4844351
  59.7920403  85.6816762 128.5594713  59.2194371  86.3006949 128.1065185
  60.3653197  86.2316124 129.0934635  65.8595793  74.9275402 140.7441262
  66.8113216  75.0273500 140.7653486  65.6899244  74.1353670 141.2539347
  63.8810173  72.0130985 140.9300663  63.2860105  72.2935998 140.2347152
  63.5959870  72.5024886 141.7017404  63.0117663  85.9653912 129.6903296
  63.9448336  85.8999474 129.8936171  62.9240876  86.8010179 129.2317828
  65.6405680  85.2819782 126.6507243  65.5619311  84.9479646 127.5443001
  66.4615347  85.7741550 126.6498716  68.3383871  78.1481522 139.8583562
  68.3060191  77.2097522 140.0443246  68.9484495  78.2265558 139.1249387
  60.1767202  77.0177575 125.9010766  61.1226307  76.8883783 125.9699184
  59.7981447  76.2792236 126.3780194  68.4878360  74.9392565 139.9041845
  67.9717408  74.1551022 139.7171774  69.3718308  74.6111282 140.0688364
  66.1489087  68.6833581 135.8637658  65.9513908  68.3748669 136.7480990
  66.7588792  69.4095220 135.9935588  74.1560421  79.2097528 138.9989599
  74.8863809  78.9482817 139.5597302  73.5467366  78.4726250 139.0391667
  72.2375718  77.3505391 139.5964050  71.5108882  77.2161356 138.9880541
  71.8223005  77.6582220 140.4020768  60.0605895  81.0695321 147.3611423
  60.9808904  81.2473920 147.5551469  60.0255478  80.1251366 147.2091122
  58.3610119  74.9427551 125.8365651  57.4541575  74.6460664 125.9128365
  58.6386100  74.6457369 124.9699937  49.2788060  76.2633914 136.2864697
  48.9590844  75.4099223 135.9939071  48.7321488  76.4782493 137.0422665
  53.0567967  78.9796355 140.0034204  53.2753977  79.9113463 140.0222238
  53.4693741  78.6204330 140.7889008  59.9772185  69.4864441 131.9909892
  59.1672913  69.1411526 132.3665138  60.6656602  69.1771984 132.5797504
  61.9062733  68.5642488 133.6134189  62.4593772  68.9837941 134.2724212
  62.1432820  67.6378236 133.6557145  57.9295832  74.5529561 149.3936953
  57.8292559  75.5023918 149.3249044  57.7117374  74.2247800 148.5213023
  57.1308904  71.8014486 125.9777630  57.9928068  72.1269385 126.2373448
  57.3159248  71.0145982 125.4650696  49.1476320  79.8836826 138.2557819
  48.4539791  79.4690779 137.7427773  49.8949311  79.9257362 137.6591238
  65.2841540  70.6743013 133.1212853  64.7040209  71.3327817 132.7390906
  65.0177473  69.8520357 132.7100271  63.7345107  70.0748070 135.3234174
  64.2344885  70.1864605 134.5148492  64.3780715  69.7709123 135.9634982
  57.7927102  77.9826700 148.2102015  57.3094184  78.7827060 148.4165904
  57.8788041  77.9934645 147.2569459  51.0613062  79.8155080 136.1323834
  51.0383750  79.9142767 135.1805717  51.3713699  80.6620230 136.4541000
  53.7200440  81.8731235 140.2470448  54.6743693  81.8415177 140.1800380
  53.5212964  81.4121858 141.0620674  54.3099822  80.4432351 142.8141246
  55.1292711  80.9376429 142.8376083  54.5836630  79.5264319 142.7858814
  64.0666418  72.8343103 132.1769202  63.1792273  73.1192754 131.9589396
  64.4820407  72.6736866 131.3296478  67.4180954  72.8589624 135.8923541
  68.1941345  73.3486076 136.1648158  66.6929089  73.2847678 136.3495410
  69.8553513  73.5717243 136.9497481  70.4498004  73.3312979 136.2390790
  69.9280097  72.8524374 137.5771018  52.0750669  87.4150854 137.2640646
  51.9405137  86.6551255 136.6978644  51.6582731  88.1391754 136.7969435
  63.2109632  82.5987778 126.2717222  63.9145482  82.8037780 126.8874877
  62.4872280  83.1664540 126.5366305  64.0407442  78.3497639 132.3919492
  63.9842643  78.8066190 131.5527124  64.5935784  77.5888324 132.2142334
  67.8512248  74.1387371 133.2169611  67.5949182  73.7384007 134.0477819
  67.2265116  74.8531165 133.0919750  72.1624586  76.8783444 135.7240903
  71.6024144  76.9476633 136.4972465  71.5568089  76.7024429 135.0040399
  55.2319795  88.3120171 137.4759089  55.1152179  89.2565604 137.3737779
  54.4112241  88.0093733 137.8644888  65.1196329  83.0370307 128.3215682
  65.9541933  82.6051505 128.1393156  64.9580672  82.8652321 129.2492576
  64.7742221  79.5402420 129.6872021  64.7191025  79.3746692 128.7460465
  64.1488277  80.2478453 129.8434211  49.5634736  74.7770485 143.5133443
  50.2093600  74.2669439 144.0020668  49.3551887  75.5139166 144.0876868
  62.0888128  81.8451332 149.0125584  62.9579288  82.0191984 148.6512219
  61.6094880  82.6645749 148.8901313  58.0838347  69.0410529 129.2657339
  58.0717017  69.9852369 129.4225610  58.9761769  68.8580675 128.9716800
  56.2574309  88.9648433 140.6915017  57.1601555  88.9972043 141.0081512
  56.0311679  88.0348884 140.7061353  58.0127911  87.7179420 137.3525096
  57.0623542  87.7181281 137.2389468  58.3160397  86.9712154 136.8361131
  61.8990466  65.6353306 133.5203276  61.1322862  65.0811793 133.6659958
  62.3101171  65.7075175 134.3817428  53.9032227  71.9238102 147.6108457
  54.7663689  71.5674907 147.8211782  53.3297638  71.5851996 148.2983862
  73.7480604  93.5539958 138.4170858  74.3859014  93.4346705 137.7134198
  73.6301447  94.5020802 138.4758810  70.5570311  93.5067386 138.3532383
  70.2188822  93.3908451 137.4652918  71.4260079  93.1058551 138.3333389
  66.4157126  95.3602863 134.3429274  65.8521991  95.2692799 133.5745562
  66.3009521  94.5402767 134.8231767  63.9621558  96.8554054 137.1813494
  64.7542850  96.5144879 136.7659794  64.2018208  96.9649029 138.1015648
  71.9956685  99.0273830 129.6543739  71.3444665  99.6127911 129.2677753
  72.7901048  99.5580025 129.7138776  65.9212312  96.1162967 130.0530873
  66.6943188  95.5691954 129.9143749  66.2737711  96.9807217 130.2645335
  68.6853561  94.8216198 139.8499132  69.2817134  94.5972221 139.1356095
  68.7428533  94.0800944 140.4524580  68.2578590  92.2755634 127.6849323
  68.5104111  91.7537155 126.9232786  67.3203149  92.1121779 127.7876007
  73.3021873  91.2791412 135.4924066  74.0884962  90.8610835 135.1414483
  73.5660577  92.1837504 135.6605715  73.4731950  96.7164262 130.1912723
  72.8377783  96.7898889 130.9033628  73.1429356  97.3057861 129.5131802
  78.7030300  91.2166645 136.3957045  79.4355472  90.6465862 136.6294874
  77.9469656  90.8288246 136.8363550  67.9774879  94.1783739 129.8873698
  67.8611137  93.5028643 130.5554782  68.0877139  93.6916113 129.0705851
  70.3206420  93.6393887 133.5920387  69.9564627  93.1124508 134.3033309
  71.1773535  93.2492356 133.4186873  76.2255720  84.9288219 140.8551653
  75.8939045  85.7983630 140.6312868  75.6301334  84.6124503 141.5345684
  69.9611907  88.6683786 128.5881736  70.1286309  89.5364023 128.9552207
  69.7709076  88.8311068 127.6643025  66.1699721  93.5814562 136.2884271
  65.2450218  93.4490776 136.4961962  66.4184134  94.3608781 136.7854213
  76.1184384  89.6483305 137.9345004  75.2101261  89.5798714 137.6403765
  76.0671979  90.1255250 138.7626829  69.9401127  91.1241444 129.5728403
  69.8200753  91.5698495 130.4113883  69.2453716  91.4726761 129.0141941
  63.5308532  93.2247836 137.1228060  63.6600913  93.4782314 138.0367471
  62.8505984  93.8175544 136.8032715  67.7008020 103.8945086 133.2218534
  67.6232049 104.8452911 133.3007014  67.0969663 103.5490958 133.8793460
  77.9846030  87.8499744 139.7122877  77.3420410  88.1432277 139.0662672
  77.4800958  87.7352664 140.5176074  75.6386194  91.5962917 130.4008737
  76.5504050  91.8290304 130.2256434  75.1295841  92.1799961 129.8383815
  70.2758031  90.9560152 141.4103586  71.1219226  91.3799565 141.5538235
  70.2156669  90.2993776 142.1042149  74.2455776  96.5788735 137.7922318
  73.6164638  96.7434450 137.0898386  73.8581438  96.9930345 138.5633282
  78.1245008  97.5143173 135.1466682  77.4396046  97.8942075 134.5963715
  78.2088857  98.1238500 135.8798630  73.4257477  88.6164520 143.0684760
  73.1818408  89.3706580 142.5319036  73.7017407  88.9949868 143.9032007
  72.9822168  87.7720953 138.6498598  72.1206647  88.0702206 138.9415335
  73.0084603  87.9891352 137.7179630  69.7983738  96.3163143 135.0572403
  70.2622083  96.5950846 134.2677026  69.5340536  95.4146588 134.8745494
  66.6907819  95.8634625 137.9952167  67.2609176  96.2921893 137.3569651
  67.2815931  95.5817210 138.6936352  68.7352624  92.4386296 131.8661968
  69.4376667  92.8907340 132.3335895  68.4033252  91.7970115 132.4941862
  62.4777958  90.6969849 137.1679102  61.6877012  90.9527377 136.6919213
  62.9689205  91.5118186 137.2731143  64.4292703  91.0614428 134.1262579
  63.6323866  91.1733122 134.6446074  64.2018295  91.4001080 133.2603469
  60.7615661  90.9500339 139.5994093  61.0123699  91.8347349 139.8651669
  61.2975209  90.7704940 138.8269185  84.5847760  94.3813836 136.2669354
  83.8311469  93.8121234 136.1113359  84.7195302  94.3476501 137.2139989
  69.9746388  99.2527238 131.9424074  69.8392063 100.0978774 132.3708921
  70.5156201  99.4546516 131.1790007  66.4613728  85.3318818 148.6038429
  66.0680674  84.7785017 149.2786073  67.2779868  85.6429397 148.9944946
  63.4275786  96.7702677 132.5151999  63.9400306  97.5645927 132.6657563
  64.0798499  96.0728967 132.4485600  65.2370671  99.8868433 134.5974752
  65.4137299 100.8086397 134.4095736  66.0327504  99.5726852 135.0269132
  69.3781689  86.7476697 146.1958685  70.1191402  87.3483851 146.1163148
  69.6099612  86.0054335 145.6376728  64.5223027  91.9333065 144.4736915
  64.4076542  91.0318322 144.7744014  63.6667545  92.1796761 144.1221732
  66.3601986 101.4046607 140.5985094  66.9109411 101.2763670 139.8262088
  65.5213462 101.7041496 140.2479987  73.3238852  82.7757800 140.4722967
  72.9803121  83.6659442 140.3962078  73.6917815  82.5859458 139.6092552
  61.3924703  95.0991331 133.2911569  62.2299925  95.5088339 133.0745277
  61.5702970  94.1590773 133.2611763  73.2889135  92.7666411 128.9795402
  72.7735758  93.5371016 129.2183790  73.0166443  92.0931548 129.6028464
  70.8736246  87.6116112 134.0380641  70.0177842  87.2222963 133.8586279
  71.2863198  87.6908073 133.1780426  72.4035392  85.1462456 138.4372200
  71.9000188  85.1092591 137.6240006  72.6965999  86.0555198 138.4968857
  68.6478278  85.2301185 137.4438382  69.5131275  85.0343994 137.0844272
  68.7155787  85.0011537 138.3707739  78.2623409  95.5198766 130.9148576
  77.4852852  95.1809926 130.4703738  78.9414890  95.5251389 130.2403541
  73.0775438  90.6393504 130.8055183  72.7725573  90.9539653 131.6565327
  74.0305880  90.7174923 130.8482516  71.5221870  96.7983727 132.4548137
  70.9943231  96.0636486 132.1421375  71.0209372  97.5758403 132.2088106
  76.5014716  94.9932747 137.5715184  75.8438390  95.6832009 137.6595312
  77.3055115  95.3829179 137.9149170  66.2540597  87.4603393 134.8154749
  66.8284349  87.2378575 134.0827942  66.8411580  87.5292088 135.5683350
  75.3120175  93.3477120 135.6219125  75.8252056  93.9807112 136.1240835
  75.9621398  92.7478316 135.2562485  66.5810184  89.4907854 128.8350634
  65.7447497  89.8282541 129.1559909  66.4414954  89.3556834 127.8977771
  68.5563265  84.3344642 133.5429818  67.9027677  84.0193659 132.9186433
  68.5143739  83.7120383 134.2689641  69.6674470  94.6163937 125.4583110
  68.7601532  94.3853191 125.6574259  70.1645502  93.8201556 125.6457092
  72.5742549 103.3261444 128.3779797  71.9004248 103.6293141 128.9864754
  72.9608371 104.1290525 128.0285254  71.7901005  90.8226576 137.8677466
  70.8723567  91.0441523 137.7099154  72.2061149  90.8972886 137.0089173
  72.5736053  92.2217991 132.9980146  73.3207872  92.7339388 132.6887268
  72.8427643  91.9002044 133.8584540  70.8462703  94.7176532 129.9807101
  69.9373923  94.4335565 130.0779570  70.8757787  95.1375611 129.1210407
  76.0781971  98.3283122 133.7498268  75.6244298  97.4874031 133.8063459
  75.4475937  98.9644520 134.0873048  75.0214890  89.2575108 134.9798936
  74.2837647  88.7452494 135.3109178  75.2741664  88.8175489 134.1682212
  74.5214910 100.1659618 134.6848086  74.8137884 100.7264675 133.9660452
  75.0313531 100.4588179 135.4401245  75.1226518  82.0351360 135.5740705
  75.4285394  81.1748723 135.2866620  75.8479122  82.6268980 135.3739699
  61.4150874  92.4382046 133.9622303  61.2175274  91.8451407 133.2373369
  60.8597538  92.1334256 134.6798242  69.3947597  92.3305153 136.0816896
  69.4496207  91.3778989 136.0059372  68.5838799  92.4864592 136.5658194
  70.5438791  96.2585276 127.3195179  70.1058221  95.5421135 126.8600816
  71.2849232  96.4861390 126.7580270  67.3339957  90.9482212 133.8407275
  66.5207823  91.2476383 134.2472467  67.8298952  90.5537901 134.5581757
  69.4848535 100.9439969 135.7741539  69.4424714 101.1700816 134.8450071
  70.4011234 100.7103344 135.9227341  72.9314169  91.4124037 142.6722169
  73.2863557  91.6395510 143.5316634  73.5786300  91.7442414 142.0499424
  78.6611906  94.5342473 133.3771498  78.5229805  94.7244069 132.4492687
  78.3048125  95.2961856 133.8339549  66.8254032  88.5200568 139.4568510
  67.4653411  88.3789327 138.7591473  65.9931563  88.2335081 139.0807112
  67.6014336  97.8202998 135.5703502  68.3954934  97.3253318 135.3686077
  66.8906028  97.2920861 135.2071208  63.9097099  91.9646080 131.6463255
  62.9794688  91.9030536 131.8633217  64.0054571  91.4422033 130.8499896
  63.8282648  88.4900893 134.2341496  64.0889466  89.4046226 134.1250657
  64.6499821  88.0225335 134.3838109  65.3007574  89.9038650 141.4040321
  65.9730627  89.6956012 140.7552970  64.4737360  89.7060736 140.9645553
  71.2033146  86.5300591 143.4205982  70.5561061  87.2290541 143.3270458
  71.9734161  86.9636735 143.7882230  71.3797280  94.3681356 141.4802802
  72.3089340  94.5192515 141.3071769  70.9588310  94.4565377 140.6251448
  70.1785612  98.3932020 139.2501339  70.0396698  98.0250805 140.1227277
  69.3900208  98.9079660 139.0785297  70.7733764 103.4941117 130.5926876
  70.9485520 103.0229160 131.4072498  70.0866552 104.1206883 130.8208136
  71.7290827  97.7713623 136.6390177  71.3940660  97.7314393 137.5347827
  71.2294773  97.1058339 136.1660587  65.7035071  93.1781253 142.1642758
  65.5654869  92.4461492 142.7654297  66.6139995  93.0890153 141.8826946
  74.6650019  95.1169657 126.9127237  74.0479189  94.3916485 126.8160289
  74.1966507  95.8779018 126.5694311  68.3317372  92.8901212 141.6526438
  69.0416990  92.2494405 141.6113056  68.2886680  93.1414107 142.5752619
  67.0446306  89.8766430 143.4722077  66.5083663  89.4257169 144.1243674
  66.4563014  90.0112339 142.7292542  66.4548565  89.3355082 126.0348541
  65.5778031  89.2143882 125.6710788  66.9306318  88.5441160 125.7827430
  57.9750705  94.1232241 136.1290048  58.6621745  93.8093971 135.5411063
  57.8198834  95.0273606 135.8557300  62.7785427  89.0122438 140.5575072
  62.6943616  88.4048107 139.8225482  61.9568133  89.5031456 140.5584568
  69.6412491 101.6881372 133.2811061  68.8580013 102.2303052 133.3749286
  70.3405236 102.2055352 133.6805303  72.9509141  87.4976001 135.9245267
  73.4477840  86.7445964 135.6046337  72.1796122  87.5340318 135.3588476
  80.8038898  93.2016367 137.5663558  80.7928774  94.0841082 137.1957491
  79.9356278  92.8487918 137.3718095  74.0338922  96.2547689 133.4983690
  73.0995200  96.3749151 133.3288395  74.2115590  95.3520155 133.2343700
  69.5344110  89.6393384 135.6516951  69.1641897  89.0864425 136.3397857
  70.0303202  89.0351518 135.0991951  77.4211473  92.0965008 134.0333724
  77.8871925  92.9293000 133.9594027  77.8718973  91.6309990 134.7378983
  75.4887704  98.4408829 131.0319876  75.7647548  98.3265424 131.9413750
  74.6192203  98.0426314 130.9932050  75.3928136  84.4645595 138.0724626
  74.4791215  84.6949822 138.2406833  75.8221237  84.5484039 138.9238658
  75.1634594  92.6535487 140.5724520  74.5106044  92.9011394 139.9176972
  75.5414974  91.8399625 140.2386997  72.1241768 102.6895180 134.6752690
  72.3064163 101.8716836 135.1380442  72.9474754 102.9062872 134.2377580
  72.4583933 101.6163365 131.9367739  72.9871700 101.1055820 131.3237901
  72.7212153 101.3005895 132.8013272  62.9601026  99.6327234 139.6803072
  63.5454463  98.8870922 139.8130976  62.7625865  99.9431191 140.5639736
  65.8139681 102.6678482 134.6965514  65.1450057 103.1524610 134.2129555
  65.6752551 102.9147702 135.6108893  57.5518681  92.2032835 138.4007515
  57.5902780  91.6696425 139.1944633  57.0458974  91.6768040 137.7818492
  64.9309443  87.0497375 141.8970058  64.9950770  87.9112206 141.4847455
  64.8676563  86.4371377 141.1642416  64.4061716  89.1220508 145.5443092
  65.0333755  88.7397585 146.1580616  63.5489635  88.9034710 145.9098784
  61.1827259  90.9296937 131.4761447  61.4780700  90.0207615 131.4228500
  60.2815294  90.9084676 131.1542449  64.7121506  89.0052933 137.4588995
  63.9908091  89.6188901 137.3196469  65.5014761  89.5410698 137.3805641
  67.5147819  86.3407360 143.7329647  68.0382221  86.5869656 144.4955956
  67.2960152  87.1727395 143.3132784  62.9115100  88.6111035 131.6000772
  62.5827806  87.7308413 131.4175878  63.2654471  88.5558703 132.4877161
  72.1594679 100.2465937 136.1095757  72.0119641  99.3182645 136.2903327
  72.9848172 100.2686028 135.6252833  66.0256923  88.8984004 131.9676249
  66.3652996  89.4269926 131.2454858  66.4729044  89.2364410 132.7434816
  68.7200364  87.2821055 141.4179317  68.3797184  86.4828868 141.8199997
  68.0139370  87.5822766 140.8456151  69.3716836  84.3670367 139.8706641
  70.1942905  83.8930846 139.7485531  69.6154899  85.1460851 140.3705327
  68.0125070  87.3958626 130.1669542  68.7333433  87.7739879 129.6633259
  67.3890375  88.1147503 130.2704520  72.1556193  88.1003775 131.1027875
  72.3719808  88.9828413 130.8016703  71.6750260  87.7089988 130.3733517
  66.8955415  91.0589488 137.6798619  66.7499995  91.3729791 138.5722901
  66.4180618  91.6774388 137.1269518  68.7551798  88.0492036 137.7279509
  68.7413366  87.1533129 137.3911807  69.4724226  88.0562700 138.3617795
  70.6077928  88.4829376 139.7732636  70.3495706  89.4046447 139.7716967
  70.0762969  88.0859811 140.4633100  75.5524117 101.5880163 132.5522722
  75.7260995 101.0226586 131.7996574  76.0453008 102.3881058 132.3702211
  61.3701077  93.5994832 140.6186280  60.8254545  94.3754640 140.7506555
  62.2480427  93.9465637 140.4605402  68.1588693  86.9306416 132.9967079
  68.2804605  86.0023063 133.1957966  67.8690736  86.9445102 132.0845394
  71.0279884  84.6161327 136.1333799  71.0501581  84.6800660 135.1785778
  71.4447943  83.7765835 136.3274305  81.4063508  94.3516586 134.1713021
  81.8494654  93.6023912 133.7732145  80.5290018  94.3426723 133.7886753
  76.5399290 100.9046928 129.6519620  77.2350194 101.5253621 129.8706934
  76.8822440 100.0542279 129.9271998  62.1567099  92.7264729 143.5116437
  61.4148835  92.8747364 144.0981068  61.8359843  92.9872994 142.6483187
  78.4390713  98.3546633 131.1806951  78.9642037  98.6933906 130.4556271
  78.3513065  97.4193649 130.9970085  70.1231373 104.4218617 135.5402204
  69.6836364 103.9294995 136.2335060  70.8739490 103.8791584 135.2994279
  62.6023712 100.6130157 135.5426832  63.4281732 100.3133929 135.1625475
  62.2517764  99.8437780 135.9916620  67.5705246  99.9656626 137.6124505
  66.9485255  99.3027331 137.3126733  68.2410112  99.9917758 136.9298153
  60.8032317  98.5316484 136.5015765  59.9664226  98.1038658 136.3199767
  60.7755963  98.7248927 137.4386557  67.6429773  88.4438414 147.2057011
  67.6917928  89.3200537 146.8234781  68.1852287  87.9015807 146.6328655
  67.1318752  98.5160549 131.0882966  67.2806873  99.1996013 130.4349639
  67.9385196  98.4965639 131.6032422  69.8729061  89.1969786 143.9603370
  69.0032371  89.4903352 143.6885959  70.1088542  89.7810231 144.6810634
  80.9496373  95.8221825 136.5635469  81.7843264  96.2611629 136.7273029
  81.0855502  95.3460478 135.7443715  64.8871385  94.5425727 132.0944035
  64.6417427  93.6388057 132.2924245  65.0567300  94.5442877 131.1523513
  72.5768095  85.4149403 141.4768790  73.0950039  86.1510430 141.1515279
  72.2223228  85.7213396 142.3115550  64.1567033  90.2754084 129.5930196
  63.4636278  90.3498439 128.9370232  63.9118785  89.5114428 130.1151713
  72.8280689  81.8349686 136.9969687  73.1082443  81.1672875 137.6230114
  73.6131296  82.0278781 136.4844351  70.6314158 101.0108679 128.5594713
  70.0588125 101.6298867 128.1065185  71.2046952 101.5608041 129.0934635
  76.6989548  90.2567320 140.7441262  77.6506971  90.3565417 140.7653486
  76.5292998  89.4645588 141.2539347  74.7203927  87.3422903 140.9300663
  74.1253859  87.6227916 140.2347152  74.4353624  87.8316804 141.7017404
  73.8511418 101.2945830 129.6903296  74.7842091 101.2291391 129.8936171
  73.7634631 102.1302096 129.2317828  76.4799434 100.6111700 126.6507243
  76.4013066 100.2771564 127.5443001  77.3009101 101.1033468 126.6498716
  79.1777626  93.4773439 139.8583562  79.1453946  92.5389440 140.0443246
  79.7878249  93.5557476 139.1249387  71.0160956  92.3469492 125.9010766
  71.9620061  92.2175700 125.9699184  70.6375201  91.6084154 126.3780194
  79.3272114  90.2684483 139.9041845  78.8111163  89.4842939 139.7171774
  80.2112063  89.9403199 140.0688364  76.9882841  84.0125498 135.8637658
  76.7907662  83.7040586 136.7480990  77.5982547  84.7387137 135.9935588
  69.2003874  90.2719469 125.8365651  68.2935329  89.9752581 125.9128365
  69.4779855  89.9749287 124.9699937  60.1181814  91.5925832 136.2864697
  59.7984598  90.7391140 135.9939071  59.5715242  91.8074410 137.0422665
  63.8961722  94.3088273 140.0034204  64.1147731  95.2405381 140.0222238
  64.3087495  93.9496247 140.7889008  70.8165939  84.8156358 131.9909892
  70.0066668  84.4703443 132.3665138  71.5050356  84.5063902 132.5797504
  72.7456488  83.8934405 133.6134189  73.2987526  84.3129859 134.2724212
  72.9826574  82.9670153 133.6557145  67.9702658  87.1306404 125.9777630
  68.8321822  87.4561302 126.2373448  68.1553002  86.3437900 125.4650696
  59.9870074  95.2128744 138.2557819  59.2933545  94.7982696 137.7427773
  60.7343065  95.2549280 137.6591238  76.1235295  86.0034930 133.1212853
  75.5433964  86.6619734 132.7390906  75.8571227  85.1812275 132.7100271
  74.5738861  85.4039988 135.3234174  75.0738639  85.5156523 134.5148492
  75.2174469  85.1001041 135.9634982  61.9006817  95.1446997 136.1323834
  61.8777505  95.2434685 135.1805717  62.2107453  95.9912148 136.4541000
  64.5594194  97.2023152 140.2470448  65.5137448  97.1707095 140.1800380
  64.3606718  96.7413776 141.0620674  65.1493577  95.7724268 142.8141246
  65.9686466  96.2668347 142.8376083  65.4230384  94.8556237 142.7858814
  74.9060173  88.1635021 132.1769202  74.0186028  88.4484671 131.9589396
  75.3214162  88.0028784 131.3296478  78.2574709  88.1881542 135.8923541
  79.0335099  88.6777994 136.1648158  77.5322843  88.6139596 136.3495410
  80.6947267  88.9009161 136.9497481  81.2891758  88.6604897 136.2390790
  80.7673851  88.1816291 137.5771018  62.9144423 102.7442772 137.2640646
  62.7798891 101.9843173 136.6978644  62.4976485 103.4683672 136.7969435
  74.0503386  97.9279695 126.2717222  74.7539236  98.1329698 126.8874877
  73.3266035  98.4956457 126.5366305  74.8801196  93.6789557 132.3919492
  74.8236398  94.1358108 131.5527124  75.4329539  92.9180241 132.2142334
  78.6906002  89.4679289 133.2169611  78.4342937  89.0675924 134.0477819
  78.0658870  90.1823082 133.0919750  83.0018340  92.2075362 135.7240903
  82.4417898  92.2768551 136.4972465  82.3961844  92.0316346 135.0040399
  66.0713549 103.6412089 137.4759089  65.9545933 104.5857521 137.3737779
  65.2505995 103.3385650 137.8644888  75.9590084  98.3662225 128.3215682
  76.7935688  97.9343423 128.1393156  75.7974427  98.1944238 129.2492576
  75.6135976  94.8694338 129.6872021  75.5584780  94.7038609 128.7460465
  74.9882031  95.5770371 129.8434211  60.4028491  90.1062402 143.5133443
  61.0487354  89.5961356 144.0020668  60.1945642  90.8431084 144.0876868
  68.9232101  84.3702447 129.2657339  68.9110771  85.3144287 129.4225610
  69.8155523  84.1872592 128.9716800  68.8521665 103.0471337 137.3525096
  67.9017296 103.0473199 137.2389468  69.1554151 102.3004072 136.8361131
  72.7384221  80.9645224 133.5203276  71.9716617  80.4103710 133.6659958
  73.1494926  81.0367092 134.3817428  64.7425982  87.2530019 147.6108457
  65.6057443  86.8966824 147.8211782  64.1691392  86.9143914 148.2983862
  79.0972344 107.6047551 127.6849323  79.3497865 107.0829072 126.9232786
  78.1596903 107.4413697 127.7876007  78.8168633 109.5075657 129.8873698
  78.7004891 108.8320561 130.5554782  78.9270893 109.0208031 129.0705851
  80.8005661 103.9975704 128.5881736  80.9680063 104.8655940 128.9552207
  80.6102830 104.1602986 127.6643025  80.7794882 106.4533361 129.5728403
  80.6594507 106.8990412 130.4113883  80.0847470 106.8018679 129.0141941
  75.2686458 106.3906345 134.1262579  74.4717621 106.5025040 134.6446074
  75.0412050 106.7292998 133.2603469  84.1282889 108.0958329 128.9795402
  83.6129513 108.8662934 129.2183790  83.8560198 107.4223465 129.6028464
  77.4203939 104.8199772 128.8350634  76.5841251 105.1574458 129.1559909
  77.2808709 104.6848752 127.8977771  79.3957020  99.6636560 133.5429818
  78.7421432  99.3485577 132.9186433  79.3537494  99.0412300 134.2689641
  80.5068224 109.9455855 125.4583110  79.5995286 109.7145108 125.6574259
  81.0039256 109.1493474 125.6457092  72.2544628 107.7673964 133.9622303
  72.0569028 107.1743325 133.2373369  71.6991292 107.4626174 134.6798242
  81.3832546 111.5877193 127.3195179  80.9451976 110.8713052 126.8600816
  82.1242987 111.8153308 126.7580270  74.7490854 107.2937998 131.6463255
  73.8188442 107.2322453 131.8633217  74.8448326 106.7713950 130.8499896
  74.6676403 103.8192811 134.2341496  74.9283220 104.7338144 134.1250657
  75.4893575 103.3517253 134.3838109  85.5043773 110.4461575 126.9127237
  84.8872944 109.7208403 126.8160289  85.0360262 111.2070935 126.5694311
  77.2942319 104.6646999 126.0348541  76.4171785 104.5435800 125.6710788
  77.7700072 103.8733078 125.7827430  72.0221013 106.2588855 131.4761447
  72.3174454 105.3499533 131.4228500  71.1209049 106.2376594 131.1542449
  73.7508855 103.9402952 131.6000772  73.4221561 103.0600331 131.4175878
  74.1048225 103.8850621 132.4877161  76.8650678 104.2275922 131.9676249
  77.2046750 104.7561843 131.2454858  77.3122798 104.5656328 132.7434816
  78.8518825 102.7250544 130.1669542  79.5727187 103.1031796 129.6633259
  78.2284129 103.4439420 130.2704520  82.9949948 103.4295693 131.1027875
  83.2113562 104.3120330 130.8016703  82.5144015 103.0381906 130.3733517
  78.9982448 102.2598334 132.9967079  79.1198359 101.3314980 133.1957966
  78.7084490 102.2737020 132.0845394  75.7265140 109.8717644 132.0944035
  75.4811182 108.9679974 132.2924245  75.8961054 109.8734795 131.1523513
  74.9960787 105.6046002 129.5930196  74.3030032 105.6790357 128.9370232
  74.7512539 104.8406346 130.1151713  81.8554711 107.6761410 125.9010766
  82.8013816 107.5467618 125.9699184  81.4768956 106.9376072 126.3780194
  80.0397628 105.6011386 125.8365651  79.1329084 105.3044499 125.9128365
  80.3173609 105.3041204 124.9699937  81.6559694 100.1448276 131.9909892
  80.8460422  99.7995361 132.3665138  82.3444111  99.8355820 132.5797504
  83.5850242  99.2226323 133.6134189  84.1381281  99.6421776 134.2724212
  83.8220328  98.2962071 133.6557145  78.8096413 102.4598322 125.9777630
  79.6715577 102.7853220 126.2373448  78.9946757 101.6729817 125.4650696
  79.7625856  99.6994365 129.2657339  79.7504526 100.6436204 129.4225610
  80.6549278  99.5164510 128.9716800  83.5777975  96.2937141 133.5203276
  82.8110371  95.7395628 133.6659958  83.9888680  96.3659010 134.3817428
  39.4775423  30.0460200 116.3789046  38.8263402  30.6314280 115.9923059
  40.2719785  30.5766395 116.4384083  35.7397328  23.2942003 114.4094630
  35.9922848  22.7723524 113.6478093  34.8021887  23.1308149 114.5121313
  40.9550688  27.7350632 116.9158030  40.3196521  27.8085258 117.6278934
  40.6248094  28.3244231 116.2377109  35.1826757  34.9131455 119.9463841
  35.1050787  35.8639280 120.0252321  34.5788401  34.5677328 120.6038767
  43.1204931  22.6149287 117.1254043  44.0322787  22.8476673 116.9501741
  42.6114578  23.1986331 116.5629122  45.6063746  28.5329543 121.8711989
  44.9214784  28.9128444 121.3209022  45.6907595  29.1424869 122.6043936
  37.4565126  30.2713608 118.6669380  37.3210801  31.1165144 119.0954228
  37.9974939  30.4732886 117.9035314  40.7707872  23.7852781 115.7040709
  40.2554496  24.5557386 115.9429096  40.4985181  23.1117917 116.3273770
  45.7442147  26.5385136 117.6393882  44.9671589  26.1996295 117.1949044
  46.4233628  26.5437759 116.9648847  37.1493208  25.6350307 112.1828417
  36.2420269  25.4039560 112.3819566  37.6464240  24.8387926 112.3702399
  40.0561287  34.3447814 115.1025103  39.3822985  34.6479511 115.7110061
  40.4427109  35.1476894 114.7530560  38.3281441  25.7362902 116.7052407
  37.4192660  25.4521934 116.8024877  38.3576525  26.1561980 115.8455714
  43.5600709  29.3469491 120.4743575  43.1063036  28.5060401 120.5308765
  42.9294675  29.9830889 120.8118355  42.0033648  31.1845988 121.4093393
  42.2956622  31.7451045 120.6905758  42.5132268  31.4774549 122.1646552
  38.0257529  27.2771645 114.0440486  37.5876959  26.5607504 113.5846123
  38.7667970  27.5047760 113.4825577  46.1430644  25.5528842 120.1016804
  46.0048542  25.7430438 119.1737994  45.7866863  26.3148225 120.5584855
  38.2552502  34.5127486 117.3172182  38.4304257  34.0415530 118.1317805
  37.5685290  35.1393253 117.5453443  42.1468757  26.1356027 113.6372543
  41.5297927  25.4102855 113.5405596  41.6785245  26.8965387 113.2939618
  37.1231228  32.7067742 120.0056368  36.3398750  33.2489422 120.0994593
  37.8223974  33.2241721 120.4050609  42.9706442  29.4595199 117.7565183
  43.2466286  29.3451793 118.6659057  42.1010940  29.0612684 117.7177356
  39.6060506  33.7081550 121.3997997  39.7882900  32.8903206 121.8625749
  40.4293492  33.9249242 120.9622887  39.9402671  32.6349735 118.6613045
  40.4690438  32.1242189 118.0483207  40.2030891  32.3192265 119.5258578
  43.0342855  32.6066533 119.2768028  43.2079732  32.0412955 118.5241881
  43.5271746  33.4067428 119.0947518  48.8882246  25.3702956 120.8958328
  49.3313392  24.6210281 120.4977451  48.0108756  25.3613092 120.5132060
  44.0218027  31.9233297 116.3764926  44.7168932  32.5439990 116.5952241
  44.3641177  31.0728649 116.6517304  45.9209450  29.3733003 117.9052257
  46.4460775  29.7120276 117.1801577  45.8331803  28.4380018 117.7215392
  34.6137490  29.5346919 117.8128273  34.7625611  30.2182383 117.1594945
  35.4203934  29.5152009 118.3277728  38.1132896  32.0295049 115.2840020
  37.5406863  32.6485236 114.8310492  38.6865689  32.5794411 115.8179942
  41.3330156  32.3132199 116.4148602  42.2660829  32.2477761 116.6181478
  41.2453368  33.1488466 115.9563135  43.9618172  31.6298070 113.3752550
  43.8831804  31.2957933 114.2688308  44.7827839  32.1219837 113.3744022
  38.4979694  23.3655862 112.6256072  39.4438799  23.2362070 112.6944491
  38.1193939  22.6270524 113.1025501  36.6822611  21.2905838 112.5610958
  35.7754067  20.9938951 112.6373671  36.9598592  20.9935656 111.6945244
  41.5322124  28.9466065 112.9962528  42.2357974  29.1516067 113.6120184
  40.8084773  29.5142827 113.2611612  43.4408821  29.3848594 115.0460988
  44.2754425  28.9529793 114.8638463  43.2793164  29.2130608 115.9737883
  43.0954714  25.8880707 116.4117328  43.0403517  25.7224979 115.4705772
  42.4700769  26.5956740 116.5679517  52.0693096  39.9018245 125.1416165
  52.7071506  39.7824993 124.4379505  51.9513939  40.8499089 125.2004117
  48.8782803  39.8545673 125.0777690  48.5401314  39.7386738 124.1898225
  49.7472571  39.4536838 125.0578696  44.7369618  41.7081150 121.0674581
  44.1734484  41.6171087 120.2990868  44.6222014  40.8881054 121.5477073
  42.2834050  43.2032341 123.9058801  43.0755342  42.8623166 123.4905100
  42.5230701  43.3127316 124.8260954  50.3169177  45.3752117 116.3789046
  49.6657157  45.9606198 115.9923059  51.1113540  45.9058312 116.4384083
  44.2424804  42.4641255 116.7776180  45.0155680  41.9170242 116.6389056
  44.5950203  43.3285504 116.9890641  46.0809847  43.7917637 129.9843079
  45.7899713  44.6963268 129.8689745  46.7166831  43.8334165 130.6987149
  47.0066054  41.1694485 126.5744439  47.6029626  40.9450508 125.8601402
  47.0641025  40.4279231 127.1769887  46.5791082  38.6233921 114.4094630
  46.8316603  38.1015442 113.6478093  45.6415641  38.4600066 114.5121313
  51.6234365  37.6269699 122.2169373  52.4097454  37.2089122 121.8659790
  51.8873069  38.5315791 122.3851021  51.7944442  43.0642549 116.9158030
  51.1590275  43.1377176 117.6278934  51.4641849  43.6536148 116.2377109
  57.0242792  37.5644932 123.1202352  57.7567964  36.9944149 123.3540181
  56.2682148  37.1766533 123.5608857  46.2987371  40.5262027 116.6119005
  46.1823629  39.8506930 117.2800089  46.4089631  40.0394401 115.7951158
  48.6418912  39.9872174 120.3165694  48.2777119  39.4602795 121.0278615
  49.4986028  39.5970643 120.1432179  48.2824399  35.0162073 115.3127042
  48.4498801  35.8842310 115.6797514  48.0921568  35.1789355 114.3888332
  51.0399732  43.4779052 126.9792873  50.7400455  44.3804091 126.8708680
  50.6950792  43.2111236 127.8314026  44.4912213  39.9292849 123.0129577
  43.5662710  39.7969063 123.2207269  44.7396627  40.7087068 123.5099520
  54.4396876  35.9961593 124.6590310  53.5313753  35.9277001 124.3649071
  54.3884472  36.4733538 125.4872136  48.2613620  37.4719731 116.2973709
  48.1413245  37.9176782 117.1359190  47.5666208  37.8205049 115.7387247
  41.8521025  39.5726123 123.8473366  41.9813406  39.8260602 124.7612778
  41.1718476  40.1653831 123.5278021  56.3058522  34.1978031 126.4368184
  55.6632902  34.4910564 125.7907979  55.8013451  34.0830951 127.2421381
  53.9598686  37.9441204 117.1254043  54.8716542  38.1768591 116.9501741
  53.4508333  38.5278248 116.5629122  52.2439454  42.3665832 130.7615336
  52.6522810  41.9248243 130.0169968  51.5216715  41.7918460 131.0149529
  52.5668268  42.9267023 124.5167625  51.9377131  43.0912737 123.8143693
  52.1793930  43.3408632 125.2878589  53.7008432  41.5081420 128.4707332
  53.9125327  42.1513179 127.7941713  53.6538180  40.6743736 128.0029262
  51.3034661  34.1199240 125.3743904  50.4419140  34.4180494 125.6660642
  51.3297095  34.3369639 124.4424937  48.1196230  42.6641431 121.7817710
  48.5834576  42.9429134 120.9922332  47.8553028  41.7624875 121.5990801
  45.0120311  42.2112912 124.7197473  45.5821668  42.6400181 124.0814958
  45.6028423  41.9295497 125.4181659  47.0565116  38.7864583 118.5907275
  47.7589159  39.2385627 119.0581201  46.7245745  38.1448402 119.2187168
  40.7990450  37.0448136 123.8924409  40.0089504  37.3005664 123.4164519
  41.2901697  37.8596474 123.9976449  54.8154260  44.3853375 126.6429689
  55.6371703  43.9833562 126.3612371  54.8116662  44.2821609 127.5945805
  42.7505195  37.4092715 120.8507885  41.9536359  37.5211409 121.3691381
  42.5230788  37.7479367 119.9848776  48.5810863  43.9337418 128.7990400
  48.6455296  44.3957825 129.6348572  47.8721787  43.3034783 128.9272710
  62.9060253  40.7292123 122.9914661  62.1523961  40.1599521 122.8358665
  63.0407794  40.6954788 123.9385296  48.2958881  45.6005526 118.6669380
  48.1604555  46.4457061 119.0954228  48.8368693  45.8024803 117.9035314
  41.7488278  43.1180964 119.2397305  42.2612799  43.9124214 119.3902870
  42.4010991  42.4207254 119.1730907  43.5583163  46.2346720 121.3220059
  43.7349791  47.1564685 121.1341042  44.3539996  45.9205139 121.7514438
  49.9227357  46.2229092 132.7969722  49.4791211  45.4365471 132.4790627
  50.5844571  46.4108243 132.1313613  44.6814478  47.7524894 127.3230401
  45.2321903  47.6241957 126.5507395  43.8425954  48.0519783 126.9725294
  52.0208595  46.5031892 130.8251124  52.0027070  47.3240773 130.3331393
  52.9428515  46.3785967 131.0501265  39.7137195  41.4469618 120.0156876
  40.5512417  41.8566626 119.7990584  39.8915463  40.5069060 119.9857070
  51.6101627  39.1144699 115.7040709  51.0948250  39.8849303 115.9429096
  51.3378935  38.4409835 116.3273770  49.1948738  33.9594399 120.7625947
  48.3390334  33.5701250 120.5831586  49.6075690  34.0386360 119.9025733
  50.7247885  31.4940743 125.1617507  50.2212680  31.4570878 124.3485312
  51.0178492  32.4033485 125.2214164  56.5835901  41.8677053 117.6393882
  55.8065344  41.5288213 117.1949044  57.2627382  41.8729677 116.9648847
  51.3987930  36.9871791 117.5300490  51.0938066  37.3017940 118.3810633
  52.3518372  37.0653211 117.5727823  49.8434362  43.1462014 119.1793444
  49.3155724  42.4114774 118.8666681  49.3421865  43.9236690 118.9333412
  54.8227208  41.3411035 124.2960490  54.1650882  42.0310296 124.3840619
  55.6267607  41.7307467 124.6394477  44.5753090  33.8081680 121.5400056
  45.1496842  33.5856862 120.8073248  45.1624072  33.8770375 122.2928657
  53.6332667  39.6955407 122.3464432  54.1464549  40.3285399 122.8486142
  54.2833891  39.0956603 121.9807792  44.9022677  35.8386141 115.5595941
  44.0659989  36.1760828 115.8805216  44.7627446  35.7035121 114.6223078
  46.8775757  30.6822929 120.2675125  46.2240170  30.3671946 119.6431740
  46.8356231  30.0598670 120.9934948  47.9886962  40.9642224 112.1828417
  47.0814024  40.7331478 112.3819566  48.4857994  40.1679844 112.3702399
  50.8955041  49.6739732 115.1025103  50.2216740  49.9771428 115.7110061
  51.2820863  50.4768812 114.7530560  50.1113498  37.1704863 124.5922773
  49.1936059  37.3919810 124.4344461  50.5273641  37.2451173 123.7334480
  50.8948545  38.5696279 119.7225453  51.6420364  39.0817676 119.4132575
  51.1640135  38.2480331 120.5829846  49.1675196  41.0654819 116.7052407
  48.2586415  40.7813852 116.8024877  49.1970279  41.4853898 115.8455714
  53.3427383  35.6053395 121.7044242  52.6050139  35.0930781 122.0354485
  53.5954156  35.1653776 120.8927519  53.4439010  28.3829647 122.2986011
  53.7497887  27.5227010 122.0111927  54.1691615  28.9747267 122.0985005
  39.7363366  38.7860333 120.6867609  39.5387766  38.1929694 119.9618676
  39.1810030  38.4812544 121.4043548  47.7160090  38.6783440 122.8062202
  47.7708699  37.7257276 122.7304679  46.9051292  38.8342879 123.2903501
  48.8651283  42.6063563 114.0440486  48.4270713  41.8899422 113.5846123
  49.6061724  42.8339678 113.4825577  45.6552450  37.2960500 120.5652581
  44.8420315  37.5954670 120.9717774  46.1511444  36.9016188 121.2827064
  47.8061027  47.2918257 122.4986846  47.7637206  47.5179103 121.5695378
  48.7223726  47.0581631 122.6472647  56.9824398  40.8820760 120.1016804
  56.8442297  41.0722356 119.1737994  56.6260617  41.6440143 120.5584855
  57.0093778  42.9497287 125.1128076  57.4430284  42.8572576 125.9611130
  57.7225359  42.9254787 124.4748092  45.9226828  44.1681286 122.2948809
  46.7167427  43.6731606 122.0931384  45.2118521  43.6399149 121.9316514
  50.7421673  46.5499381 126.6461176  50.7958695  47.1190317 127.4138892
  49.8736454  46.7201266 126.2815214  42.2309592  38.3124367 118.3708561
  41.3007180  38.2508823 118.5878524  42.3267064  37.7900320 117.5745203
  42.1495141  34.8379180 120.9586803  42.4101958  35.7524513 120.8495964
  42.9712313  34.3703623 121.1083416  57.8709327  42.9920988 127.6460961
  58.0645217  43.8966798 127.8920236  57.7709946  42.5328407 128.4799546
  52.9324436  43.1427730 133.2201842  52.7809942  42.9138282 132.3031925
  52.9229116  44.0998332 133.2333187  49.7009772  40.7159643 128.2048108
  50.6301832  40.8670803 128.0317076  49.2800802  40.8043664 127.3496755
  48.4998104  44.7410308 125.9746646  48.3609190  44.3729092 126.8472584
  47.7112700  45.2557947 125.8030604  50.0503319  44.1191910 123.3635484
  49.7153152  44.0792680 124.2593134  49.5507265  43.4536626 122.8905894
  52.9862511  41.4647945 113.6372543  52.3691682  40.7394773 113.5405596
  52.5179000  42.2257305 113.2939618  54.6416643  46.1746853 131.2978324
  54.5829189  45.4906073 130.6308907  55.0436161  46.9165843 130.8458950
  43.6607342  52.9908767 124.0912043  43.9003940  53.6227291 124.7691061
  42.8176538  52.6396807 124.3777402  44.7761057  35.6833369 112.7593848
  43.8990523  35.5622170 112.3956094  45.2518810  34.8919447 112.5072736
  54.6434050  44.1386437 129.5292303  53.7560829  43.8012359 129.6518702
  55.2132601  43.4069468 129.7661069  36.2963197  40.4710529 122.8535355
  36.9834237  40.1572259 122.2656370  36.1411326  41.3751893 122.5802606
  48.1735203  48.7987889 126.4953547  48.1005375  49.6042861 127.0072851
  47.7312596  48.9979855 125.6701568  47.9624983  48.0359659 120.0056368
  47.1792505  48.5781339 120.0994593  48.6617728  48.5533639 120.4050609
  51.2721633  33.8454289 122.6490573  51.7690333  33.0924251 122.3291644
  50.5008615  33.8818605 122.0833783  59.1251391  39.5494654 124.2908865
  59.1141267  40.4319370 123.9202798  58.2568770  39.1966205 124.0963402
  50.6333887  48.6974723 128.6511705  51.3461859  49.3322188 128.5787607
  50.1423916  48.7938589 127.8351707  52.3551414  42.6025976 120.2228997
  51.4207693  42.7227438 120.0533701  52.5328082  41.6998443 119.9589007
  47.8556602  35.9871672 122.3762258  47.4854389  35.4342712 123.0643164
  48.3515694  35.3829805 121.8237258  55.7423965  38.4443295 120.7579031
  56.2084417  39.2771287 120.6839334  56.1931466  37.9788277 121.4624290
  45.6845800  46.4469167 129.4717276  46.3855260  47.0805650 129.6246670
  45.2140915  46.7883898 128.7112915  53.7140628  30.8123882 124.7969932
  52.8003708  31.0428109 124.9652139  54.1433729  30.8962326 125.6483965
  53.4847086  39.0013774 127.2969826  52.8318537  39.2489682 126.6422279
  53.8627466  38.1877912 126.9632304  41.2813518  45.9805522 126.4048379
  41.8666955  45.2349210 126.5376283  41.0838357  46.2909478 127.2885043
  44.1352174  49.0156769 121.4210821  43.4662549  49.5002897 120.9374861
  43.9965043  49.2625990 122.3354200  48.2757442  51.0500513 128.0193479
  48.8275750  51.2132134 128.7842565  48.6163636  51.6404950 127.3473504
  53.1268317  45.8761770 133.8742134  53.6708221  46.4891728 133.3797089
  52.5455161  46.4341349 134.3909147  39.5039751  37.2775224 118.2006753
  39.7993192  36.3685903 118.1473807  38.6027787  37.2562964 117.8787756
  51.4125830  48.9982488 125.0057162  51.2876969  48.1972228 124.4968107
  52.0704921  49.4928682 124.5171132  43.0333998  35.3531221 124.1834302
  42.3120584  35.9667188 124.0441775  43.8227254  35.8888986 124.1050948
  53.4760738  46.7991508 126.6336712  52.5291073  46.6796859 126.5615038
  53.8243511  45.9114006 126.7162973  41.2327592  34.9589322 118.3246078
  40.9040299  34.0786701 118.1421184  41.5866963  34.9036990 119.2122468
  50.4807171  46.5944224 122.8341064  50.3332134  45.6660932 123.0148634
  51.3060665  46.6164315 122.3498139  44.3469416  35.2462292 118.6921556
  44.6865488  35.7748213 117.9700164  44.7941536  35.5842698 119.4680123
  54.0841293  47.4172783 123.9205937  55.0087841  47.2115645 123.7830388
  53.9156596  47.1689184 124.8295278  46.3337563  33.7436913 116.8914849
  47.0545925  34.1218166 116.3878566  45.7102867  34.4625790 116.9949827
  50.4768686  34.4482062 117.8273181  50.6932300  35.3306700 117.5262009
  49.9962753  34.0568276 117.0978823  45.2167907  37.4067775 124.4043926
  45.0712488  37.7208078 125.2968207  44.7393111  38.0252676 123.8514824
  47.0764290  34.3970323 124.4524815  47.0625859  33.5011417 124.1157113
  47.7936718  34.4040987 125.0863101  46.4801186  33.2784704 119.7212385
  46.6017097  32.3501350 119.9203273  46.1903228  33.2923390 118.8090701
  49.3492376  30.9639614 122.8579105  49.3714073  31.0278947 121.9031085
  49.7660435  30.1244123 123.0519611  59.7276000  40.6994874 120.8958328
  60.1707147  39.9502199 120.4977451  58.8502511  40.6905010 120.5132060
  48.4223254  48.6158994 130.0342134  48.7310380  48.3708141 130.9064833
  49.2198736  48.8205633 129.5461004  40.9236205  46.9608445 122.2672138
  41.7494225  46.6612217 121.8870782  40.5730257  46.1916067 122.7161927
  45.8917738  46.3134913 124.3369812  45.2697747  45.6505618 124.0372040
  46.5622605  46.3396045 123.6543460  39.1244810  44.8794771 123.2261072
  38.2876718  44.4516946 123.0445073  39.0968455  45.0727215 124.1631863
  56.4497111  45.3357824 133.2103455  55.6592655  45.3181963 132.6707955
  56.2130466  45.8746118 133.9652492  56.5694986  42.1850291 130.5236184
  56.6192991  42.0200298 131.4651706  56.4608909  41.3177550 130.1334064
  45.4531245  44.8638836 117.8128273  45.6019365  45.5474301 117.1594945
  46.2597688  44.8443926 118.3277728  58.0713183  44.6047232 130.7678205
  57.7797991  44.9677213 131.6041666  57.4585314  43.8914240 130.5891537
  59.2708865  42.1700112 123.2880775  60.1055757  42.6089916 123.4518336
  59.4067994  41.6938765 122.4689021  56.3200371  39.7279847 129.2358263
  56.7954493  39.9207493 128.4277115  55.3965936  39.7839033 128.9901647
  43.2083878  40.8904014 118.8189341  42.9629920  39.9866344 119.0169552
  43.3779792  40.8921164 117.8768819  42.4779525  36.6232372 116.3175503
  41.7848770  36.6976727 115.6615539  42.2331277  35.8592715 116.8397020
  48.9526650  47.3586967 115.2840020  48.3800617  47.9777154 114.8310492
  49.5259444  47.9086328 115.8179942  55.0202040  36.6045607 127.4686569
  55.9719463  36.7043705 127.4898793  54.8505491  35.8123875 127.9784653
  53.0416420  33.6901190 127.6545970  52.4466352  33.9706203 126.9592458
  52.7566116  34.1795091 128.4262711  52.1723910  47.6424117 116.4148602
  53.1054583  47.5769679 116.6181478  52.0847123  48.4780384 115.9563135
  54.8011927  46.9589987 113.3752550  54.7225558  46.6249851 114.2688308
  55.6221593  47.4511755 113.3744022  57.4990118  39.8251727 126.5828868
  57.4666438  38.8867727 126.7688552  58.1090742  39.9035763 125.8494693
  49.3373449  38.6947780 112.6256072  50.2832553  38.5653988 112.6944491
  48.9587694  37.9562441 113.1025501  57.6484606  36.6162770 126.6287152
  57.1323655  35.8321227 126.4417081  58.5324555  36.2881487 126.7933671
  55.3095333  30.3603786 122.5882964  55.1120154  30.0518874 123.4726296
  55.9195039  31.0865424 122.7180894  63.3166668  40.8867733 125.7234905
  64.0470056  40.6253022 126.2842609  62.7073613  40.1496455 125.7636973
  61.3981965  39.0275596 126.3209356  60.6715128  38.8931561 125.7125848
  60.9829252  39.3352425 127.1266074  47.5216366  36.6197756 112.5610958
  46.6147821  36.3230869 112.6373671  47.7992347  36.3227574 111.6945244
  38.4394306  37.9404119 123.0110004  38.1197091  37.0869427 122.7184378
  37.8927734  38.1552697 123.7667971  42.2174214  40.6566560 126.7279511
  42.4360224  41.5883668 126.7467544  42.6299988  40.2974535 127.5134314
  49.1378432  31.1634646 118.7155199  48.3279160  30.8181731 119.0910445
  49.8262849  30.8542189 119.3042811  51.0668980  30.2412692 120.3379496
  51.6200019  30.6608146 120.9969519  51.3039066  29.3148441 120.3802452
  46.2915151  33.4784691 112.7022937  47.1534315  33.8039589 112.9618754
  46.4765495  32.6916187 112.1896003  38.3082566  41.5607031 124.9803126
  37.6146038  41.1460984 124.4673080  39.0555557  41.6027567 124.3836545
  54.4447787  32.3513218 119.8458160  53.8646456  33.0098022 119.4636212
  54.1783720  31.5290562 119.4345577  52.8951353  31.7518275 122.0479480
  53.3951132  31.8634810 121.2393799  53.5386961  31.4479328 122.6880289
  40.2219309  41.4925285 122.8569141  40.1989997  41.5912972 121.9051024
  40.5319945  42.3390435 123.1786307  42.8806687  43.5501440 126.9715755
  43.8349940  43.5185382 126.9045687  42.6819210  43.0892063 127.7865981
  53.2272665  34.5113308 118.9014508  52.3398520  34.7962959 118.6834703
  53.6426654  34.3507071 118.0541785  56.5787201  34.5359829 122.6168847
  57.3547591  35.0256281 122.8893464  55.8535335  34.9617883 123.0740717
  59.0159760  35.2487448 123.6742788  59.6104251  35.0083184 122.9636096
  59.0886343  34.5294579 124.3016324  41.2356915  49.0921059 123.9885953
  41.1011383  48.3321460 123.4223951  40.8188978  49.8161959 123.5214742
  52.3715878  44.2757983 112.9962528  53.0751729  44.4807985 113.6120184
  51.6478527  44.8434745 113.2611612  53.2013689  40.0267844 119.1164798
  53.1448890  40.4836395 118.2772431  53.7542031  39.2658528 118.9387641
  57.0118495  35.8157576 119.9414918  56.7555429  35.4154211 120.7723126
  56.3871363  36.5301370 119.8165057  61.3230833  38.5553649 122.4486209
  60.7630391  38.6246838 123.2217771  60.7174336  38.3794634 121.7285705
  44.3926041  49.9890376 124.2004396  44.2758425  50.9335809 124.0983086
  43.5718488  49.6863938 124.5890195  53.9348468  41.2172625 116.4117328
  53.8797272  41.0516897 115.4705772  53.3094523  41.9248658 116.5679517
  47.2444594  30.7180734 115.9902646  47.2323263  31.6622574 116.1470917
  48.1368015  30.5350880 115.6962107  45.4180555  50.6418638 127.4160324
  46.3207802  50.6742248 127.7326819  45.1917926  49.7119089 127.4306660
  47.1734157  49.3949625 124.0770403  46.2229789  49.3951486 123.9634775
  47.4766644  48.6482359 123.5606437  51.0596713  27.3123511 120.2448583
  50.2929109  26.7581997 120.3905265  51.4707418  27.3845380 121.1062734
  60.1996340  56.3372443 131.0363895  60.1884981  55.9425241 130.1644399
  60.3616980  55.6038515 131.6297667  65.3861967  46.6058424 127.5796960
  65.0545292  47.4753835 127.3558175  64.7907580  46.2894708 128.2590991
  59.3531496  52.7443156 132.6025207  58.5764830  53.3037076 132.5928072
  59.9922059  53.2299939 133.1240078  63.0833208  57.6957750 130.7615336
  63.4916564  57.2540160 130.0169968  62.3610469  57.1210377 131.0149529
  62.5863723  50.2934725 129.7930067  62.3424655  51.0476785 129.2564342
  62.8623654  50.6720072 130.6277314  64.5402186  56.8373337 128.4707332
  64.7519081  57.4805097 127.7941713  64.4931934  56.0035654 128.0029262
  56.3439232  52.7068257 132.9658484  55.7137893  53.3884538 133.1993881
  56.2375320  52.5951339 132.0211623  73.7454007  56.0584041 122.9914661
  72.9917716  55.4891439 122.8358665  73.8801548  56.0246706 123.9385296
  55.6219975  47.0089023 135.3283735  55.2286920  46.4555222 136.0031380
  56.4386115  47.3199602 135.7190253  58.5387936  48.4246902 132.9203992
  59.2797649  49.0254055 132.8408455  58.7705859  47.6824540 132.3622035
  53.6829274  53.6103270 131.1982222  53.5682789  52.7088527 131.4989321
  52.8273792  53.8566966 130.8467038  60.7621112  61.5521010 132.7969722
  60.3184966  60.7657388 132.4790627  61.4238325  61.7400160 132.1313613
  62.8602350  61.8323810 130.8251124  62.8420825  62.6532691 130.3331393
  63.7822270  61.7077885 131.0501265  62.4845099  44.4528005 127.1968274
  62.1409368  45.3429647 127.1207384  62.8524061  44.2629663 126.3337859
  61.5641639  46.8232660 125.1617507  61.0606435  46.7862796 124.3485312
  61.8572246  47.7325403 125.2214164  57.8084525  46.9071390 124.1683689
  58.6737522  46.7114199 123.8089578  57.8762034  46.6781742 125.0953045
  64.2832764  43.7121564 122.2986011  64.5891641  42.8518928 122.0111927
  65.0085369  44.3039185 122.0985005  55.9860279  50.1970773 126.1813816
  56.6259658  50.0559532 125.4836780  55.1537809  49.9105286 125.8052418
  54.4613821  51.5808855 128.1285628  55.1336874  51.3726217 127.4798277
  53.6343607  51.3830941 127.6890860  60.3639393  48.2070796 130.1451289
  59.7167308  48.9060746 130.0515765  61.1340408  48.6406940 130.5127537
  63.7718191  58.4719648 133.2201842  63.6203697  58.2430200 132.3031925
  63.7622870  59.4290249 133.2333187  65.4810397  61.5038771 131.2978324
  65.4222943  60.8197991 130.6308907  65.8829916  62.2457761 130.8458950
  56.2052552  51.5536635 130.1967384  55.6689910  51.1027374 130.8488980
  55.6169261  51.6882544 129.4537848  54.5001096  68.3200684 124.0912043
  54.7397694  68.9519209 124.7691061  53.6570292  67.9688724 124.3777402
  65.4827804  59.4678355 129.5292303  64.5954583  59.1304276 129.6518702
  66.0526356  58.7361386 129.7661069  51.9391674  50.6892643 127.2820378
  51.8549862  50.0818312 126.5470788  51.1174380  51.1801661 127.2829875
  64.5534382  46.1415800 124.7969932  63.6397462  46.3720027 124.9652139
  64.9827484  46.2254244 125.6483965  60.3728414  55.0725503 133.7835863
  59.6969051  54.9719632 134.4538239  61.1956048  54.9164717 134.2471861
  59.1151197  66.3792430 128.0193479  59.6669505  66.5424052 128.7842565
  59.4557390  66.9696868 127.3473504  54.0915690  48.7267580 128.6215364
  54.1557016  49.5882411 128.2092762  54.0282810  48.1141582 127.8887723
  53.5667963  50.7990713 132.2688398  54.1940001  50.4167790 132.8825923
  52.7095881  50.5804915 132.6344091  63.9662071  61.2053688 133.8742134
  64.5101975  61.8183646 133.3797089  63.3848916  61.7633266 134.3909147
  53.8727752  50.6823138 124.1834302  53.1514338  51.2959106 124.0441775
  54.6621008  51.2180903 124.1050948  56.6754066  48.0177565 130.4574954
  57.1988468  48.2639861 131.2201263  56.4566399  48.8497600 130.0378091
  58.5323083  46.0440572 126.5951947  59.3549152  45.5701051 126.4730837
  58.7761146  46.8231056 127.0950633  56.0561661  52.7359693 124.4043926
  55.9106242  53.0499996 125.2968207  55.5786865  53.3544593 123.8514824
  60.1886131  46.2931532 122.8579105  60.2107827  46.3570865 121.9031085
  60.6054190  45.4536040 123.0519611  56.8036020  50.1208619 133.9302318
  56.8524175  50.9970741 133.5480088  57.3458534  49.5786012 133.3573961
  67.2890865  60.6649742 133.2103455  66.4986409  60.6473881 132.6707955
  67.0524220  61.2038036 133.9652492  67.4088741  57.5142208 130.5236184
  67.4586745  57.3492216 131.4651706  67.3002664  56.6469467 130.1334064
  64.6992503  53.4973136 131.8395490  65.6002366  53.3579601 131.5479488
  64.7740477  53.6627591 132.7793668  59.0335308  50.8739991 130.6848677
  58.1638618  51.1673557 130.4131265  59.2694789  51.4580436 131.4055940
  68.9106937  59.9339150 130.7678205  68.6191746  60.2969130 131.6041666
  68.2979069  59.2206158 130.5891537  61.7374342  47.0919608 128.2014097
  62.2556286  47.8280635 127.8760586  61.3829475  47.3983601 129.0360856
  61.9886936  43.5119891 123.7214994  62.2688690  42.8443080 124.3475420
  62.7737543  43.7048986 123.2089658  63.8810174  49.0193108 127.6545970
  63.2860106  49.2998120 126.9592458  63.5959871  49.5087009 128.4262711
  74.1560422  56.2159651 125.7234905  74.8863811  55.9544939 126.2842609
  73.5467368  55.4788373 125.7636973  60.0605896  58.0757443 134.0856729
  60.9808905  58.2536042 134.2796776  60.0255479  57.1313489 133.9336429
  57.9295834  51.5591684 136.1182260  57.8292561  52.5086041 136.0494351
  57.7117376  51.2309923 135.2458330  57.1308905  48.8076609 112.7022937
  57.9928069  49.1331507 112.9618754  57.3159249  48.0208105 112.1896003
  57.7927104  54.9888823 134.9347321  57.3094185  55.7889183 135.1411210
  57.8788043  54.9996767 133.9814765  54.3099823  57.4494473 129.5386553
  55.1292712  57.9438552 129.5621390  54.5836631  56.5326441 129.5104120
  49.5634738  51.7832607 130.2378750  50.2093601  51.2731561 130.7265975
  49.3551889  52.5201289 130.8122175  62.0888130  58.8513455 135.7370890
  62.9579289  59.0254107 135.3757525  61.6094881  59.6707872 135.6146620
  61.8990467  42.6415428 120.2448583  61.1322863  42.0873915 120.3905265
  62.3101172  42.7137297 121.1062734  53.9032229  48.9300224 134.3353764
  54.7663690  48.5737029 134.5457089  53.3297639  48.5914119 135.0229168
  73.7480605  70.5602081 125.1416165  74.3859015  70.4408828 124.4379505
  73.6301448  71.5082925 125.2004117  70.5570312  70.5129509 125.0777690
  70.2188823  70.3970573 124.1898225  71.4260080  70.1120674 125.0578696
  71.0390095  71.6664360 131.0363895  71.0278736  71.2717159 130.1644399
  71.2010734  70.9330433 131.6297667  67.7597356  74.4501472 129.9843079
  67.4687222  75.3547103 129.8689745  68.3954340  74.4918000 130.6987149
  68.6853563  71.8278321 126.5744439  69.2817135  71.6034343 125.8601402
  68.7428534  71.0863066 127.1769887  76.2255721  61.9350342 127.5796960
  75.8939046  62.8045753 127.3558175  75.6301335  61.6186626 128.2590991
  72.7187241  74.1362888 126.9792873  72.4187964  75.0387927 126.8708680
  72.3738300  73.8695071 127.8314026  76.1184385  66.6545428 124.6590310
  75.2101262  66.5860836 124.3649071  76.0671981  67.1317373 125.4872136
  63.5308533  70.2309958 123.8473366  63.6600915  70.4844437 124.7612778
  62.8505985  70.8237666 123.5278021  67.7008021  80.9007208 119.9463841
  67.6232050  81.8515033 120.0252321  67.0969664  80.5553081 120.6038767
  70.1925251  68.0735074 132.6025207  69.4158585  68.6328994 132.5928072
  70.8315814  68.5591857 133.1240078  77.9846031  64.8561866 126.4368184
  77.3420411  65.1494400 125.7907979  77.4800960  64.7414787 127.2421381
  68.4471623  70.8820527 132.1643174  69.1886307  71.4205571 131.8877998
  67.7408608  71.5086816 132.3214726  73.9226962  73.0249667 130.7615336
  74.3310319  72.5832078 130.0169968  73.2004224  72.4502295 131.0149529
  70.2758033  67.9622274 128.1348893  71.1219228  68.3861688 128.2783542
  70.2156670  67.3055898 128.8287456  74.2455777  73.5850858 124.5167625
  73.6164640  73.7496572 123.8143693  73.8581439  73.9992468 125.2878589
  73.4257478  65.6226642 129.7930067  73.1818410  66.3768703 129.2564342
  73.7017408  66.0011990 130.6277314  75.3795941  72.1665255 128.4707332
  75.5912836  72.8097015 127.7941713  75.3325689  71.3327571 128.0029262
  72.9822170  64.7783076 125.3743904  72.1206649  65.0764329 125.6660642
  73.0084604  64.9953474 124.4424937  69.7983739  73.3225266 121.7817710
  70.2622085  73.6012969 120.9922332  69.5340537  72.4208711 121.5990801
  66.6907820  72.8696748 124.7197473  67.2609177  73.2984016 124.0814958
  67.2815932  72.5879332 125.4181659  67.1832987  68.0360175 132.9658484
  66.5531647  68.7176456 133.1993881  67.0769074  67.9243257 132.0211623
  76.4941769  75.0437210 126.6429689  77.3159212  74.6417398 126.3612371
  76.4904171  74.9405444 127.5945805  70.2598372  74.5921254 128.7990400
  70.3242805  75.0541661 129.6348572  69.5509296  73.9618618 128.9272710
  84.5847762  71.3875959 122.9914661  83.8311470  70.8183357 122.8358665
  84.7195303  71.3538623 123.9385296  69.9746390  76.2589361 118.6669380
  69.8392064  77.1040897 119.0954228  70.5156202  76.4608639 117.9035314
  66.4613729  62.3380941 135.3283735  66.0680675  61.7847139 136.0031380
  67.2779870  62.6491519 135.7190253  69.3781690  63.7538820 132.9203992
  70.1191404  64.3545973 132.8408455  69.6099613  63.0116458 132.3622035
  64.5223028  68.9395187 131.1982222  64.4076543  68.0380445 131.4989321
  63.6667546  69.1858884 130.8467038  71.6014866  76.8812928 132.7969722
  71.1578720  76.0949306 132.4790627  72.2632080  77.0692078 132.1313613
  66.3601987  78.4108729 127.3230401  66.9109412  78.2825793 126.5507395
  65.5213463  78.7103618 126.9725294  73.6996104  77.1615728 130.8251124
  73.6814579  77.9824609 130.3331393  74.6216024  77.0369803 131.0501265
  70.1569158  74.6759857 131.6674632  70.6897495  73.9148145 131.4373940
  69.6283239  74.3833509 132.4098786  73.3238853  59.7819923 127.1968274
  72.9803123  60.6721565 127.1207384  73.6917816  59.5921581 126.3337859
  72.4035394  62.1524578 125.1617507  71.9000189  62.1154713 124.3485312
  72.6966001  63.0617321 125.2214164  71.5221871  73.8045849 119.1793444
  70.9943233  73.0698609 118.8666681  71.0209374  74.5820526 118.9333412
  76.5014717  71.9994870 124.2960490  75.8438391  72.6894131 124.3840619
  77.3055116  72.3891302 124.6394477  71.7901007  67.8288698 124.5922773
  70.8723568  68.0503645 124.4344461  72.2061150  67.9035009 123.7334480
  74.5214911  77.1721741 121.4093393  74.8137886  77.7326798 120.6905758
  75.0313532  77.4650302 122.1646552  75.1226519  59.0413482 122.2986011
  75.4285396  58.1810846 122.0111927  75.8479124  59.6331102 122.0985005
  69.4848536  77.9502092 122.4986846  69.4424715  78.1762938 121.5695378
  70.4011235  77.7165466 122.6472647  72.9314170  68.4186159 129.3967475
  73.2863558  68.6457633 130.2561941  73.5786301  68.7504536 128.7744731
  78.6881287  73.6081122 125.1128076  79.1217793  73.5156411 125.9611130
  79.4012868  73.5838623 124.4748092  72.4209182  77.2083216 126.6461176
  72.4746204  77.7774153 127.4138892  71.5523963  77.3785101 126.2815214
  79.5496836  73.6504823 127.6460961  79.7432726  74.5550633 127.8920236
  79.4497455  73.1912242 128.4799546  71.2033147  63.5362714 130.1451289
  70.5561062  64.2352663 130.0515765  71.9734162  63.9698857 130.5127537
  74.6111945  73.8011566 133.2201842  74.4597451  73.5722117 132.3031925
  74.6016625  74.7582167 133.2333187  71.3797281  71.3743478 128.2048108
  72.3089341  71.5254638 128.0317076  70.9588311  71.4627499 127.3496755
  70.1785613  75.3994143 125.9746646  70.0396699  75.0312927 126.8472584
  69.3900209  75.9141782 125.8030604  70.7733765  80.5003239 117.3172182
  70.9485521  80.0291283 118.1317805  70.0866553  81.1269006 117.5453443
  71.7290828  74.7775746 123.3635484  71.3940661  74.7376516 124.2593134
  71.2294774  74.1120461 122.8905894  65.7035072  70.1843376 128.8888065
  65.5654870  69.4523614 129.4899604  66.6139996  70.0952276 128.6072253
  68.3317373  69.8963335 128.3771744  69.0416992  69.2556527 128.3358363
  68.2886681  70.1476230 129.2997925  76.3204152  76.8330688 131.2978324
  76.2616698  76.1489908 130.6308907  76.7223670  77.5749678 130.8458950
  67.0446307  66.8828553 130.1967384  66.5083664  66.4319291 130.8488980
  66.4563015  67.0174462 129.4537848  65.3394850  83.6492602 124.0912043
  65.5791449  84.2811126 124.7691061  64.4964047  83.2980642 124.3777402
  76.3221559  74.7970272 129.5292303  75.4348338  74.4596194 129.6518702
  76.8920110  74.0653303 129.7661069  62.7785428  66.0184561 127.2820378
  62.6943617  65.4110230 126.5470788  61.9568135  66.5093579 127.2829875
  69.8522712  79.4571725 126.4953547  69.7792884  80.2626696 127.0072851
  69.4100105  79.6563690 125.6701568  69.6412492  78.6943495 120.0056368
  68.8580014  79.2365175 120.0994593  70.3405237  79.2117474 120.4050609
  72.9509142  64.5038124 122.6490573  73.4477842  63.7508086 122.3291644
  72.1796124  64.5402441 122.0833783  80.8038899  70.2078490 124.2908865
  80.7928776  71.0903205 123.9202798  79.9356279  69.8550040 124.0963402
  72.3121396  79.3558559 128.6511705  73.0249368  79.9906023 128.5787607
  71.8211425  79.4522425 127.8351707  74.0338923  73.2609811 120.2228997
  73.0995202  73.3811274 120.0533701  74.2115591  72.3582278 119.9589007
  67.3633309  77.1053002 129.4717276  68.0642769  77.7389485 129.6246670
  66.8928424  77.4467734 128.7112915  75.3928137  61.4707718 124.7969932
  74.4791217  61.7011944 124.9652139  75.8221238  61.5546162 125.6483965
  75.1634595  69.6597609 127.2969826  74.5106046  69.9073517 126.6422279
  75.5414975  68.8461748 126.9632304  72.1241769  79.6957303 121.3997997
  72.3064164  78.8778959 121.8625749  72.9474755  79.9124995 120.9622887
  72.4583935  78.6225488 118.6613045  72.9871701  78.1117942 118.0483207
  72.7212154  78.3068018 119.5258578  71.2122168  70.4017421 133.7835863
  70.5362805  70.3011550 134.4538239  72.0349802  70.2456634 134.2471861
  62.9601027  76.6389357 126.4048379  63.5454464  75.8933045 126.5376283
  62.7625866  76.9493314 127.2885043  65.8139683  79.6740604 121.4210821
  65.1450058  80.1586732 120.9374861  65.6752552  79.9209825 122.3354200
  69.9544951  81.7084348 128.0193479  70.5063259  81.8715970 128.7842565
  70.2951145  82.2988786 127.3473504  64.9309444  64.0559498 128.6215364
  64.9950771  64.9174329 128.2092762  64.8676565  63.4433499 127.8887723
  64.4061717  66.1282630 132.2688398  65.0333756  65.7459708 132.8825923
  63.5489636  65.9096832 132.6344091  74.8055826  76.5345606 133.8742134
  75.3495730  77.1475564 133.3797089  74.2242670  77.0925184 134.3909147
  73.0913339  79.6566324 125.0057162  72.9664478  78.8556063 124.4968107
  73.7492430  80.1512517 124.5171132  75.1548247  77.4575344 126.6336712
  74.2078582  77.3380695 126.5615038  75.5031020  76.5697842 126.7162973
  67.5147820  63.3469483 130.4574954  68.0382222  63.5931779 131.2201263
  67.2960154  64.1789517 130.0378091  72.1594680  77.2528060 122.8341064
  72.0119643  76.3244767 123.0148634  72.9848174  77.2748151 122.3498139
  75.7628802  78.0756619 123.9205937  76.6875350  77.8699480 123.7830388
  75.5944105  77.8273020 124.8295278  69.3716837  61.3732490 126.5951947
  70.1942906  60.8992968 126.4730837  69.6154901  62.1522974 127.0950633
  75.5524118  78.5942286 119.2768028  75.7260996  78.0288708 118.5241881
  76.0453010  79.3943181 119.0947518  61.3701078  70.6056955 127.3431587
  60.8254546  71.3816763 127.4751861  62.2480428  70.9527760 127.1850708
  71.0279885  61.6223449 122.8579105  71.0501582  61.6862782 121.9031085
  71.4447944  60.7827958 123.0519611  62.1567100  69.7326851 130.2361744
  61.4148836  69.8809487 130.8226374  61.8359844  69.9935117 129.3728493
  70.1010763  79.2742830 130.0342134  70.4097889  79.0291976 130.9064833
  70.8986245  79.4789468 129.5461004  70.1231375  81.4280739 122.2647510
  69.6836365  80.9357118 122.9580367  70.8739492  80.8853707 122.0239586
  62.6023714  77.6192280 122.2672138  63.4281734  77.3196052 121.8870782
  62.2517766  76.8499903 122.7161927  67.5705247  76.9718748 124.3369812
  66.9485256  76.3089453 124.0372040  68.2410114  76.9979880 123.6543460
  60.8032319  75.5378607 123.2261072  59.9664227  75.1100781 123.0445073
  60.7755964  75.7311050 124.1631863  67.6429774  65.4500536 133.9302318
  67.6917930  66.3262659 133.5480088  68.1852288  64.9077929 133.3573961
  78.1284620  75.9941660 133.2103455  77.3380164  75.9765798 132.6707955
  77.8917975  76.5329953 133.9652492  78.2482495  72.8434126 130.5236184
  78.2980500  72.6784133 131.4651706  78.1396418  71.9761385 130.1334064
  75.5386257  68.8265054 131.8395490  76.4396120  68.6871519 131.5479488
  75.6134232  68.9919509 132.7793668  69.8729063  66.2031909 130.6848677
  69.0032372  66.4965475 130.4131265  70.1088543  66.7872354 131.4055940
  79.7500692  75.2631067 130.7678205  79.4585500  75.6261048 131.6041666
  79.1372823  74.5498076 130.5891537  80.9496374  72.8283947 123.2880775
  81.7843266  73.2673751 123.4518336  81.0855503  72.3522600 122.4689021
  77.9987880  70.3863682 129.2358263  78.4742002  70.5791328 128.4277115
  77.0753445  70.4422868 128.9901647  72.5768097  62.4211526 128.2014097
  73.0950040  63.1572553 127.8760586  72.2223229  62.7275519 129.0360856
  72.8280691  58.8411808 123.7214994  73.1082445  58.1734997 124.3475420
  73.6131298  59.0340904 123.2089658  76.6989549  67.2629442 127.4686569
  77.6506972  67.3627540 127.4898793  76.5292999  66.4707711 127.9784653
  74.7203929  64.3485025 127.6545970  74.1253861  64.6290038 126.9592458
  74.4353625  64.8378926 128.4262711  79.1777627  70.4835562 126.5828868
  79.1453947  69.5451563 126.7688552  79.7878251  70.5619599 125.8494693
  79.3272115  67.2746605 126.6287152  78.8111164  66.4905062 126.4417081
  80.2112064  66.9465322 126.7933671  76.9882842  61.0187621 122.5882964
  76.7907663  60.7102709 123.4726296  77.5982548  61.7449260 122.7180894
  84.9954177  71.5451569 125.7234905  85.7257565  71.2836857 126.2842609
  84.3861122  70.8080291 125.7636973  83.0769474  69.6859431 126.3209356
  82.3502637  69.5515396 125.7125848  82.6616761  69.9936260 127.1266074
  70.8999650  73.4049361 134.0856729  71.8202660  73.5827960 134.2796776
  70.8649233  72.4605406 133.9336429  63.8961723  71.3150396 126.7279511
  64.1147733  72.2467503 126.7467544  64.3087497  70.9558370 127.5134314
  70.8165941  61.8218481 118.7155199  70.0066669  61.4765566 119.0910445
  71.5050358  61.5126025 119.3042811  72.7456489  60.8996528 120.3379496
  73.2987528  61.3191981 120.9969519  72.9826575  59.9732276 120.3802452
  68.7689588  66.8883601 136.1182260  68.6686315  67.8377958 136.0494351
  68.5511130  66.5601840 135.2458330  59.9870075  72.2190866 124.9803126
  59.2933547  71.8044819 124.4673080  60.7343066  72.2611403 124.3836545
  76.1235296  63.0097053 119.8458160  75.5433965  63.6681857 119.4636212
  75.8571229  62.1874398 119.4345577  74.5738862  62.4102111 122.0479480
  75.0738641  62.5218645 121.2393799  75.2174470  62.1063163 122.6880289
  68.6320858  70.3180740 134.9347321  68.1487940  71.1181100 135.1411210
  68.7181797  70.3288685 133.9814765  64.5594196  74.2085275 126.9715755
  65.5137449  74.1769217 126.9045687  64.3606719  73.7475899 127.7865981
  65.1493578  72.7786391 129.5386553  65.9686467  73.2730470 129.5621390
  65.4230386  71.8618359 129.5104120  78.2574710  65.1943664 122.6168847
  79.0335100  65.6840117 122.8893464  77.5322844  65.6201718 123.0740717
  80.6947269  65.9071284 123.6742788  81.2891760  65.6667019 122.9636096
  80.7673852  65.1878414 124.3016324  62.9144424  79.7504894 123.9885953
  62.7798892  78.9905295 123.4223951  62.4976487  80.4745794 123.5214742
  66.0713550  80.6474211 124.2004396  65.9545934  81.5919644 124.0983086
  65.2505997  80.3447773 124.5890195  60.4028492  67.1124525 130.2378750
  61.0487356  66.6023479 130.7265975  60.1945643  67.8493207 130.8122175
  72.9281884  74.1805372 135.7370890  73.7973044  74.3546025 135.3757525
  72.4488636  74.9999789 135.6146620  67.0968064  81.3002473 127.4160324
  67.9995311  81.3326084 127.7326819  66.8705435  80.3702924 127.4306660
  68.8521666  80.0533460 124.0770403  67.9017297  80.0535322 123.9634775
  69.1554153  79.3066194 123.5606437  72.7384222  57.9707346 120.2448583
  71.9716618  57.4165833 120.3905265  73.1494927  58.0429215 121.1062734
  64.7425983  64.2592142 134.3353764  65.6057445  63.9028947 134.5457089
  64.1691394  63.9206037 135.0229168  84.5874360  85.8893998 125.1416165
  85.2252770  85.7700746 124.4379505  84.4695203  86.8374842 125.2004117
  81.3964066  85.8421426 125.0777690  81.0582578  85.7262491 124.1898225
  82.2653834  85.4412591 125.0578696  77.2550882  87.6956903 121.0674581
  76.6915747  87.6046840 120.2990868  77.1403277  86.8756807 121.5477073
  81.8783849  86.9956278 131.0363895  81.8672490  86.6009076 130.1644399
  82.0404489  86.2622351 131.6297667  74.8015314  89.1908094 123.9058801
  75.5936606  88.8498919 123.4905100  75.0411964  89.3003069 124.8260954
  82.8350441  91.3627871 116.3789046  82.1838420  91.9481951 115.9923059
  83.6294803  91.8934065 116.4384083  78.5991110  89.7793390 129.9843079
  78.3080976  90.6839021 129.8689745  79.2348095  89.8209918 130.6987149
  79.5247317  87.1570238 126.5744439  80.1210889  86.9326261 125.8601402
  79.5822289  86.4154984 127.1769887  84.1415628  83.6145452 122.2169373
  84.9278718  83.1964875 121.8659790  84.4054333  84.5191544 122.3851021
  84.3125706  89.0518302 116.9158030  83.6771539  89.1252929 117.6278934
  83.9823112  89.6411901 116.2377109  89.5424056  83.5520685 123.1202352
  90.2749228  82.9819902 123.3540181  88.7863411  83.1642286 123.5608857
  81.1600175  85.9747927 120.3165694  80.7958383  85.4478548 121.0278615
  82.0167291  85.5846396 120.1432179  87.0649476  77.2642259 127.5796960
  86.7332801  78.1337670 127.3558175  86.4695089  76.9478543 128.2590991
  83.5580995  89.4654805 126.9792873  83.2581719  90.3679844 126.8708680
  83.2132055  89.1986989 127.8314026  77.0093477  85.9168602 123.0129577
  76.0843973  85.7844816 123.2207269  77.2577890  86.6962822 123.5099520
  86.9578139  81.9837346 124.6590310  86.0495017  81.9152754 124.3649071
  86.9065735  82.4609291 125.4872136  74.3702288  85.5601876 123.8473366
  74.4994669  85.8136355 124.7612778  73.6899739  86.1529584 123.5278021
  78.5401775  96.2299126 119.9463841  78.4625805  97.1806951 120.0252321
  77.9363419  95.8844998 120.6038767  81.0319005  83.4026991 132.6025207
  80.2552339  83.9620911 132.5928072  81.6709568  83.8883774 133.1240078
  88.8239786  80.1853784 126.4368184  88.1814166  80.4786317 125.7907979
  88.3194714  80.0706704 127.2421381  86.4779949  83.9316957 117.1254043
  87.3897805  84.1644344 116.9501741  85.9689596  84.5154001 116.5629122
  79.2865377  86.2112445 132.1643174  80.0280062  86.7497489 131.8877998
  78.5802363  86.8378733 132.3214726  84.7620717  88.3541585 130.7615336
  85.1704073  87.9123996 130.0169968  84.0397978  87.7794213 131.0149529
  81.1151787  83.2914192 128.1348893  81.9612982  83.7153605 128.2783542
  81.0550425  82.6347816 128.8287456  85.0849532  88.9142776 124.5167625
  84.4558394  89.0788490 123.8143693  84.6975194  89.3284385 125.2878589
  88.9638764  89.8497214 121.8711989  88.2789802  90.2296115 121.3209022
  89.0482613  90.4592540 122.6043936  84.2651232  80.9518560 129.7930067
  84.0212164  81.7060621 129.2564342  84.5411163  81.3303908 130.6277314
  86.2189695  87.4957173 128.4707332  86.4306590  88.1388932 127.7941713
  86.1719443  86.6619489 128.0029262  83.8215924  80.1074993 125.3743904
  82.9600403  80.4056247 125.6660642  83.8478359  80.3245392 124.4424937
  80.6377493  88.6517184 121.7817710  81.1015839  88.9304887 120.9922332
  80.3734292  87.7500628 121.5990801  77.5301575  88.1988665 124.7197473
  78.1002932  88.6275934 124.0814958  78.1209686  87.9171250 125.4181659
  79.5746380  84.7740336 118.5907275  80.2770423  85.2261380 119.0581201
  79.2427008  84.1324155 119.2187168  78.0226741  83.3652093 132.9658484
  77.3925402  84.0468374 133.1993881  77.9162829  83.2535174 132.0211623
  73.3171714  83.0323889 123.8924409  72.5270767  83.2881417 123.4164519
  73.8082961  83.8472227 123.9976449  87.3335523  90.3729128 126.6429689
  88.1552967  89.9709315 126.3612371  87.3297926  90.2697362 127.5945805
  75.2686459  83.3968468 120.8507885  74.4717622  83.5087162 121.3691381
  75.0412051  83.7355120 119.9848776  81.0992127  89.9213171 128.7990400
  81.1636559  90.3833578 129.6348572  80.3903050  89.2910536 128.9272710
  71.6009416  83.2854379 126.3239399  71.8517455  84.1701389 126.5896975
  72.1368965  83.1058981 125.5514491  95.4241516  86.7167876 122.9914661
  94.6705225  86.1475275 122.8358665  95.5589057  86.6830541 123.9385296
  80.8140144  91.5881279 118.6669380  80.6785819  92.4332814 119.0954228
  81.3549957  91.7900556 117.9035314  77.3007484  77.6672859 135.3283735
  76.9074429  77.1139057 136.0031380  78.1173624  77.9783437 135.7190253
  74.2669542  89.1056717 119.2397305  74.7794062  89.8999967 119.3902870
  74.9192254  88.4083007 119.1730907  76.0764426  92.2222473 121.3220059
  76.2531055  93.1440438 121.1341042  76.8721260  91.9080892 121.7514438
  80.2175445  79.0830738 132.9203992  80.9585158  79.6837891 132.8408455
  80.4493368  78.3408375 132.3622035  75.3616783  84.2687105 131.1982222
  75.2470298  83.3672362 131.4989321  74.5061301  84.5150802 130.8467038
  82.4408621  92.2104845 132.7969722  81.9972475  91.4241224 132.4790627
  83.1025834  92.3983996 132.1313613  77.1995742  93.7400647 127.3230401
  77.7503167  93.6117710 126.5507395  76.3607218  94.0395536 126.9725294
  84.5389859  92.4907645 130.8251124  84.5208334  93.3116526 130.3331393
  85.4609779  92.3661720 131.0501265  80.9962913  90.0051775 131.6674632
  81.5291250  89.2440063 131.4373940  80.4676994  89.7125426 132.4098786
  84.1632608  75.1111841 127.1968274  83.8196877  76.0013482 127.1207384
  84.5311570  74.9213498 126.3337859  72.2318458  87.4345371 120.0156876
  73.0693680  87.8442379 119.7990584  72.4096726  86.4944813 119.9857070
  84.1282890  85.1020452 115.7040709  83.6129514  85.8725056 115.9429096
  83.8560199  84.4285588 116.3273770  81.7130001  79.9470153 120.7625947
  80.8571598  79.5577003 120.5831586  82.1256953  80.0262113 119.9025733
  83.2429148  77.4816496 125.1617507  82.7393944  77.4446631 124.3485312
  83.5359755  78.3909238 125.2214164  79.4872034  77.5655226 124.1683689
  80.3525031  77.3698034 123.8089578  79.5549543  77.3365577 125.0953045
  89.1017165  87.8552806 117.6393882  88.3246607  87.5163966 117.1949044
  89.7808646  87.8605430 116.9648847  83.9169194  82.9747544 117.5300490
  83.6119329  83.2893693 118.3810633  84.8699636  83.0528964 117.5727823
  82.3615625  89.1337767 119.1793444  81.8336987  88.3990527 118.8666681
  81.8603128  89.9112443 118.9333412  87.3408472  87.3286788 124.2960490
  86.6832146  88.0186049 124.3840619  88.1448871  87.7183220 124.6394477
  77.0934353  79.7957433 121.5400056  77.6678105  79.5732615 120.8073248
  77.6805336  79.8646128 122.2928657  86.1513930  85.6831160 122.3464432
  86.6645812  86.3161152 122.8486142  86.8015154  85.0832356 121.9807792
  83.4136305  95.6615485 115.1025103  82.7398003  95.9647181 115.7110061
  83.8002127  96.4644565 114.7530560  82.6294761  83.1580616 124.5922773
  81.7117323  83.3795563 124.4344461  83.0454905  83.2326926 123.7334480
  83.4129809  84.5572032 119.7225453  84.1601628  85.0693429 119.4132575
  83.6821398  84.2356084 120.5829846  81.6856459  87.0530572 116.7052407
  80.7767678  86.7689605 116.8024877  81.7151543  87.4729651 115.8455714
  86.9175727  90.6637162 120.4743575  86.4638054  89.8228072 120.5308765
  86.2869693  91.2998560 120.8118355  85.8608646  81.5929148 121.7044242
  85.1231403  81.0806534 122.0354485  86.1135420  81.1529529 120.8927519
  85.3608666  92.5013658 121.4093393  85.6531640  93.0618716 120.6905758
  85.8707286  92.7942219 122.1646552  85.9620273  74.3705400 122.2986011
  86.2679150  73.5102763 122.0111927  86.6872878  74.9623020 122.0985005
  72.2544629  84.7736086 120.6867609  72.0569029  84.1805447 119.9618676
  71.6991293  84.4688297 121.4043548  80.2341353  84.6659193 122.8062202
  80.2889963  83.7133029 122.7304679  79.4232555  84.8218632 123.2903501
  78.1733713  83.2836253 120.5652581  77.3601579  83.5830423 120.9717774
  78.6692707  82.8891941 121.2827064  80.3242291  93.2794010 122.4986846
  80.2818470  93.5054856 121.5695378  81.2404990  93.0457384 122.6472647
  83.7707925  83.7478077 129.3967475  84.1257312  83.9749550 130.2561941
  84.4180056  84.0796454 128.7744731  89.5005662  86.8696513 120.1016804
  89.3623560  87.0598109 119.1737994  89.1441880  87.6315896 120.5584855
  77.6647788  80.8554608 126.1813816  78.3047167  80.7143367 125.4836780
  76.8325318  80.5689122 125.8052418  89.5275041  88.9373040 125.1128076
  89.9611548  88.8448329 125.9611130  90.2406622  88.9130540 124.4748092
  78.4408092  90.1557039 122.2948809  79.2348690  89.6607359 122.0931384
  77.7299784  89.6274902 121.9316514  83.2602936  92.5375134 126.6461176
  83.3139958  93.1066070 127.4138892  82.3917718  92.7077019 126.2815214
  74.7490855  84.3000120 118.3708561  73.8188443  84.2384576 118.5878524
  74.8448327  83.7776073 117.5745203  74.6676404  80.8254933 120.9586803
  74.9283222  81.7400266 120.8495964  75.4893577  80.3579376 121.1083416
  76.1401330  82.2392690 128.1285628  76.8124383  82.0310052 127.4798277
  75.3131116  82.0414776 127.6890860  90.3890591  88.9796741 127.6460961
  90.5826481  89.8842551 127.8920236  90.2891209  88.5204160 128.4799546
  82.0426902  78.8654631 130.1451289  81.3954817  79.5644581 130.0515765
  82.8127917  79.2990775 130.5127537  85.4505700  89.1303483 133.2201842
  85.2991206  88.9014035 132.3031925  85.4410379  90.0874085 133.2333187
  82.2191036  86.7035396 128.2048108  83.1483096  86.8546556 128.0317076
  81.7982066  86.7919417 127.3496755  81.0179368  90.7286061 125.9746646
  80.8790453  90.3604845 126.8472584  80.2293964  91.2433700 125.8030604
  81.6127520  95.8295157 117.3172182  81.7879275  95.3583200 118.1317805
  80.9260308  96.4560923 117.5453443  82.5684583  90.1067663 123.3635484
  82.2334415  90.0668433 124.2593134  82.0688529  89.4412379 122.8905894
  76.5428827  85.5135293 128.8888065  76.4048625  84.7815532 129.4899604
  77.4533750  85.4244193 128.6072253  85.5043775  87.4523698 113.6372543
  84.8872945  86.7270526 113.5405596  85.0360263  88.2133058 113.2939618
  79.1711127  85.2255253 128.3771744  79.8810746  84.5848445 128.3358363
  79.1280436  85.4768147 129.2997925  87.1597906  92.1622606 131.2978324
  87.1010452  91.4781826 130.6308907  87.5617425  92.9041596 130.8458950
  77.8840061  82.2120470 130.1967384  77.3477418  81.7611209 130.8488980
  77.2956770  82.3466379 129.4537848  76.1788605  98.9784520 124.0912043
  76.4185203  99.6103044 124.7691061  75.3357801  98.6272560 124.3777402
  87.1615313  90.1262190 129.5292303  86.2742092  89.7888112 129.6518702
  87.7313865  89.3945221 129.7661069  68.8144461  86.4586282 122.8535355
  69.5015500  86.1448012 122.2656370  68.6592589  87.3627646 122.5802606
  73.6179183  81.3476478 127.2820378  73.5337371  80.7402148 126.5470788
  72.7961889  81.8385496 127.2829875  80.6916467  94.7863642 126.4953547
  80.6186638  95.5918614 127.0072851  80.2493860  94.9855608 125.6701568
  80.4806246  94.0235412 120.0056368  79.6973768  94.5657092 120.0994593
  81.1798992  94.5409392 120.4050609  83.7902897  79.8330042 122.6490573
  84.2871596  79.0800004 122.3291644  83.0189878  79.8694358 122.0833783
  91.6432654  85.5370407 124.2908865  91.6322530  86.4195123 123.9202798
  90.7750033  85.1841958 124.0963402  83.1515150  94.6850476 128.6511705
  83.8643123  95.3197941 128.5787607  82.6605179  94.7814342 127.8351707
  84.8732677  88.5901729 120.2228997  83.9388956  88.7103191 120.0533701
  85.0509346  87.6874196 119.9589007  80.3737865  81.9747425 122.3762258
  80.0035653  81.4218465 123.0643164  80.8696958  81.3705558 121.8237258
  88.2605229  84.4319048 120.7579031  88.7265681  85.2647040 120.6839334
  88.7112729  83.9664030 121.4624290  78.2027064  92.4344920 129.4717276
  78.9036523  93.0681403 129.6246670  77.7322179  92.7759651 128.7112915
  86.3281460  90.7762870 117.7565183  86.6041304  90.6619464 118.6659057
  85.4585958  90.3780354 117.7177356  86.2321891  76.7999635 124.7969932
  85.3184971  77.0303862 124.9652139  86.6614993  76.8838079 125.6483965
  86.0028350  84.9889527 127.2969826  85.3499800  85.2365435 126.6422279
  86.3808730  84.1753665 126.9632304  82.9635524  95.0249220 121.3997997
  83.1457918  94.2070876 121.8625749  83.7868510  95.2416913 120.9622887
  83.2977689  93.9517405 118.6613045  83.8265456  93.4409860 118.0483207
  83.5605909  93.6359936 119.5258578  82.0515923  85.7309338 133.7835863
  81.3756560  85.6303468 134.4538239  82.8743557  85.5748552 134.2471861
  73.7994782  91.9681275 126.4048379  74.3848219  91.2224963 126.5376283
  73.6019620  92.2785231 127.2885043  76.6533437  95.0032522 121.4210821
  75.9843812  95.4878650 120.9374861  76.5146307  95.2501743 122.3354200
  68.3912437  84.5386875 125.1252822  68.4296536  84.0050466 125.9189940
  67.8852730  84.0122080 124.5063799  80.7938706  97.0376266 128.0193479
  81.3457014  97.2007887 128.7842565  81.1344899  97.6280704 127.3473504
  75.7703199  79.3851415 128.6215364  75.8344525  80.2466246 128.2092762
  75.7070319  78.7725417 127.8887723  75.2455472  81.4574548 132.2688398
  75.8727510  81.0751625 132.8825923  74.3883390  81.2388750 132.6344091
  85.6449580  91.8637523 133.8742134  86.1889484  92.4767481 133.3797089
  85.0636425  92.4217102 134.3909147  72.0221014  83.2650977 118.2006753
  72.3174455  82.3561656 118.1473807  71.1209050  83.2438717 117.8787756
  83.9307093  94.9858241 125.0057162  83.8058232  94.1847981 124.4968107
  84.5886184  95.4804435 124.5171132  75.5515261  81.3406974 124.1834302
  74.8301847  81.9542941 124.0441775  76.3408517  81.8764739 124.1050948
  85.9942001  92.7867261 126.6336712  85.0472337  92.6672612 126.5615038
  86.3424775  91.8989759 126.7162973  78.3541575  78.6761400 130.4574954
  78.8775977  78.9223697 131.2201263  78.1353908  79.5081435 130.0378091
  73.7508856  80.9465075 118.3246078  73.4221562  80.0662454 118.1421184
  74.1048227  80.8912743 119.2122468  82.9988435  92.5819978 122.8341064
  82.8513397  91.6536685 123.0148634  83.8241928  92.6040068 122.3498139
  86.6022557  93.4048536 123.9205937  87.5269104  93.1991398 123.7830388
  86.4337860  93.1564937 124.8295278  79.5594120  79.6175095 128.1424624
  79.2190940  78.8182908 128.5445304  78.8533126  79.9176806 127.5701457
  80.2110592  76.7024408 126.5951947  81.0336661  76.2284886 126.4730837
  80.4548655  77.4814891 127.0950633  82.9949949  80.4357815 117.8273181
  83.2113563  81.3182453 117.5262009  82.5144016  80.0444029 117.0978823
  77.7349170  83.3943528 124.4043926  77.5893751  83.7083831 125.2968207
  77.2574374  84.0128429 123.8514824  79.5945553  80.3846076 124.4524815
  79.5807122  79.4887170 124.1157113  80.3117981  80.3916740 125.0863101
  81.4471684  80.8183417 126.4977943  81.1889462  81.7400487 126.4962273
  80.9156724  80.4213851 127.1878407  86.3917873  93.9234204 119.2768028
  86.5654750  93.3580626 118.5241881  86.8846764  94.7235099 119.0947518
  72.2094833  85.9348873 127.3431587  71.6648301  86.7108681 127.4751861
  73.0874182  86.2819677 127.1850708  81.8673640  76.9515367 122.8579105
  81.8895336  77.0154700 121.9031085  82.2841699  76.1119876 123.0519611
  92.2457264  86.6870627 120.8958328  92.6888410  85.9377952 120.4977451
  91.3683774  86.6780763 120.5132060  87.3793045  93.2400968 116.3764926
  88.0743950  93.8607661 116.5952241  87.7216195  92.3896319 116.6517304
  72.9960854  85.0618769 130.2361744  72.2542590  85.2101404 130.8226374
  72.6753599  85.3227035 129.3728493  89.2784468  90.6900674 117.9052257
  89.8035792  91.0287946 117.1801577  89.1906821  89.7547689 117.7215392
  80.9404517  94.6034747 130.0342134  81.2491644  94.3583894 130.9064833
  81.7379999  94.8081386 129.5461004  80.9625129  96.7572657 122.2647510
  80.5230119  96.2649036 122.9580367  81.7133246  96.2145625 122.0239586
  73.4417468  92.9484198 122.2672138  74.2675488  92.6487970 121.8870782
  73.0911520  92.1791820 122.7161927  78.4099001  92.3010666 124.3369812
  77.7879011  91.6381371 124.0372040  79.0803868  92.3271798 123.6543460
  71.6426073  90.8670524 123.2261072  70.8057981  90.4392699 123.0445073
  71.6149719  91.0602968 124.1631863  78.4823529  80.7792454 133.9302318
  78.5311684  81.6554577 133.5480088  79.0246043  80.2369847 133.3573961
  88.9678374  91.3233577 133.2103455  88.1773918  91.3057716 132.6707955
  88.7311729  91.8621871 133.9652492  89.0876249  88.1726044 130.5236184
  89.1374254  88.0076051 131.4651706  88.9790173  87.3053303 130.1334064
  86.3780012  84.1556972 131.8395490  87.2789875  84.0163437 131.5479488
  86.4527986  84.3211427 132.7793668  80.7122817  81.5323826 130.6848677
  79.8426127  81.8257392 130.4131265  80.9482298  82.1164271 131.4055940
  90.5894446  90.5922985 130.7678205  90.2979255  90.9552966 131.6041666
  89.9766578  89.8789993 130.5891537  91.7890129  88.1575865 123.2880775
  92.6237020  88.5965669 123.4518336  91.9249257  87.6814518 122.4689021
  88.8381635  85.7155600 129.2358263  89.3135756  85.9083246 128.4277115
  87.9147200  85.7714786 128.9901647  75.7265141  86.8779767 118.8189341
  75.4811183  85.9742097 119.0169552  75.8961056  86.8796917 117.8768819
  83.4161851  77.7503443 128.2014097  83.9343795  78.4864470 127.8760586
  83.0616984  78.0567437 129.0360856  83.6674445  74.1703726 123.7214994
  83.9476199  73.5026915 124.3475420  84.4525052  74.3632821 123.2089658
  81.4707914  93.3462720 115.2840020  80.8981881  93.9652907 114.8310492
  82.0440707  93.8962081 115.8179942  87.5383304  82.5921360 127.4686569
  88.4900726  82.6919458 127.4898793  87.3686754  81.7999628 127.9784653
  85.5597683  79.6776943 127.6545970  84.9647615  79.9581956 126.9592458
  85.2747380  80.1670844 128.4262711  84.6905174  93.6299870 116.4148602
  85.6235847  93.5645432 116.6181478  84.6028386  94.4656137 115.9563135
  87.3193190  92.9465740 113.3752550  87.2406822  92.6125604 114.2688308
  88.1402857  93.4387508 113.3744022  90.0171381  85.8127480 126.5828868
  89.9847701  84.8743480 126.7688552  90.6272005  85.8911516 125.8494693
  90.1665870  82.6038523 126.6287152  89.6504918  81.8196980 126.4417081
  91.0505818  82.2757240 126.7933671  87.8276597  76.3479539 122.5882964
  87.6301418  76.0394627 123.4726296  88.4376302  77.0741177 122.7180894
  95.8347931  86.8743486 125.7234905  96.5651320  86.6128775 126.2842609
  95.2254877  86.1372208 125.7636973  93.9163228  85.0151349 126.3209356
  93.1896392  84.8807314 125.7125848  93.5010515  85.3228178 127.1266074
  81.7393405  88.7341279 134.0856729  82.6596414  88.9119878 134.2796776
  81.7042988  87.7897324 133.9336429  70.9575570  83.9279872 123.0110004
  70.6378354  83.0745181 122.7184378  70.4108998  84.1428450 123.7667971
  74.7355477  86.6442313 126.7279511  74.9541487  87.5759421 126.7467544
  75.1481251  86.2850288 127.5134314  79.6083343  82.2175519 136.1182260
  79.5080070  83.1669876 136.0494351  79.3904885  81.8893758 135.2458330
  70.8263830  87.5482784 124.9803126  70.1327301  87.1336737 124.4673080
  71.5736821  87.5903320 124.3836545  86.9629050  78.3388971 119.8458160
  86.3827720  78.9973775 119.4636212  86.6964983  77.5166315 119.4345577
  85.4132617  77.7394028 122.0479480  85.9132395  77.8510563 121.2393799
  86.0568225  77.4355081 122.6880289  79.4714613  85.6472658 134.9347321
  78.9881694  86.4473018 135.1411210  79.5575552  85.6580603 133.9814765
  72.7400572  87.4801038 122.8569141  72.7171260  87.5788725 121.9051024
  73.0501209  88.3266188 123.1786307  75.3987950  89.5377193 126.9715755
  76.3531204  89.5061135 126.9045687  75.2000474  89.0767816 127.7865981
  75.9887332  88.1078309 129.5386553  76.8080221  88.6022387 129.5621390
  76.2624140  87.1910277 129.5104120  85.7453928  80.4989061 118.9014508
  84.8579784  80.7838712 118.6834703  86.1607918  80.3382824 118.0541785
  89.0968465  80.5235582 122.6168847  89.8728855  81.0132034 122.8893464
  88.3716599  80.9493636 123.0740717  91.5341023  81.2363201 123.6742788
  92.1285514  80.9958937 122.9636096  91.6067607  80.5170332 124.3016324
  73.7538179  95.0796812 123.9885953  73.6192647  94.3197213 123.4223951
  73.3370241  95.8037712 123.5214742  84.8897142  90.2633736 112.9962528
  85.5932992  90.4683738 113.6120184  84.1659791  90.8310498 113.2611612
  85.7194952  86.0143597 119.1164798  85.6630154  86.4712148 118.2772431
  86.2723295  85.2534282 118.9387641  89.5299758  81.8033329 119.9414918
  89.2736692  81.4029964 120.7723126  88.9052626  82.5177123 119.8165057
  93.8412096  84.5429402 122.4486209  93.2811654  84.6122591 123.2217771
  93.2355599  84.3670387 121.7285705  76.9107305  95.9766129 124.2004396
  76.7939689  96.9211562 124.0983086  76.0899751  95.6739691 124.5890195
  86.7983839  90.7016265 115.0460988  87.6329443  90.2697463 114.8638463
  86.6368182  90.5298279 115.9737883  86.4529732  87.2048378 116.4117328
  86.3978535  87.0392650 115.4705772  85.8275787  87.9124411 116.5679517
  71.2422247  82.4416443 130.2378750  71.8881110  81.9315397 130.7265975
  71.0339398  83.1785124 130.8122175  83.7675639  89.5097290 135.7370890
  84.6366798  89.6837942 135.3757525  83.2882390  90.3291707 135.6146620
  77.9361819  96.6294391 127.4160324  78.8389066  96.6618001 127.7326819
  77.7099189  95.6994842 127.4306660  79.6915421  95.3825378 124.0770403
  78.7411052  95.3827239 123.9634775  79.9947907  94.6358112 123.5606437
  75.5819738  79.5884060 134.3353764  76.4451199  79.2320864 134.5457089
  75.0085148  79.2497954 135.0229168  95.4268114 101.2185916 125.1416165
  96.0646524 101.0992663 124.4379505  95.3088957 102.1666760 125.2004117
  92.2357821 101.1713344 125.0777690  91.8976332 101.0554409 124.1898225
  93.1047589 100.7704509 125.0578696  88.0944636 103.0248820 121.0674581
  87.5309502 102.9338757 120.2990868  87.9797031 102.2048725 121.5477073
  85.6409068 104.5200012 123.9058801  86.4330360 104.1790837 123.4905100
  85.8805719 104.6294987 124.8260954  93.6744195 106.6919788 116.3789046
  93.0232175 107.2773869 115.9923059  94.4688558 107.2225983 116.4384083
  87.5999822 103.7808925 116.7776180  88.3730698 103.2337912 116.6389056
  87.9525221 104.6453175 116.9890641  90.3641072 102.4862156 126.5744439
  90.9604644 102.2618179 125.8601402  90.4216043 101.7446902 127.1769887
  89.9366100  99.9401591 114.4094630  90.1891621  99.4183113 113.6478093
  88.9990659  99.7767737 114.5121313  94.9809383  98.9437370 122.2169373
  95.7672472  98.5256793 121.8659790  95.2448087  99.8483462 122.3851021
  95.1519460 104.3810220 116.9158030  94.5165293 104.4544847 117.6278934
  94.8216867 104.9703819 116.2377109 100.3817810  98.8812603 123.1202352
 101.1142982  98.3111820 123.3540181  99.6257166  98.4934203 123.5608857
  89.6562389 101.8429697 116.6119005  89.5398647 101.1674601 117.2800089
  89.7664649 101.3562071 115.7951158  91.9993930 101.3039845 120.3165694
  91.6352137 100.7770465 121.0278615  92.8561046 100.9138314 120.1432179
  97.9043230  92.5934177 127.5796960  97.5726555  93.4629588 127.3558175
  97.3088844  92.2770461 128.2590991  91.6399417  96.3329744 115.3127042
  91.8073819  97.2009981 115.6797514  91.4496586  96.4957026 114.3888332
  87.8487231 101.2460520 123.0129577  86.9237728 101.1136734 123.2207269
  88.0971645 102.0254739 123.5099520  97.7971894  97.3129263 124.6590310
  96.8888771  97.2444672 124.3649071  97.7459490  97.7901208 125.4872136
  91.6188638  98.7887402 116.2973709  91.4988263  99.2344452 117.1359190
  90.9241226  99.1372719 115.7387247  85.2096042 100.8893794 123.8473366
  85.3388424 101.1428272 124.7612778  84.5293494 101.4821502 123.5278021
  89.3795530 111.5591043 119.9463841  89.3019559 112.5098869 120.0252321
  88.7757173 111.2136916 120.6038767  99.6633540  95.5145702 126.4368184
  99.0207920  95.8078235 125.7907979  99.1588469  95.3998622 127.2421381
  97.3173704  99.2608875 117.1254043  98.2291560  99.4936262 116.9501741
  96.8083351  99.8445919 116.5629122  91.9545542  98.6206109 128.1348893
  92.8006737  99.0445523 128.2783542  91.8944179  97.9639734 128.8287456
  95.9243286 104.2434693 124.5167625  95.2952149 104.4080407 123.8143693
  95.5368948 104.6576303 125.2878589  99.8032518 105.1789131 121.8711989
  99.1183556 105.5588033 121.3209022  99.8876367 105.7884458 122.6043936
  95.1044987  96.2810478 129.7930067  94.8605919  97.0352538 129.2564342
  95.3804917  96.6595825 130.6277314  94.6609679  95.4366911 125.3743904
  93.7994158  95.7348164 125.6660642  94.6872113  95.6537310 124.4424937
  91.4771248 103.9809101 121.7817710  91.9409594 104.2596804 120.9922332
  91.2128046 103.0792546 121.5990801  88.3695329 103.5280583 124.7197473
  88.9396686 103.9567851 124.0814958  88.9603441 103.2463168 125.4181659
  90.4140134 100.1032254 118.5907275  91.1164177 100.5553297 119.0581201
  90.0820763  99.4616073 119.2187168  84.1565468  98.3615806 123.8924409
  83.3664522  98.6173335 123.4164519  84.6476715  99.1764144 123.9976449
  86.1080213  98.7260386 120.8507885  85.3111377  98.8379080 121.3691381
  85.8805806  99.0647038 119.9848776  82.4403171  98.6146297 126.3239399
  82.6911209  99.4993307 126.5896975  82.9762719  98.4350898 125.5514491
 106.2635271 102.0459794 122.9914661 105.5098979 101.4767192 122.8358665
 106.3982812 102.0122459 123.9385296  91.6533899 106.9173196 118.6669380
  91.5179573 107.7624732 119.0954228  92.1943711 107.1192474 117.9035314
  88.1401238  92.9964776 135.3283735  87.7468184  92.4430975 136.0031380
  88.9567379  93.3075355 135.7190253  85.1063296 104.4348634 119.2397305
  85.6187817 105.2291885 119.3902870  85.7586009 103.7374925 119.1730907
  86.9158181 107.5514391 121.3220059  87.0924809 108.4732355 121.1341042
  87.7115014 107.2372810 121.7514438  91.0569199  94.4122655 132.9203992
  91.7978913  95.0129808 132.8408455  91.2887122  93.6700293 132.3622035
  86.2010537  99.5979023 131.1982222  86.0864052  98.6964280 131.4989321
  85.3455055  99.8442719 130.8467038  88.0389496 109.0692565 127.3230401
  88.5896921 108.9409628 126.5507395  87.2000972 109.3687454 126.9725294
  95.0026362  90.4403758 127.1968274  94.6590632  91.3305400 127.1207384
  95.3705325  90.2505416 126.3337859  83.0712213 102.7637289 120.0156876
  83.9087435 103.1734297 119.7990584  83.2490481 101.8236731 119.9857070
  94.9676645 100.4312369 115.7040709  94.4523268 101.2016974 115.9429096
  94.6953953  99.7577506 116.3273770  92.5523756  95.2762070 120.7625947
  91.6965352  94.8868921 120.5831586  92.9650708  95.3554031 119.9025733
  94.0822903  92.8108413 125.1617507  93.5787698  92.7738549 124.3485312
  94.3753509  93.7201156 125.2214164  90.3265789  92.8947143 124.1683689
  91.1918785  92.6989952 123.8089578  90.3943297  92.6657495 125.0953045
  99.9410919 103.1844724 117.6393882  99.1640362 102.8455884 117.1949044
 100.6202400 103.1897347 116.9648847  94.7562948  98.3039462 117.5300490
  94.4513084  98.6185611 118.3810633  95.7093390  98.3820881 117.5727823
  93.2009380 104.4629685 119.1793444  92.6730742 103.7282444 118.8666681
  92.6996883 105.2404361 118.9333412  98.1802226 102.6578705 124.2960490
  97.5225900 103.3477967 124.3840619  98.9842625 103.0475137 124.6394477
  87.9328108  95.1249351 121.5400056  88.5071859  94.9024533 120.8073248
  88.5199090  95.1938046 122.2928657  96.9907685 101.0123078 122.3464432
  97.5039567 101.6453070 122.8486142  97.6408909 100.4124274 121.9807792
  88.2597695  97.1553812 115.5595941  87.4235007  97.4928499 115.8805216
  88.1202464  97.0202792 114.6223078  90.2350775  91.9990600 120.2675125
  89.5815188  91.6839617 119.6431740  90.1931249  91.3766340 120.9934948
  91.3461980 102.2809895 112.1828417  90.4389042 102.0499149 112.3819566
  91.8433012 101.4847514 112.3702399  94.2530059 110.9907402 115.1025103
  93.5791758 111.2939099 115.7110061  94.6395881 111.7936483 114.7530560
  93.4688516  98.4872534 124.5922773  92.5511077  98.7087481 124.4344461
  93.8848659  98.5618844 123.7334480  94.2523563  99.8863949 119.7225453
  94.9995382 100.3985346 119.4132575  94.5215153  99.5648002 120.5829846
  92.5250214 102.3822490 116.7052407  91.6161433 102.0981523 116.8024877
  92.5545297 102.8021569 115.8455714  97.7569481 105.9929079 120.4743575
  97.3031808 105.1519989 120.5308765  97.1263448 106.6290478 120.8118355
  96.7002401  96.9221065 121.7044242  95.9625157  96.4098452 122.0354485
  96.9529174  96.4821447 120.8927519  96.2002420 107.8305576 121.4093393
  96.4925395 108.3910633 120.6905758  96.7101041 108.1234137 122.1646552
  96.8014028  89.6997317 122.2986011  97.1072905  88.8394681 122.0111927
  97.5266633  90.2914938 122.0985005  83.0938384 100.1028004 120.6867609
  82.8962784  99.5097365 119.9618676  82.5385048  99.7980214 121.4043548
  91.0735108  99.9951111 122.8062202  91.1283717  99.0424947 122.7304679
  90.2626310 100.1510550 123.2903501  92.2226301 103.9231234 114.0440486
  91.7845731 103.2067093 113.5846123  92.9636742 104.1507348 113.4825577
  89.0127468  98.6128170 120.5652581  88.1995333  98.9122341 120.9717774
  89.5086462  98.2183859 121.2827064  91.1636045 108.6085927 122.4986846
  91.1212224 108.8346774 121.5695378  92.0798744 108.3749302 122.6472647
  94.6101679  99.0769995 129.3967475  94.9651067  99.3041468 130.2561941
  95.2573810  99.4088372 128.7744731 100.3399416 102.1988431 120.1016804
 100.2017315 102.3890027 119.1737994  99.9835635 102.9607813 120.5584855
  88.5041542  96.1846526 126.1813816  89.1440922  96.0435285 125.4836780
  87.6719073  95.8981039 125.8052418  89.2801846 105.4848956 122.2948809
  90.0742445 104.9899276 122.0931384  88.5693539 104.9566819 121.9316514
  85.5884610  99.6292038 118.3708561  84.6582198  99.5676493 118.5878524
  85.6842082  99.1067991 117.5745203  85.5070159  96.1546851 120.9586803
  85.7676976  97.0692184 120.8495964  86.3287331  95.6871293 121.1083416
  86.9795084  97.5684608 128.1285628  87.6518137  97.3601970 127.4798277
  86.1524871  97.3706694 127.6890860  92.8820656  94.1946549 130.1451289
  92.2348571  94.8936499 130.0515765  93.6521671  94.6282693 130.5127537
  93.0584790 102.0327314 128.2048108  93.9876850 102.1838473 128.0317076
  92.6375820 102.1211335 127.3496755  91.8573122 106.0577978 125.9746646
  91.7184208 105.6896763 126.8472584  91.0687718 106.5725618 125.8030604
  92.4521274 111.1587075 117.3172182  92.6273030 110.6875118 118.1317805
  91.7654062 111.7852841 117.5453443  93.4078337 105.4359581 123.3635484
  93.0728170 105.3960351 124.2593134  92.9082283 104.7704297 122.8905894
  87.3822581 100.8427211 128.8888065  87.2442379 100.1107450 129.4899604
  88.2927505 100.7536111 128.6072253  96.3437529 102.7815615 113.6372543
  95.7266700 102.0562443 113.5405596  95.8754017 103.5424976 113.2939618
  90.0104882 100.5547170 128.3771744  90.7204501  99.9140362 128.3358363
  89.9674190 100.8060065 129.2997925  88.7233816  97.5412388 130.1967384
  88.1871173  97.0903127 130.8488980  88.1350524  97.6758297 129.4537848
  88.1336075  97.0001040 112.7593848  87.2565541  96.8789840 112.3956094
  88.6093828  96.2087118 112.5072736  79.6538215 101.7878199 122.8535355
  80.3409255 101.4739929 122.2656370  79.4986344 102.6919564 122.5802606
  84.4572937  96.6768396 127.2820378  84.3731126  96.0694065 126.5470788
  83.6355644  97.1677414 127.2829875  91.3200001 109.3527330 120.0056368
  90.5367523 109.8949010 120.0994593  92.0192746 109.8701310 120.4050609
  94.6296651  95.1621959 122.6490573  95.1265351  94.4091922 122.3291644
  93.8583633  95.1986276 122.0833783 102.4826408 100.8662325 124.2908865
 102.4716285 101.7487040 123.9202798 101.6143788 100.5133876 124.0963402
  95.7126432 103.9193647 120.2228997  94.7782710 104.0395109 120.0533701
  95.8903100 103.0166113 119.9589007  91.2131620  97.3039342 122.3762258
  90.8429407  96.7510383 123.0643164  91.7090712  96.6997476 121.8237258
  99.0998983  99.7610966 120.7579031  99.5659435 100.5938957 120.6839334
  99.5506484  99.2955947 121.4624290  97.1675214 106.1054787 117.7565183
  97.4435058 105.9911382 118.6659057  96.2979713 105.7072272 117.7177356
  97.0715646  92.1291553 124.7969932  96.1578726  92.3595780 124.9652139
  97.5008747  92.2129997 125.6483965  96.8422104 100.3181445 127.2969826
  96.1893555 100.5657352 126.6422279  97.2202484  99.5045583 126.9632304
  93.8029278 110.3541138 121.3997997  93.9851673 109.5362794 121.8625749
  94.6262264 110.5708830 120.9622887  94.1371444 109.2809323 118.6613045
  94.6659210 108.7701778 118.0483207  94.3999663 108.9651853 119.5258578
  84.6388536 107.2973192 126.4048379  85.2241973 106.5516880 126.5376283
  84.4413375 107.6077149 127.2885043  87.4927192 110.3324440 121.4210821
  86.8237567 110.8170567 120.9374861  87.3540061 110.5793660 122.3354200
  79.2306191  99.8678793 125.1252822  79.2690291  99.3342383 125.9189940
  78.7246484  99.3413998 124.5063799  86.6096953  94.7143333 128.6215364
  86.6738280  95.5758164 128.2092762  86.5464074  94.1017335 127.8887723
  86.0849226  96.7866466 132.2688398  86.7121265  96.4043543 132.8825923
  85.2277145  96.5680668 132.6344091  82.8614769  98.5942895 118.2006753
  83.1568210  97.6853573 118.1473807  81.9602805  98.5730634 117.8787756
  86.3909016  96.6698891 124.1834302  85.6695602  97.2834859 124.0441775
  87.1802272  97.2056656 124.1050948  89.1935329  94.0053318 130.4574954
  89.7169731  94.2515614 131.2201263  88.9747663  94.8373353 130.0378091
  84.5902610  96.2756992 118.3246078  84.2615317  95.3954371 118.1421184
  84.9441981  96.2204661 119.2122468  93.8382189 107.9111895 122.8341064
  93.6907152 106.9828603 123.0148634  94.6635683 107.9331986 122.3498139
  87.7044434  96.5629962 118.6921556  88.0440506  97.0915884 117.9700164
  88.1516554  96.9010368 119.4680123  90.3987874  94.9467013 128.1424624
  90.0584695  94.1474826 128.5445304  89.6926881  95.2468724 127.5701457
  91.0504346  92.0316325 126.5951947  91.8730415  91.5576804 126.4730837
  91.2942410  92.8106809 127.0950633  89.6912581  95.0604584 116.8914849
  90.4120943  95.4385837 116.3878566  89.0677885  95.7793461 116.9949827
  93.8343704  95.7649733 117.8273181  94.0507318  96.6474371 117.5262009
  93.3537771  95.3735946 117.0978823  88.5742925  98.7235446 124.4043926
  88.4287506  99.0375749 125.2968207  88.0968129  99.3420346 123.8514824
  90.4339308  95.7137994 124.4524815  90.4200877  94.8179087 124.1157113
  91.1511736  95.7208658 125.0863101  92.2865439  96.1475334 126.4977943
  92.0283216  97.0692405 126.4962273  91.7550479  95.7505769 127.1878407
  97.2311627 109.2526121 119.2768028  97.4048505 108.6872544 118.5241881
  97.7240519 110.0527016 119.0947518  83.0488587 101.2640790 127.3431587
  82.5042055 102.0400598 127.4751861  83.9267937 101.6111595 127.1850708
  89.8376204  94.5952374 119.7212385  89.9592115  93.6669021 119.9203273
  89.5478246  94.6091060 118.8090701  92.7067394  92.2807285 122.8579105
  92.7289091  92.3446618 121.9031085  93.1235453  91.4411793 123.0519611
 103.0851018 102.0162544 120.8958328 103.5282164 101.2669870 120.4977451
 102.2077529 102.0072681 120.5132060  98.2186800 108.5692886 116.3764926
  98.9137704 109.1899578 116.5952241  98.5609950 107.7188237 116.6517304
  83.8354609 100.3910687 130.2361744  83.0936345 100.5393322 130.8226374
  83.5147353 100.6518952 129.3728493 100.1178223 106.0192591 117.9052257
 100.6429547 106.3579864 117.1801577 100.0300575 105.0839607 117.7215392
  91.8018884 112.0864575 122.2647510  91.3623874 111.5940953 122.9580367
  92.5527001 111.5437542 122.0239586  84.2811223 108.2776115 122.2672138
  85.1069243 107.9779887 121.8870782  83.9305275 107.5083738 122.7161927
  89.2492756 107.6302584 124.3369812  88.6272765 106.9673289 124.0372040
  89.9197623 107.6563716 123.6543460  82.4819828 106.1962442 123.2261072
  81.6451736 105.7684616 123.0445073  82.4543473 106.3894885 124.1631863
  89.3217283  96.1084372 133.9302318  89.3705439  96.9846494 133.5480088
  89.8639797  95.5661765 133.3573961  88.8106263 106.1806507 117.8128273
  88.9594383 106.8641971 117.1594945  89.6172706 106.1611597 118.3277728
  91.5516572  96.8615744 130.6848677  90.6819881  97.1549310 130.4131265
  91.7876052  97.4456189 131.4055940 102.6283883 103.4867783 123.2880775
 103.4630775 103.9257587 123.4518336 102.7643012 103.0106436 122.4689021
  86.5658896 102.2071685 118.8189341  86.3204938 101.3034015 119.0169552
  86.7354810 102.2088835 117.8768819  94.2555606  93.0795361 128.2014097
  94.7737549  93.8156388 127.8760586  93.9010738  93.3859354 129.0360856
  85.8354543  97.9400042 116.3175503  85.1423788  98.0144397 115.6615539
  85.5906295  97.1760386 116.8397020  94.5068200  89.4995644 123.7214994
  94.7869953  88.8318833 124.3475420  95.2918807  89.6924739 123.2089658
  92.3101668 108.6754637 115.2840020  91.7375635 109.2944825 114.8310492
  92.8834462 109.2253999 115.8179942  98.3777058  97.9213278 127.4686569
  99.3294481  98.0211375 127.4898793  98.2080508  97.1291546 127.9784653
  96.3991438  95.0068861 127.6545970  95.8041370  95.2873873 126.9592458
  96.1141134  95.4962762 128.4262711  95.5298928 108.9591788 116.4148602
  96.4629601 108.8937349 116.6181478  95.4422141 109.7948054 115.9563135
  98.1586945 108.2757658 113.3752550  98.0800576 107.9417522 114.2688308
  98.9796611 108.7679426 113.3744022 100.8565136 101.1419397 126.5828868
 100.8241456 100.2035398 126.7688552 101.4665759 101.2203434 125.8494693
  92.6948467 100.0115450 112.6256072  93.6407571  99.8821658 112.6944491
  92.3162712  99.2730112 113.1025501 101.0059624  97.9330441 126.6287152
 100.4898673  97.1488897 126.4417081 101.8899573  97.6049157 126.7933671
  98.6670351  91.6771456 122.5882964  98.4695172  91.3686544 123.4726296
  99.2770057  92.4033095 122.7180894  90.8791384  97.9365427 112.5610958
  89.9722839  97.6398539 112.6373671  91.1567365  97.6395245 111.6945244
  81.7969324  99.2571790 123.0110004  81.4772109  98.4037098 122.7184378
  81.2502752  99.4720368 123.7667971  85.5749232 101.9734231 126.7279511
  85.7935242 102.9051339 126.7467544  85.9875006 101.6142205 127.5134314
  92.4953450  92.4802316 118.7155199  91.6854178  92.1349401 119.0910445
  93.1837867  92.1709860 119.3042811  94.4243998  91.5580363 120.3379496
  94.9775036  91.9775817 120.9969519  94.6614084  90.6316111 120.3802452
  89.6490168  94.7952362 112.7022937  90.5109332  95.1207260 112.9618754
  89.8340513  94.0083858 112.1896003  81.6657584 102.8774701 124.9803126
  80.9721056 102.4628654 124.4673080  82.4130575 102.9195238 124.3836545
  97.8022805  93.6680888 119.8458160  97.2221474  94.3265692 119.4636212
  97.5358738  92.8458233 119.4345577  96.2526371  93.0685946 122.0479480
  96.7526150  93.1802481 121.2393799  96.8961979  92.7646999 122.6880289
  83.5794327 102.8092955 122.8569141  83.5565015 102.9080643 121.9051024
  83.8894963 103.6558106 123.1786307  86.2381705 104.8669110 126.9715755
  87.1924958 104.8353053 126.9045687  86.0394228 104.4059734 127.7865981
  86.8281087 103.4370226 129.5386553  87.6473976 103.9314305 129.5621390
  87.1017894 102.5202194 129.5104120  96.5847683  95.8280979 118.9014508
  95.6973538  96.1130629 118.6834703  97.0001672  95.6674742 118.0541785
  99.9362219  95.8527500 122.6168847 100.7122609  96.3423952 122.8893464
  99.2110353  96.2785554 123.0740717 102.3734778  96.5655119 123.6742788
 102.9679269  96.3250855 122.9636096 102.4461361  95.8462249 124.3016324
  84.5931933 110.4088730 123.9885953  84.4586401 109.6489131 123.4223951
  84.1763996 111.1329630 123.5214742  95.7290896 105.5925653 112.9962528
  96.4326747 105.7975656 113.6120184  95.0053545 106.1602415 113.2611612
  96.5588707 101.3435515 119.1164798  96.5023908 101.8004066 118.2772431
  97.1117049 100.5826199 118.9387641 100.3693513  97.1325246 119.9414918
 100.1130447  96.7321882 120.7723126  99.7446381  97.8469040 119.8165057
 104.6805850  99.8721320 122.4486209 104.1205408  99.9414509 123.2217771
 104.0749354  99.6962304 121.7285705  87.7501059 111.3058047 124.2004396
  87.6333443 112.2503479 124.0983086  86.9293506 111.0031608 124.5890195
  97.6377594 106.0308183 115.0460988  98.4723198 105.5989381 114.8638463
  97.4761937 105.8590196 115.9737883  97.2923486 102.5340296 116.4117328
  97.2372290 102.3684567 115.4705772  96.6669541 103.2416329 116.5679517
  82.0816001  97.7708360 130.2378750  82.7274865  97.2607314 130.7265975
  81.8733152  98.5077042 130.8122175  90.6019611  92.0348405 115.9902646
  90.5898281  92.9790245 116.1470917  91.4943033  91.8518550 115.6962107
  90.5309175 110.7117295 124.0770403  89.5804806 110.7119157 123.9634775
  90.8341662 109.9650030 123.5606437  94.4171731  88.6291181 120.2448583
  93.6504127  88.0749668 120.3905265  94.8282436  88.7013050 121.1062734
  86.4213492  94.9175977 134.3353764  87.2844954  94.5612782 134.5457089
  85.8478903  94.5789872 135.0229168 100.7759855 115.2693509 114.4094630
 101.0285375 114.7475030 113.6478093  99.8384414 115.1059655 114.5121313
 100.4956143 117.1721615 116.6119005 100.3792401 116.4966518 117.2800089
 100.6058403 116.6853989 115.7951158 102.4793171 111.6621662 115.3127042
 102.6467574 112.5301898 115.6797514 102.2890340 111.8248944 114.3888332
 102.4582392 114.1179319 116.2973709 102.3382017 114.5636370 117.1359190
 101.7634981 114.4664637 115.7387247  96.9473968 114.0552303 120.8507885
  96.1505131 114.1670998 121.3691381  96.7199560 114.3938956 119.9848776
 105.8070399 115.7604287 115.7040709 105.2917023 116.5308892 115.9429096
 105.5347708 115.0869423 116.3273770  99.0991449 112.4845730 115.5595941
  98.2628761 112.8220416 115.8805216  98.9596219 112.3494710 114.6223078
 101.0744530 107.3282518 120.2675125 100.4208942 107.0131535 119.6431740
 101.0325004 106.7058258 120.9934948 102.1855735 117.6101813 112.1828417
 101.2782796 117.3791066 112.3819566 102.6826767 116.8139432 112.3702399
  93.9332138 115.4319922 120.6867609  93.7356538 114.8389282 119.9618676
  93.3778802 115.1272132 121.4043548 103.0620056 119.2523151 114.0440486
 102.6239486 118.5359010 113.5846123 103.8030497 119.4799266 113.4825577
  96.4278364 114.9583956 118.3708561  95.4975952 114.8968411 118.5878524
  96.5235836 114.4359908 117.5745203  96.3463913 111.4838768 120.9586803
  96.6070731 112.3984102 120.8495964  97.1681086 111.0163211 121.1083416
 107.1831283 118.1107533 113.6372543 106.5660454 117.3854361 113.5405596
 106.7147772 118.8716893 113.2939618  98.9729829 112.3292957 112.7593848
  98.0959296 112.2081758 112.3956094  99.4487582 111.5379036 112.5072736
  93.7008523 113.9234812 118.2006753  93.9961964 113.0145491 118.1473807
  92.7996559 113.9022552 117.8787756  95.4296365 111.6048910 118.3246078
  95.1009071 110.7246289 118.1421184  95.7835736 111.5496579 119.2122468
  98.5438188 111.8921880 118.6921556  98.8834260 112.4207801 117.9700164
  98.9910308 112.2302286 119.4680123 100.5306335 110.3896502 116.8914849
 101.2514698 110.7677754 116.3878566  99.9071639 111.1085378 116.9949827
 104.6737458 111.0941651 117.8273181 104.8901072 111.9766288 117.5262009
 104.1931525 110.7027864 117.0978823 100.6769958 109.9244292 119.7212385
 100.7985869 108.9960938 119.9203273 100.3872001 109.9382978 118.8090701
  97.4052650 117.5363602 118.8189341  97.1598692 116.6325932 119.0169552
  97.5748565 117.5380753 117.8768819  96.6748298 113.2691960 116.3175503
  95.9817543 113.3436315 115.6615539  96.4300050 112.5052304 116.8397020
 103.5342221 115.3407368 112.6256072 104.4801326 115.2113576 112.6944491
 103.1556466 114.6022030 113.1025501 101.7185138 113.2657344 112.5610958
 100.8116594 112.9690457 112.6373671 101.9961119 112.9687162 111.6945244
 103.3347204 107.8094234 118.7155199 102.5247932 107.4641319 119.0910445
 104.0231621 107.5001778 119.3042811 105.2637752 106.8872281 120.3379496
 105.8168791 107.3067734 120.9969519 105.5007839 105.9608029 120.3802452
 100.4883923 110.1244279 112.7022937 101.3503087 110.4499178 112.9618754
 100.6734267 109.3375775 112.1896003 101.4413366 107.3640323 115.9902646
 101.4292036 108.3082162 116.1470917 102.3336788 107.1810468 115.6962107
 105.2565485 103.9583099 120.2448583 104.4897881 103.4041586 120.3905265
 105.6676190 104.0304968 121.1062734  39.4775424   7.0522322 103.1034352
  38.8263404   7.6376403 102.7168366  40.2719787   7.5828517 103.1629390
  35.7397329   0.3004126 101.1339936  35.9922850  -0.2214353 100.3723399
  34.8021888   0.1370271 101.2366620  40.9550689   4.7412754 103.6403336
  40.3196522   4.8147381 104.3524241  40.6248096   5.3306353 102.9622416
  35.1826759  11.9193578 106.6709147  35.1050788  12.8701403 106.7497628
  34.5788402  11.5739450 107.3284073  43.1204933  -0.3788591 103.8499350
  44.0322789  -0.1461204 103.6747048  42.6114580   0.2048453 103.2874429
  45.6063747   5.5391665 108.5957295  44.9214785   5.9190567 108.0454329
  45.6907596   6.1486992 109.3289243  37.4565127   7.2775731 105.3914687
  37.3210802   8.1227266 105.8199535  37.9974940   7.4795008 104.6280621
  40.7707874   0.7914904 102.4286016  40.2554497   1.5619508 102.6674403
  40.4985182   0.1180040 103.0519077  45.7442148   3.5447258 104.3639189
  44.9671591   3.2058418 103.9194351  46.4233629   3.5499881 103.6894154
  37.1493209   2.6412429  98.9073724  36.2420271   2.4101683  99.1064873
  37.6464241   1.8450049  99.0947705  40.0561288  11.3509936 101.8270410
  39.3822987  11.6541633 102.4355368  40.4427110  12.1539017 101.4775867
  38.3281442   2.7425024 103.4297714  37.4192662   2.4584057 103.5270184
  38.3576526   3.1624103 102.5701021  43.5600710   6.3531614 107.1988881
  43.1063037   5.5122524 107.2554072  42.9294677   6.9893012 107.5363661
  42.0033649   8.1908110 108.1338699  42.2956623   8.7513167 107.4151065
  42.5132270   8.4836671 108.8891859  38.0257530   4.2833768 100.7685792
  37.5876960   3.5669627 100.3091430  38.7667971   4.5109883 100.2070884
  46.1430645   2.5590965 106.8262111  46.0048544   2.7492561 105.8983300
  45.7866864   3.3210348 107.2830162  38.2552503  11.5189609 104.0417489
  38.4304259  11.0477652 104.8563112  37.5685291  12.1455375 104.2698750
  42.1468758   3.1418149 100.3617850  41.5297928   2.4164978 100.2650903
  41.6785246   3.9027510 100.0184924  37.1231230   9.7129864 106.7301675
  36.3398752  10.2551544 106.8239899  37.8223975  10.2303844 107.1295916
  42.9706443   6.4657321 104.4810490  43.2466287   6.3513916 105.3904364
  42.1010942   6.0674806 104.4422663  39.6060507  10.7143672 108.1243303
  39.7882902   9.8965328 108.5871056  40.4293493  10.9311364 107.6868193
  39.9402673   9.6411857 105.3858352  40.4690439   9.1304312 104.7728514
  40.2030892   9.3254388 106.2503885  43.0342856   9.6128656 106.0013335
  43.2079734   9.0475078 105.2487187  43.5271747  10.4129550 105.8192825
  48.8882247   2.3765079 107.6203635  49.3313393   1.6272404 107.2222758
  48.0108758   2.3675215 107.2377367  44.0218029   8.9295420 103.1010233
  44.7168933   9.5502113 103.3197548  44.3641179   8.0790771 103.3762611
  45.9209452   6.3795126 104.6297564  46.4460776   6.7182398 103.9046884
  45.8331804   5.4442141 104.4460698  34.6137491   6.5409041 104.5373579
  34.7625612   7.2244506 103.8840252  35.4203935   6.5214131 105.0523035
  38.1132897   9.0357172 102.0085327  37.5406864   9.6547359 101.5555799
  38.6865691   9.5856533 102.5425249  41.3330157   9.3194322 103.1393909
  42.2660830   9.2539883 103.3426784  41.2453370  10.1550589 102.6808442
  43.9618173   8.6360192 100.0997856  43.8831805   8.3020056 100.9933614
  44.7827840   9.1281960 100.0989329  38.4979696   0.3717984  99.3501379
  39.4438800   0.2424193  99.4189797  38.1193940  -0.3667354  99.8270807
  36.6822613  -1.7032039  99.2856264  35.7754068  -1.9998926  99.3618978
  36.9598594  -2.0002221  98.4190551  41.5322125   5.9528188  99.7207835
  42.2357975   6.1578190 100.3365490  40.8084774   6.5204949  99.9856918
  43.4408823   6.3910717 101.7706295  44.2754427   5.9591915 101.5883770
  43.2793166   6.2192730 102.6983189  43.0954715   2.8942830 103.1362634
  43.0403519   2.7287101 102.1951078  42.4700770   3.6018863 103.2924824
  52.0693098  16.9080368 111.8661472  52.7071508  16.7887115 111.1624812
  51.9513941  17.8561212 111.9249424  48.8782804  16.8607796 111.8022996
  48.5401316  16.7448861 110.9143531  49.7472572  16.4598961 111.7824002
  44.7369620  18.7143272 107.7919887  44.1734485  18.6233209 107.0236175
  44.6222015  17.8943177 108.2722380  42.2834052  20.2094464 110.6304108
  43.0755344  19.8685289 110.2150407  42.5230702  20.3189439 111.5506261
  50.3169178  22.3814240 103.1034352  49.6657158  22.9668320 102.7168366
  51.1113541  22.9120435 103.1629390  44.2424806  19.4703377 103.5021487
  45.0155682  18.9232364 103.3634362  44.5950204  20.3347627 103.7135948
  46.0809848  20.7979759 116.7088386  45.7899714  21.7025390 116.5935052
  46.7166833  20.8396287 117.4232455  47.0066055  18.1756608 113.2989745
  47.6029627  17.9512630 112.5846708  47.0641027  17.4341353 113.9015193
  46.5791083  15.6296043 101.1339936  46.8316604  15.1077565 100.3723399
  45.6415643  15.4662189 101.2366620  51.6234366  14.6331822 108.9414680
  52.4097455  14.2151245 108.5905097  51.8873071  15.5377914 109.1096328
  51.7944444  20.0704672 103.6403336  51.1590277  20.1439299 104.3524241
  51.4641850  20.6598271 102.9622416  57.0242793  14.5707055 109.8447658
  57.7567965  14.0006272 110.0785488  56.2682149  14.1828655 110.2854164
  46.2987372  17.5324149 103.3364311  46.1823630  16.8569053 104.0045396
  46.4089632  17.0456523 102.5196464  48.6418913  16.9934296 107.0411001
  48.2777120  16.4664917 107.7523922  49.4986029  16.6032765 106.8677486
  48.2824400  12.0224196 102.0372349  48.4498802  12.8904433 102.4042820
  48.0921569  12.1851478 101.1133638  51.0399733  20.4841175 113.7038179
  50.7400456  21.3866214 113.5953987  50.6950793  20.2173358 114.5559332
  44.4912215  16.9354972 109.7374884  43.5662711  16.8031186 109.9452576
  44.7396628  17.7149191 110.2344826  54.4396877  13.0023715 111.3835617
  53.5313754  12.9339124 111.0894378  54.3884473  13.4795660 112.2117442
  48.2613621  14.4781854 103.0219016  48.1413246  14.9238904 103.8604496
  47.5666209  14.8267171 102.4632554  41.8521026  16.5788245 110.5718673
  41.9813407  16.8322724 111.4858085  41.1718477  17.1715953 110.2523328
  46.0220513  27.2485495 106.6709147  45.9444543  28.1993320 106.7497628
  45.4182157  26.9031368 107.3284073  56.3058523  11.2040154 113.1613491
  55.6632904  11.4972687 112.5153285  55.8013452  11.0893074 113.9666687
  53.9598687  14.9503327 103.8499350  54.8716543  15.1830714 103.6747048
  53.4508334  15.5340371 103.2874429  52.2439455  19.3727955 117.4860643
  52.6522811  18.9310365 116.7415275  51.5216716  18.7980582 117.7394835
  52.5668269  19.9329145 111.2412931  51.9377132  20.0974859 110.5388999
  52.1793931  20.3470755 112.0123895  56.4457501  20.8683583 108.5957295
  55.7608539  21.2482484 108.0454329  56.5301351  21.4778910 109.3289243
  53.7008433  18.5143542 115.1952639  53.9125328  19.1575302 114.5187020
  53.6538181  17.6805859 114.7274569  51.3034662  11.1261363 112.0989211
  50.4419141  11.4242616 112.3905948  51.3297097  11.3431762 111.1670244
  48.1196231  19.6703553 108.5063017  48.5834577  19.9491256 107.7167639
  47.8553029  18.7686998 108.3236107  45.0120312  19.2175035 111.4442780
  45.5821669  19.6462303 110.8060264  45.6028424  18.9357620 112.1426965
  47.0565117  15.7926706 105.3152582  47.7589161  16.2447749 105.7826508
  46.7245746  15.1510525 105.9432475  40.7990451  14.0510258 110.6169715
  40.0089505  14.3067787 110.1409826  41.2901699  14.8658596 110.7221756
  54.8154261  21.3915498 113.3674996  55.6371705  20.9895685 113.0857678
  54.8116664  21.2883732 114.3191112  42.7505197  14.4154838 107.5753192
  41.9536360  14.5273532 108.0936688  42.5230789  14.7541490 106.7094082
  48.5810864  20.9399541 115.5235707  48.6455297  21.4019948 116.3593878
  47.8721788  20.3096906 115.6518016  62.9060254  17.7354246 109.7159968
  62.1523962  17.1661644 109.5603972  63.0407795  17.7016911 110.6630602
  48.2958882  22.6067648 105.3914687  48.1604557  23.4519184 105.8199535
  48.8368694  22.8086926 104.6280621  41.7488279  20.1243086 105.9642612
  42.2612800  20.9186337 106.1148177  42.4010992  19.4269377 105.8976213
  43.5583164  23.2408843 108.0465365  43.7349792  24.1626807 107.8586349
  44.3539998  22.9267262 108.4759745  49.9227358  23.2291215 119.5215029
  49.4791213  22.4427593 119.2035933  50.5844572  23.4170365 118.8558920
  44.6814480  24.7587016 114.0475708  45.2321905  24.6304080 113.2752701
  43.8425955  25.0581905 113.6970600  52.0208596  23.5094015 117.5496430
  52.0027072  24.3302896 117.0576699  52.9428516  23.3848090 117.7746571
  39.7137196  18.4531741 106.7402183  40.5512418  18.8628749 106.5235890
  39.8915464  17.5131183 106.7102376  51.6101628  16.1206821 102.4286016
  51.0948252  16.8911426 102.6674403  51.3378937  15.4471957 103.0519077
  49.1948739  10.9656522 107.4871254  48.3390336  10.5763372 107.3076893
  49.6075691  11.0448483 106.6271039  50.7247886   8.5002865 111.8862814
  50.2212682   8.4633001 111.0730619  51.0178493   9.4095608 111.9459470
  56.5835902  18.8739176 104.3639189  55.8065345  18.5350335 103.9194351
  57.2627383  18.8791799 103.6894154  51.3987931  13.9933913 104.2545797
  51.0938067  14.3080063 105.1055940  52.3518374  14.0715333 104.2973130
  49.8434363  20.1524137 105.9038751  49.3155725  19.4176896 105.5911988
  49.3421866  20.9298813 105.6578719  54.8227209  18.3473157 111.0205797
  54.1650884  19.0372419 111.1085926  55.6267609  18.7369589 111.3639783
  44.5753091  10.8143803 108.2645362  45.1496843  10.5918984 107.5318555
  45.1624073  10.8832498 109.0173963  53.6332668  16.7017530 109.0709739
  54.1464550  17.3347522 109.5731448  54.2833892  16.1018725 108.7053099
  44.9022678  12.8448264 102.2841247  44.0659990  13.1822951 102.6050522
  44.7627448  12.7097244 101.3468384  46.8775759   7.6885052 106.9920432
  46.2240171   7.3734069 106.3677046  46.8356233   7.0660792 107.7180255
  47.9886963  17.9704347  98.9073724  47.0814025  17.7393600  99.1064873
  48.4857995  17.1741966  99.0947705  50.8955042  26.6801854 101.8270410
  50.2216741  26.9833551 102.4355368  51.2820864  27.4830935 101.4775867
  50.1113499  14.1766985 111.3168079  49.1936060  14.3981932 111.1589767
  50.5273643  14.2513296 110.4579787  50.8948547  15.5758401 106.4470759
  51.6420366  16.0879798 106.1377882  51.1640136  15.2542454 107.3075153
  49.1675197  18.0716942 103.4297714  48.2586416  17.7875975 103.5270184
  49.1970281  18.4916020 102.5701021  54.3994464  21.6823531 107.1988881
  53.9456791  20.8414441 107.2554072  53.7688431  22.3184930 107.5363661
  53.3427384  12.6115517 108.4289549  52.6050141  12.0992904 108.7599791
  53.5954157  12.1715899 107.6172826  52.8427404  23.5200028 108.1338699
  53.1350378  24.0805085 107.4151065  53.3526024  23.8128589 108.8891859
  53.4439011   5.3891769 109.0231318  53.7497888   4.5289133 108.7357233
  54.1691616   5.9809390 108.8230312  39.7363367  15.7922456 107.4112916
  39.5387767  15.1991817 106.6863983  39.1810031  15.4874666 108.1288855
  47.7160091  15.6845562 109.5307509  47.7708701  14.7319399 109.4549986
  46.9051293  15.8405002 110.0148808  48.8651285  19.6125686 100.7685792
  48.4270715  18.8961544 100.3091430  49.6061726  19.8401800 100.2070884
  45.6552451  14.3022622 107.2897888  44.8420316  14.6016793 107.6963080
  46.1511445  13.9078311 108.0072370  47.8061029  24.2980379 109.2232153
  47.7637208  24.5241225 108.2940685  48.7223728  24.0643754 109.3717954
  56.9824399  17.8882883 106.8262111  56.8442298  18.0784479 105.8983300
  56.6260618  18.6502265 107.2830162  57.0093779  19.9559410 111.8373382
  57.4430286  19.8634699 112.6856436  57.7225360  19.9316910 111.1993398
  45.9226830  21.1743408 109.0194115  46.7167428  20.6793728 108.8176690
  45.2118522  20.6461271 108.6561821  50.7421674  23.5561504 113.3706483
  50.7958696  24.1252440 114.1384199  49.8736455  23.7263389 113.0060520
  42.2309593  15.3186490 105.0953868  41.3007181  15.2570945 105.3123830
  42.3267065  14.7962443 104.2990509  42.1495142  11.8441303 107.6832110
  42.4101959  12.7586636 107.5741270  42.9712314  11.3765745 107.8328723
  57.8709329  19.9983110 114.3706268  58.0645219  20.9028921 114.6165543
  57.7709947  19.5390529 115.2044853  52.9324437  20.1489853 119.9447148
  52.7809944  19.9200405 119.0277232  52.9229117  21.1060454 119.9578493
  49.7009774  17.7221766 114.9293415  50.6301834  17.8732925 114.7562382
  49.2800804  17.8105786 114.0742061  48.4998106  21.7472430 112.6991953
  48.3609191  21.3791215 113.5717891  47.7112702  22.2620070 112.5275910
  49.0946257  26.8481527 104.0417489  49.2698013  26.3769570 104.8563112
  48.4079046  27.4747293 104.2698750  50.0503321  21.1254033 110.0880790
  49.7153153  21.0854803 110.9838440  49.5507266  20.4598749 109.6151201
  52.9862512  18.4710067 100.3617850  52.3691683  17.7456895 100.2650903
  52.5179001  19.2319427 100.0184924  54.6416644  23.1808976 118.0223630
  54.5829190  22.4968196 117.3554213  55.0436162  23.9227966 117.5704256
  43.6607343  29.9970889 110.8157349  43.9003941  30.6289414 111.4936368
  42.8176539  29.6458929 111.1022708  44.7761058  12.6895491  99.4839154
  43.8990525  12.5684292  99.1201401  45.2518811  11.8981570  99.2318043
  54.6434051  21.1448559 116.2537610  53.7560830  20.8074481 116.3764009
  55.2132602  20.4131591 116.4906375  36.2963198  17.4772651 109.5780661
  36.9834238  17.1634381 108.9901677  36.1411327  18.3814016 109.3047913
  48.1735205  25.8050012 113.2198853  48.1005376  26.6104983 113.7318158
  47.7312598  26.0041978 112.3946875  47.9624984  25.0421782 106.7301675
  47.1792506  25.5843462 106.8239899  48.6617729  25.5595761 107.1295916
  51.2721634  10.8516411 109.3735880  51.7690334  10.0986374 109.0536950
  50.5008616  10.8880728 108.8079089  59.1251392  16.5556777 111.0154172
  59.1141268  17.4381492 110.6448105  58.2568771  16.2028328 110.8208709
  50.6333888  25.7036846 115.3757012  51.3461860  26.3384311 115.3032913
  50.1423917  25.8000712 114.5597014  52.3551415  19.6088099 106.9474304
  51.4207694  19.7289561 106.7779008  52.5328084  18.7060565 106.6834313
  47.8556603  12.9933794 109.1007565  47.4854391  12.4404835 109.7888470
  48.3515696  12.3891928 108.5482565  55.7423966  15.4505418 107.4824338
  56.2084419  16.2833409 107.4084640  56.1931467  14.9850399 108.1869596
  45.6845802  23.4531289 116.1962583  46.3855261  24.0867772 116.3491977
  45.2140917  23.7946021 115.4358222  53.8100198  21.7949239 104.4810490
  54.0860041  21.6805834 105.3904364  52.9404696  21.3966724 104.4422663
  53.7140629   7.8186005 111.5215239  52.8003709   8.0490232 111.6897446
  54.1433731   7.9024449 112.3729271  53.4847088  16.0075897 114.0215133
  52.8318538  16.2551804 113.3667586  53.8627468  15.1940035 113.6877610
  50.4454262  26.0435590 108.1243303  50.6276656  25.2257246 108.5871056
  51.2687248  26.2603282 107.6868193  50.7796427  24.9703775 105.3858352
  51.3084193  24.4596230 104.7728514  51.0424647  24.6546305 106.2503885
  41.2813520  22.9867644 113.1293685  41.8666957  22.2411332 113.2621590
  41.0838358  23.2971601 114.0130349  44.1352175  26.0218892 108.1456128
  43.4662550  26.5065019 107.6620168  43.9965045  26.2688112 109.0599506
  48.2757444  28.0562635 114.7438786  48.8275752  28.2194257 115.5087871
  48.6163637  28.6467073 114.0718811  53.1268318  22.8823893 120.5987441
  53.6708222  23.4953851 120.1042395  52.5455163  23.4403471 121.1154454
  39.5039752  14.2837347 104.9252060  39.7993193  13.3748025 104.8719114
  38.6027788  14.2625086 104.6033062  51.4125831  26.0044611 111.7302468
  51.2876970  25.2034351 111.2213414  52.0704922  26.4990804 111.2416438
  43.0333999  12.3593343 110.9079608  42.3120585  12.9729311 110.7687082
  43.8227255  12.8951108 110.8296254  53.4760739  23.8053631 113.3582018
  52.5291075  23.6858982 113.2860345  53.8243512  22.9176129 113.4408280
  41.2327594  11.9651444 105.0491385  40.9040300  11.0848823 104.8666491
  41.5866964  11.9099113 105.9367774  50.4807173  23.6006347 109.5586371
  50.3332135  22.6723054 109.7393941  51.3060666  23.6226438 109.0743446
  44.3469417  12.2524414 105.4166863  44.6865489  12.7810335 104.6945471
  44.7941537  12.5904820 106.1925429  54.0841294  24.4234906 110.6451243
  55.0087842  24.2177767 110.5075694  53.9156598  24.1751307 111.5540585
  46.3337564  10.7499036 103.6160155  47.0545926  11.1280289 103.1123872
  45.7102868  11.4687913 103.7195133  50.4768687  11.4544185 104.5518488
  50.6932301  12.3368823 104.2507316  49.9962754  11.0630398 103.8224130
  45.2167908  14.4129898 111.1289232  45.0712489  14.7270201 112.0213514
  44.7393112  15.0314798 110.5760131  47.0764291  11.4032446 111.1770122
  47.0625860  10.5073539 110.8402420  47.7936719  11.4103110 111.8108408
  53.8736611  24.9420573 106.0013335  54.0473488  24.3766996 105.2487187
  54.3665502  25.7421468 105.8192825  46.4801187  10.2846826 106.4457692
  46.6017098   9.3563472 106.6448580  46.1903229  10.2985512 105.5336008
  49.3492377   7.9701737 109.5824412  49.3714074   8.0341070 108.6276391
  49.7660436   7.1306245 109.7764918  59.7276002  17.7056996 107.6203635
  60.1707148  16.9564321 107.2222758  58.8502512  17.6967133 107.2377367
  54.8611783  24.2587338 103.1010233  55.5562688  24.8794030 103.3197548
  55.2034933  23.4082689 103.3762611  56.7603206  21.7087043 104.6297564
  57.2854530  22.0474316 103.9046884  56.6725559  20.7734059 104.4460698
  48.4223255  25.6221117 116.7587440  48.7310381  25.3770264 117.6310140
  49.2198737  25.8267755 116.2706311  48.4443867  27.7759026 108.9892817
  48.0048857  27.2835405 109.6825674  49.1951984  27.2331994 108.7484892
  40.9236206  23.9670567 108.9917445  41.7494226  23.6674339 108.6116089
  40.5730258  23.1978190 109.4407234  45.8917739  23.3197036 111.0615119
  45.2697748  22.6567741 110.7617347  46.5622606  23.3458167 110.3788766
  39.1244811  21.8856894 109.9506379  38.2876719  21.4579068 109.7690380
  39.0968456  22.0789337 110.8877170  56.4497112  22.3419947 119.9348762
  55.6592656  22.3244086 119.3953261  56.2130467  22.8808241 120.6897798
  56.5694987  19.1912413 117.2481490  56.6192992  19.0262421 118.1897013
  56.4608911  18.3239672 116.8579371  45.4531246  21.8700959 104.5373579
  45.6019366  22.5536423 103.8840252  46.2597689  21.8506049 105.0523035
  58.0713184  21.6109355 117.4923512  57.7797992  21.9739335 118.3286973
  57.4585315  20.8976363 117.3136844  59.2708866  19.1762235 110.0126082
  60.1055758  19.6152039 110.1763642  59.4067995  18.7000888 109.1934328
  56.3200372  16.7341969 115.9603570  56.7954494  16.9269616 115.1522421
  55.3965938  16.7901155 115.7146954  43.2083879  17.8966137 105.5434648
  42.9629921  16.9928467 105.7414858  43.3779793  17.8983287 104.6014126
  42.4779526  13.6294494 103.0420810  41.7848771  13.7038849 102.3860846
  42.2331278  12.8654838 103.5642327  48.9526652  24.3649089 102.0085327
  48.3800619  24.9839276 101.5555799  49.5259445  24.9148451 102.5425249
  55.0202041  13.6107729 114.1931875  55.9719464  13.7105827 114.2144099
  54.8505492  12.8185998 114.7029960  53.0416421  10.6963313 114.3791276
  52.4466353  10.9768325 113.6837765  52.7566118  11.1857214 115.1508017
  52.1723911  24.6486239 103.1393909  53.1054584  24.5831801 103.3426784
  52.0847124  25.4842506 102.6808442  54.8011928  23.9652110 100.0997856
  54.7225559  23.6311973 100.9933614  55.6221595  24.4573878 100.0989329
  57.4990119  16.8313849 113.3074175  57.4666439  15.8929850 113.4933859
  58.1090743  16.9097886 112.5740000  49.3373450  15.7009902  99.3501379
  50.2832555  15.5716110  99.4189797  48.9587695  14.9624564  99.8270807
  57.6484608  13.6224893 113.3532458  57.1323656  12.8383349 113.1662387
  58.5324556  13.2943609 113.5178978  55.3095335   7.3665908 109.3128271
  55.1120156   7.0580996 110.1971603  55.9195040   8.0927547 109.4426201
  63.3166669  17.8929856 112.4480212  64.0470057  17.6315144 113.0087915
  62.7073614  17.1558578 112.4882280  61.3981966  16.0337719 113.0454663
  60.6715130  15.8993683 112.4371155  60.9829253  16.3414547 113.8511381
  47.5216367  13.6259878  99.2856264  46.6147823  13.3292991  99.3618978
  47.7992348  13.3289697  98.4190551  38.4394308  14.9466242 109.7355311
  38.1197092  14.0931550 109.4429685  37.8927736  15.1614820 110.4913278
  42.2174215  17.6628683 113.4524817  42.4360225  18.5945791 113.4712851
  42.6299989  17.3036657 114.2379621  49.1378433   8.1696768 105.4400506
  48.3279161   7.8243853 105.8155752  49.8262850   7.8604312 106.0288117
  51.0668981   7.2474815 107.0624802  51.6200020   7.6670268 107.7214825
  51.3039068   6.3210563 107.1047758  46.2915152  10.4846814  99.4268244
  47.1534316  10.8101712  99.6864061  46.4765496   9.6978310  98.9141309
  38.3082568  18.5669153 111.7048432  37.6146039  18.1523106 111.1918387
  39.0555559  18.6089690 111.1081851  54.4447788   9.3575340 106.5703467
  53.8646457  10.0160144 106.1881519  54.1783721   8.5352685 106.1590884
  52.8951355   8.7580398 108.7724787  53.3951133   8.8696932 107.9639106
  53.5386963   8.4541451 109.4125595  40.2219310  18.4987407 109.5814447
  40.1989998  18.5975094 108.6296330  40.5319947  19.3452558 109.9031613
  42.8806688  20.5563562 113.6961062  43.8349941  20.5247505 113.6290993
  42.6819212  20.0954186 114.5111288  53.2272666  11.5175431 105.6259815
  52.3398521  11.8025081 105.4080010  53.6426655  11.3569194 104.7787092
  56.5787202  11.5421952 109.3414154  57.3547593  12.0318404 109.6138771
  55.8535337  11.9680006 109.7986024  59.0159761  12.2549571 110.3988095
  59.6104252  12.0145307 109.6881403  59.0886345  11.5356701 111.0261631
  41.2356917  26.0983182 110.7131260  41.1011385  25.3383583 110.1469258
  40.8188979  26.8224082 110.2460048  52.3715880  21.2820105  99.7207835
  53.0751730  21.4870108 100.3365490  51.6478529  21.8496867  99.9856918
  53.2013690  17.0329966 105.8410105  53.1448891  17.4898518 105.0017737
  53.7542032  16.2720651 105.6632948  57.0118496  12.8219698 106.6660224
  56.7555430  12.4216334 107.4968432  56.3871364  13.5363492 106.5410364
  61.3230834  15.5615772 109.1731516  60.7630392  15.6308961 109.9463078
  60.7174337  15.3856756 108.4531012  44.3926043  26.9952499 110.9249702
  44.2758427  27.9397931 110.8228392  43.5718489  26.6926060 111.3135501
  54.2802577  21.7202634 101.7706295  55.1148181  21.2883833 101.5883770
  54.1186920  21.5484648 102.6983189  53.9348469  18.2234748 103.1362634
  53.8797273  18.0579019 102.1951078  53.3094525  18.9310781 103.2924824
  47.2444595   7.7242857 102.7147953  47.2323265   8.6684697 102.8716223
  48.1368017   7.5413002 102.4207414  45.4180557  27.6480761 114.1405631
  46.3207803  27.6804371 114.4572126  45.1917927  26.7181212 114.1551966
  47.1734159  26.4011747 110.8015709  46.2229790  26.4013609 110.6880081
  47.4766645  25.6544482 110.2851744  51.0596714   4.3185633 106.9693889
  50.2929110   3.7644120 107.1150572  51.4707419   4.3907502 107.8308041
  62.9086852  32.2372286 111.8661472  63.5465262  32.1179033 111.1624812
  62.7907695  33.1853129 111.9249424  59.7176559  32.1899714 111.8022996
  59.3795070  32.0740778 110.9143531  60.5866327  31.7890879 111.7824002
  55.5763374  34.0435190 107.7919887  55.0128239  33.9525127 107.0236175
  55.4615769  33.2235095 108.2722380  60.1996342  33.3434565 117.7609202
  60.1884982  32.9487364 116.8889705  60.3616981  32.6100638 118.3542973
  53.1227806  35.5386382 110.6304108  53.9149098  35.1977206 110.2150407
  53.3624456  35.6481357 111.5506261  61.1562933  37.7106158 103.1034352
  60.5050913  38.2960238 102.7168366  61.9507296  38.2412353 103.1629390
  55.0818560  34.7995295 103.5021487  55.8549436  34.2524282 103.3634362
  55.4343959  35.6639544 103.7135948  56.9203603  36.1271677 116.7088386
  56.6293469  37.0317308 116.5935052  57.5560587  36.1688205 117.4232455
  57.8459810  33.5048526 113.2989745  58.4423382  33.2804548 112.5846708
  57.9034781  32.7633271 113.9015193  57.4184838  30.9587961 101.1339936
  57.6710359  30.4369482 100.3723399  56.4809397  30.7954106 101.2366620
  62.4628121  29.9623739 108.9414680  63.2491210  29.5443163 108.5905097
  62.7266825  30.8669832 109.1096328  62.6338198  35.3996590 103.6403336
  61.9984031  35.4731216 104.3524241  62.3035604  35.9890189 102.9622416
  67.8636548  29.8998973 109.8447658  68.5961720  29.3298189 110.0785488
  67.1075904  29.5120573 110.2854164  57.1381127  32.8616067 103.3364311
  57.0217385  32.1860970 104.0045396  57.2483387  32.3748441 102.5196464
  59.4812668  32.3226214 107.0411001  59.1170875  31.7956835 107.7523922
  60.3379783  31.9324683 106.8677486  65.3861968  23.6120547 114.3042267
  65.0545293  24.4815958 114.0803482  64.7907582  23.2956831 114.9836297
  59.1218155  27.3516114 102.0372349  59.2892557  28.2196350 102.4042820
  58.9315324  27.5143395 101.1133638  61.8793488  35.8133093 113.7038179
  61.5794211  36.7158131 113.5953987  61.5344547  35.5465276 114.5559332
  55.3305969  32.2646890 109.7374884  54.4056466  32.1323104 109.9452576
  55.5790382  33.0441109 110.2344826  65.2790632  28.3315633 111.3835617
  64.3707509  28.2631041 111.0894378  65.2278227  28.8087578 112.2117442
  59.1007375  29.8073771 103.0219016  58.9807001  30.2530822 103.8604496
  58.4059964  30.1559089 102.4632554  52.6914780  31.9080163 110.5718673
  52.8207161  32.1614642 111.4858085  52.0112232  32.5007871 110.2523328
  56.8614268  42.5777413 106.6709147  56.7838297  43.5285238 106.7497628
  56.2575911  42.2323286 107.3284073  59.3531497  29.7505278 119.3270514
  58.5764831  30.3099199 119.3173379  59.9922060  30.2362061 119.8485384
  67.1452278  26.5332071 113.1613491  66.5026658  26.8264604 112.5153285
  66.6407206  26.4184992 113.9666687  64.7992442  30.2795244 103.8499350
  65.7110298  30.5122631 103.6747048  64.2902089  30.8632289 103.2874429
  57.6077870  32.5590732 118.8888481  58.3492554  33.0975776 118.6123305
  56.9014855  33.1857021 119.0460033  63.0833209  34.7019872 117.4860643
  63.4916565  34.2602283 116.7415275  62.3610471  34.1272500 117.7394835
  59.4364279  29.6392479 114.8594200  60.2825475  30.0631893 115.0028849
  59.3762917  28.9826103 115.5532763  63.4062024  35.2621063 111.2412931
  62.7770886  35.4266777 110.5388999  63.0187686  35.6762672 112.0123895
  67.2851256  36.1975501 108.5957295  66.6002294  36.5774402 108.0454329
  67.3695105  36.8070827 109.3289243  62.5863725  27.2996847 116.5175373
  62.3424657  28.0538908 115.9809649  62.8623655  27.6782195 117.3522620
  64.5402187  33.8435460 115.1952639  64.7519083  34.4867220 114.5187020
  64.4931936  33.0097776 114.7274569  62.1428416  26.4553280 112.0989211
  61.2812895  26.7534534 112.3905948  62.1690851  26.6723679 111.1670244
  58.9589986  34.9995471 108.5063017  59.4228331  35.2783174 107.7167639
  58.6946784  34.0978916 108.3236107  55.8514067  34.5466953 111.4442780
  56.4215424  34.9754221 110.8060264  56.4422179  34.2649537 112.1426965
  57.8958872  31.1218623 105.3152582  58.5982915  31.5739667 105.7826508
  57.5639500  30.4802442 105.9432475  56.3439233  29.7130380 119.6903791
  55.7137894  30.3946661 119.9239188  56.2375321  29.6013462 118.7456929
  51.6384206  29.3802176 110.6169715  50.8483260  29.6359705 110.1409826
  52.1295453  30.1950514 110.7221756  65.6548015  36.7207415 113.3674996
  66.4765459  36.3187602 113.0857678  65.6510418  36.6175649 114.3191112
  53.5898951  29.7446755 107.5753192  52.7930114  29.8565450 108.0936688
  53.3624543  30.0833407 106.7094082  59.4204619  36.2691458 115.5235707
  59.4849051  36.7311866 116.3593878  58.7115543  35.6388823 115.6518016
  49.9221909  29.6332666 113.0484706  50.1729947  30.5179676 113.3142282
  50.4581457  29.4537268 112.2759798  73.7454008  33.0646164 109.7159968
  72.9917717  32.4953562 109.5603972  73.8801550  33.0308828 110.6630602
  59.1352636  37.9359566 105.3914687  58.9998311  38.7811102 105.8199535
  59.6762449  38.1378844 104.6280621  55.6219976  24.0151146 122.0529042
  55.2286922  23.4617344 122.7276686  56.4386116  24.3261724 122.4435560
  52.5882034  35.4535004 105.9642612  53.1006554  36.2478254 106.1148177
  53.2404747  34.7561294 105.8976213  54.3976919  38.5700760 108.0465365
  54.5743547  39.4918725 107.8586349  55.1933752  38.2559180 108.4759745
  58.5387937  25.4309025 119.6449299  59.2797650  26.0316178 119.5653761
  58.7705860  24.6886663 119.0867341  53.6829275  30.6165392 117.9227528
  53.5682790  29.7150649 118.2234627  52.8273793  30.8629089 117.5712345
  60.7621113  38.5583132 119.5215029  60.3184967  37.7719511 119.2035933
  61.4238326  38.7462283 118.8558920  55.5208234  40.0878934 114.0475708
  56.0715659  39.9595997 113.2752701  54.6819710  40.3873823 113.6970600
  62.8602351  38.8385932 117.5496430  62.8420826  39.6594813 117.0576699
  63.7822271  38.7140008 117.7746571  59.3175405  36.3530062 118.3919939
  59.8503742  35.5918350 118.1619247  58.7889486  36.0603714 119.1344093
  62.4845100  21.4590128 113.9213580  62.1409369  22.3491770 113.8452691
  62.8524063  21.2691786 113.0583165  50.5530951  33.7823658 106.7402183
  51.3906173  34.1920667 106.5235890  50.7309218  32.8423100 106.7102376
  62.4495383  31.4498739 102.4286016  61.9342006  32.2203344 102.6674403
  62.1772691  30.7763875 103.0519077  60.0342494  26.2948440 107.4871254
  59.1784090  25.9055290 107.3076893  60.4469446  26.3740401 106.6271039
  61.5641640  23.8294783 111.8862814  61.0606436  23.7924918 111.0730619
  61.8572247  24.7387526 111.9459470  57.8084526  23.9133513 110.8928995
  58.6737523  23.7176321 110.5334885  57.8762035  23.6843865 111.8198352
  67.4229657  34.2031094 104.3639189  66.6459100  33.8642253 103.9194351
  68.1021138  34.2083717 103.6894154  62.2381686  29.3225831 104.2545797
  61.9331821  29.6371980 105.1055940  63.1912128  29.4007251 104.2973130
  60.6828118  35.4816054 105.9038751  60.1549479  34.7468814 105.5911988
  60.1815620  36.2590731 105.6578719  65.6620964  33.6765075 111.0205797
  65.0044638  34.3664336 111.1085926  66.4661363  34.0661507 111.3639783
  55.4146845  26.1435721 108.2645362  55.9890597  25.9210902 107.5318555
  56.0017828  26.2124415 109.0173963  64.4726423  32.0309448 109.0709739
  64.9858304  32.6639439 109.5731448  65.1227646  31.4310643 108.7053099
  55.7416432  28.1740182 102.2841247  54.9053745  28.5114868 102.6050522
  55.6021202  28.0389161 101.3468384  57.7169513  23.0176970 106.9920432
  57.0633925  22.7025987 106.3677046  57.6749987  22.3952710 107.7180255
  58.8280718  33.2996265  98.9073724  57.9207780  33.0685518  99.1064873
  59.3251750  32.5033884  99.0947705  61.7348797  42.0093772 101.8270410
  61.0610496  42.3125469 102.4355368  62.1214619  42.8122852 101.4775867
  60.9507253  29.5058903 111.3168079  60.0329815  29.7273850 111.1589767
  61.3667397  29.5805214 110.4579787  61.7342301  30.9050319 106.4470759
  62.4814120  31.4171716 106.1377882  62.0033891  30.5834372 107.3075153
  60.0068951  33.4008860 103.4297714  59.0980171  33.1167892 103.5270184
  60.0364035  33.8207938 102.5701021  65.2388219  37.0115449 107.1988881
  64.7850546  36.1706359 107.2554072  64.6082186  37.6476847 107.5363661
  64.1821138  27.9407435 108.4289549  63.4443895  27.4284821 108.7599791
  64.4347912  27.5007817 107.6172826  63.6821158  38.8491946 108.1338699
  63.9744132  39.4097003 107.4151065  64.1919779  39.1420507 108.8891859
  64.2832766  20.7183687 109.0231318  64.5891642  19.8581050 108.7357233
  65.0085370  21.3101307 108.8230312  50.5757122  31.1214374 107.4112916
  50.3781522  30.5283734 106.6863983  50.0203786  30.8166584 108.1288855
  58.5553845  31.0137480 109.5307509  58.6102455  30.0611317 109.4549986
  57.7445047  31.1696919 110.0148808  59.7045039  34.9417603 100.7685792
  59.2664469  34.2253462 100.3091430  60.4455480  35.1693718 100.2070884
  56.4946205  29.6314540 107.2897888  55.6814071  29.9308710 107.6963080
  56.9905200  29.2370229 108.0072370  58.6454783  39.6272297 109.2232153
  58.6030962  39.8533143 108.2940685  59.5617482  39.3935671 109.3717954
  62.0920417  30.0956364 116.1212782  62.4469805  30.3227837 116.9807248
  62.7392548  30.4274741 115.4990037  67.8218154  33.2174800 106.8262111
  67.6836053  33.4076396 105.8983300  67.4654373  33.9794183 107.2830162
  55.9860280  27.2032895 112.9059123  56.6259659  27.0621654 112.2082086
  55.1537811  26.9167409 112.5297725  67.8487534  35.2851327 111.8373382
  68.2824040  35.1926616 112.6856436  68.5619114  35.2608828 111.1993398
  56.7620584  36.5035326 109.0194115  57.5561182  36.0085646 108.8176690
  56.0512276  35.9753189 108.6561821  61.5815428  38.8853421 113.3706483
  61.6352451  39.4544358 114.1384199  60.7130210  39.0555306 113.0060520
  53.0703347  30.6478408 105.0953868  52.1400936  30.5862863 105.3123830
  53.1660819  30.1254360 104.2990509  52.9888897  27.1733220 107.6832110
  53.2495714  28.0878554 107.5741270  53.8106069  26.7057663 107.8328723
  54.4613822  28.5870978 114.8530934  55.1336875  28.3788340 114.2043583
  53.6343608  28.3893064 114.4136167  68.7103083  35.3275028 114.3706268
  68.9038973  36.2320838 114.6165543  68.6103701  34.8682447 115.2044853
  60.3639394  25.2132918 116.8696595  59.7167309  25.9122868 116.7761072
  61.1340409  25.6469062 117.2372843  63.7718192  35.4781771 119.9447148
  63.6203698  35.2492322 119.0277232  63.7622871  36.4352372 119.9578493
  60.5403528  33.0513683 114.9293415  61.4695588  33.2024843 114.7562382
  60.1194558  33.1397704 114.0742061  59.3391860  37.0764348 112.6991953
  59.2002946  36.7083132 113.5717891  58.5506456  37.5911987 112.5275910
  59.9340012  42.1773444 104.0417489  60.1091768  41.7061487 104.8563112
  59.2472800  42.8039210 104.2698750  60.8897075  36.4545950 110.0880790
  60.5546908  36.4146720 110.9838440  60.3901021  35.7890666 109.6151201
  54.8641319  31.8613581 115.6133371  54.7261117  31.1293819 116.2144910
  55.7746243  31.7722481 115.3317559  63.8256267  33.8001985 100.3617850
  63.2085437  33.0748813 100.2650903  63.3572755  34.5611345 100.0184924
  57.4923620  31.5733540 115.1017051  58.2023238  30.9326732 115.0603670
  57.4492928  31.8246435 116.0243232  65.4810398  38.5100893 118.0223630
  65.4222945  37.8260113 117.3554213  65.8829917  39.2519883 117.5704256
  56.2052554  28.5598758 116.9212691  55.6689911  28.1089496 117.5734287
  55.6169262  28.6944667 116.1783155  54.5001097  45.3262807 110.8157349
  54.7397695  45.9581331 111.4936368  53.6570294  44.9750847 111.1022708
  55.6154813  28.0187409  99.4839154  54.7384279  27.8976210  99.1201401
  56.0912566  27.2273487  99.2318043  65.4827806  36.4740477 116.2537610
  64.5954584  36.1366399 116.3764009  66.0526357  35.7423508 116.4906375
  47.1356953  32.8064569 109.5780661  47.8227993  32.4926299 108.9901677
  46.9805082  33.7105934 109.3047913  51.9391675  27.6954765 114.0065685
  51.8549864  27.0880435 113.2716095  51.1174381  28.1863784 114.0075181
  59.0128959  41.1341929 113.2198853  58.9399131  41.9396901 113.7318158
  58.5706352  41.3333895 112.3946875  58.8018739  40.3713699 106.7301675
  58.0186261  40.9135380 106.8239899  59.5011484  40.8887679 107.1295916
  62.1115389  26.1808329 109.3735880  62.6084088  25.4278291 109.0536950
  61.3402370  26.2172646 108.8079089  69.9645146  31.8848694 111.0154172
  69.9535023  32.7673410 110.6448105  69.0962526  31.5320245 110.8208709
  61.4727643  41.0328763 115.3757012  62.1855615  41.6676228 115.3032913
  60.9817671  41.1292629 114.5597014  63.1945170  34.9380016 106.9474304
  62.2601448  35.0581479 106.7779008  63.3721838  34.0352483 106.6834313
  58.6950358  28.3225712 109.1007565  58.3248145  27.7696752 109.7888470
  59.1909450  27.7183845 108.5482565  66.5817721  30.7797335 107.4824338
  67.0478173  31.6125327 107.4084640  67.0325221  30.3142317 108.1869596
  56.5239556  38.7823207 116.1962583  57.2249016  39.4159690 116.3491977
  56.0534671  39.1237939 115.4358222  64.6493952  37.1241157 104.4810490
  64.9253796  37.0097751 105.3904364  63.7798451  36.7258642 104.4422663
  64.5534384  23.1477922 111.5215239  63.6397463  23.3782149 111.6897446
  64.9827485  23.2316367 112.3729271  64.3240842  31.3367814 114.0215133
  63.6712292  31.5843722 113.3667586  64.7021222  30.5231953 113.6877610
  61.2848016  41.3727508 108.1243303  61.4670411  40.5549164 108.5871056
  62.1081002  41.5895200 107.6868193  61.6190182  40.2995693 105.3858352
  62.1477948  39.7888147 104.7728514  61.8818401  39.9838223 106.2503885
  60.3728415  32.0787625 120.5081170  59.6969052  31.9781755 121.1783545
  61.1956049  31.9226839 120.9717167  52.1207274  38.3159562 113.1293685
  52.7060711  37.5703250 113.2621590  51.9232113  38.6263519 114.0130349
  54.9745929  41.3510809 108.1456128  54.3056305  41.8356937 107.6620168
  54.8358799  41.5980030 109.0599506  46.7124929  30.8865162 111.8498129
  46.7509028  30.3528753 112.6435247  46.2065222  30.3600368 111.2309106
  59.1151198  43.3854553 114.7438786  59.6669506  43.5486174 115.5087871
  59.4557391  43.9758991 114.0718811  54.0915691  25.7329703 115.3460671
  54.1557018  26.5944534 114.9338068  54.0282812  25.1203704 114.6133029
  53.5667964  27.8052835 118.9933705  54.1940003  27.4229913 119.6071229
  52.7095883  27.5867037 119.3589398  63.9662072  38.2115810 120.5987441
  64.5101976  38.8245769 120.1042395  63.3848917  38.7695389 121.1154454
  50.3433507  29.6129264 104.9252060  50.6386948  28.7039943 104.8719114
  49.4421542  29.5917004 104.6033062  62.2519585  41.3336528 111.7302468
  62.1270725  40.5326268 111.2213414  62.9098676  41.8282722 111.2416438
  53.8727754  27.6885261 110.9079608  53.1514339  28.3021229 110.7687082
  54.6621009  28.2243026 110.8296254  64.3154494  39.1345549 113.3582018
  63.3684829  39.0150900 113.2860345  64.6637267  38.2468047 113.4408280
  56.6754067  25.0239687 117.1820260  57.1988469  25.2701984 117.9446570
  56.4566400  25.8559722 116.7623398  52.0721348  27.2943362 105.0491385
  51.7434054  26.4140741 104.8666491  52.4260719  27.2391031 105.9367774
  61.3200927  38.9298265 109.5586371  61.1725889  38.0014972 109.7393941
  62.1454421  38.9518355 109.0743446  55.1863171  27.5816332 105.4166863
  55.5259244  28.1102253 104.6945471  55.6335292  27.9196738 106.1925429
  64.9235049  39.7526823 110.6451243  65.8481596  39.5469685 110.5075694
  64.7550352  39.5043225 111.5540585  57.8806612  25.9653383 114.8669931
  57.5403432  25.1661196 115.2690611  57.1745618  26.2655093 114.2946764
  58.5323084  23.0502695 113.3197254  59.3549153  22.5763173 113.1976144
  58.7761147  23.8293179 113.8195940  57.1731318  26.0790953 103.6160155
  57.8939681  26.4572206 103.1123872  56.5496623  26.7979830 103.7195133
  61.3162441  26.7836102 104.5518488  61.5326056  27.6660740 104.2507316
  60.8356508  26.3922316 103.8224130  56.0561663  29.7421816 111.1289232
  55.9106243  30.0562119 112.0213514  55.5786866  30.3606716 110.5760131
  57.9158046  26.7324364 111.1770122  57.9019614  25.8365457 110.8402420
  58.6330474  26.7395027 111.8108408  59.7684176  27.1661704 113.2223249
  59.5101954  28.0878774 113.2207580  59.2369217  26.7692138 113.9123714
  64.7130365  40.2712491 106.0013335  64.8867243  39.7058913 105.2487187
  65.2059256  41.0713386 105.8192825  50.5307325  32.2827160 114.0676894
  49.9860793  33.0586968 114.1997168  51.4086675  32.6297964 113.9096015
  57.3194942  25.6138744 106.4457692  57.4410853  24.6855390 106.6448580
  57.0296984  25.6277430 105.5336008  60.1886132  23.2993654 109.5824412
  60.2107829  23.3632987 108.6276391  60.6054191  22.4598163 109.7764918
  70.5669756  33.0348914 107.6203635  71.0100902  32.2856239 107.2222758
  69.6896267  33.0259050 107.2377367  65.7005538  39.5879255 103.1010233
  66.3956442  40.2085948 103.3197548  66.0428688  38.7374607 103.3762611
  51.3173347  31.4097056 116.9607050  50.5755083  31.5579692 117.5471681
  50.9966091  31.6705322 116.0973800  67.5996961  37.0378961 104.6297564
  68.1248285  37.3766234 103.9046884  67.5119313  36.1025976 104.4460698
  59.2617009  40.9513035 116.7587440  59.5704136  40.7062181 117.6310140
  60.0592491  41.1559673 116.2706311  59.2837621  43.1050944 108.9892817
  58.8442612  42.6127323 109.6825674  60.0345738  42.5623912 108.7484892
  51.7629960  39.2962485 108.9917445  52.5887980  38.9966257 108.6116089
  51.4124012  38.5270107 109.4407234  56.7311494  38.6488953 111.0615119
  56.1091503  37.9859658 110.7617347  57.4016360  38.6750085 110.3788766
  49.9638565  37.2148811 109.9506379  49.1270474  36.7870986 109.7690380
  49.9362211  37.4081255 110.8877170  56.8036021  27.1270741 120.6547625
  56.8524177  28.0032864 120.2725394  57.3458535  26.5848134 120.0819268
  67.2890867  37.6711865 119.9348762  66.4986410  37.6536003 119.3953261
  67.0524221  38.2100158 120.6897798  67.4088742  34.5204331 117.2481490
  67.4586747  34.3554338 118.1897013  67.3002665  33.6531590 116.8579371
  56.2925000  37.1992877 104.5373579  56.4413121  37.8828341 103.8840252
  57.0991444  37.1797967 105.0523035  64.6992504  30.5035259 118.5640797
  65.6002367  30.3641724 118.2724795  64.7740479  30.6689714 119.5038974
  59.0335309  27.8802114 117.4093983  58.1638619  28.1735680 117.1376572
  59.2694790  28.4642559 118.1301247  68.9106939  36.9401272 117.4923512
  68.6191747  37.3031253 118.3286973  68.2979070  36.2268281 117.3136844
  70.1102621  34.5054152 110.0126082  70.9449512  34.9443956 110.1763642
  70.2461750  34.0292805 109.1934328  67.1594127  32.0633887 115.9603570
  67.6348248  32.2561533 115.1522421  66.2359692  32.1193073 115.7146954
  54.0477633  33.2258054 105.5434648  53.8023675  32.3220384 105.7414858
  54.2173548  33.2275205 104.6014126  61.7374343  24.0981731 114.9259404
  62.2556287  24.8342758 114.6005892  61.3829476  24.4045724 115.7606163
  53.3173281  28.9586412 103.0420810  52.6242526  29.0330767 102.3860846
  53.0725033  28.1946755 103.5642327  61.9886937  20.5182013 110.4460300
  62.2688691  19.8505202 111.0720727  62.7737544  20.7111109 109.9334964
  59.7920406  39.6941007 102.0085327  59.2194373  40.3131194 101.5555799
  60.3653200  40.2440369 102.5425249  65.8595796  28.9399647 114.1931875
  66.8113219  29.0397745 114.2144099  65.6899246  28.1477916 114.7029960
  63.8810175  26.0255230 114.3791276  63.2860107  26.3060243 113.6837765
  63.5959872  26.5149131 115.1508017  63.0117666  39.9778157 103.1393909
  63.9448339  39.9123719 103.3426784  62.9240879  40.8134424 102.6808442
  65.6405682  39.2944028 100.0997856  65.5619314  38.9603891 100.9933614
  66.4615349  39.7865795 100.0989329  68.3383874  32.1605767 113.3074175
  68.3060194  31.2221768 113.4933859  68.9484497  32.2389804 112.5740000
  60.1767204  31.0301820  99.3501379  61.1226309  30.9008028  99.4189797
  59.7981449  30.2916482  99.8270807  68.4878362  28.9516810 113.3532458
  67.9717411  28.1675267 113.1662387  69.3718311  28.6235527 113.5178978
  66.1489089  22.6957826 109.3128271  65.9513910  22.3872914 110.1971603
  66.7588795  23.4219465 109.4426201  74.1560423  33.2221774 112.4480212
  74.8863812  32.9607062 113.0087915  73.5467369  32.4850496 112.4882280
  72.2375721  31.3629636 113.0454663  71.5108884  31.2285601 112.4371155
  71.8223007  31.6706465 113.8511381  60.0605897  35.0819566 120.8102036
  60.9808906  35.2598165 121.0042083  60.0255480  34.1375611 120.6581735
  58.3610122  28.9551796  99.2856264  57.4541577  28.6584909  99.3618978
  58.6386103  28.6581614  98.4190551  49.2788062  30.2758160 109.7355311
  48.9590846  29.4223468 109.4429685  48.7321490  30.4906738 110.4913278
  53.0567970  32.9920601 113.4524817  53.2753979  33.9237708 113.4712851
  53.4693743  32.6328575 114.2379621  59.9772187  23.4988686 105.4400506
  59.1672916  23.1535771 105.8155752  60.6656604  23.1896230 106.0288117
  61.9062736  22.5766733 107.0624802  62.4593774  22.9962186 107.7214825
  62.1432822  21.6502481 107.1047758  57.9295835  28.5653806 122.8427566
  57.8292562  29.5148163 122.7739657  57.7117377  28.2372045 121.9703636
  57.1308906  25.8138731  99.4268244  57.9928070  26.1393630  99.6864061
  57.3159250  25.0270227  98.9141309  49.1476322  33.8961071 111.7048432
  48.4539793  33.4815024 111.1918387  49.8949313  33.9381608 111.1081851
  65.2841543  24.6867258 106.5703467  64.7040212  25.3452062 106.1881519
  65.0177475  23.8644602 106.1590884  63.7345109  24.0872316 108.7724787
  64.2344887  24.1988850 107.9639106  64.3780717  23.7833368 109.4125595
  57.7927105  31.9950945 121.6592628  57.3094187  32.7951305 121.8656517
  57.8788044  32.0058890 120.7060072  51.0613065  33.8279325 109.5814447
  51.0383753  33.9267012 108.6296330  51.3713701  34.6744476 109.9031613
  53.7200442  35.8855480 113.6961062  54.6743696  35.8539422 113.6290993
  53.5212966  35.4246104 114.5111288  54.3099825  34.4556596 116.2631859
  55.1292714  34.9500675 116.2866697  54.5836632  33.5388564 116.2349427
  64.0666421  26.8467348 105.6259815  63.1792276  27.1316999 105.4080010
  64.4820410  26.6861112 104.7787092  67.4180957  26.8713869 109.3414154
  68.1941347  27.3610322 109.6138771  66.6929091  27.2971923 109.7986024
  69.8553516  27.5841488 110.3988095  70.4498006  27.3437224 109.6881403
  69.9280099  26.8648619 111.0261631  52.0750671  41.4275099 110.7131260
  51.9405139  40.6675500 110.1469258  51.6582733  42.1515999 110.2460048
  63.2109634  36.6112023  99.7207835  63.9145484  36.8162025 100.3365490
  62.4872283  37.1788785  99.9856918  64.0407445  32.3621884 105.8410105
  63.9842646  32.8190436 105.0017737  64.5935787  31.6012569 105.6632948
  67.8512250  28.1511616 106.6660224  67.5949185  27.7508252 107.4968432
  67.2265118  28.8655410 106.5410364  72.1624588  30.8907689 109.1731516
  71.6024146  30.9600879 109.9463078  71.5568092  30.7148674 108.4531012
  55.2319797  42.3244416 110.9249702  55.1152181  43.2689849 110.8228392
  54.4112243  42.0217978 111.3135501  65.1196332  37.0494552 101.7706295
  65.9541936  36.6175751 101.5883770  64.9580675  36.8776566 102.6983189
  64.7742224  33.5526665 103.1362634  64.7191028  33.3870937 102.1951078
  64.1488279  34.2602698 103.2924824  49.5634739  28.7894730 116.9624056
  50.2093602  28.2793684 117.4511282  49.3551890  29.5263411 117.5367482
  62.0888131  35.8575577 122.4616197  62.9579291  36.0316230 122.1002832
  61.6094882  36.6769994 122.3391926  58.0838349  23.0534774 102.7147953
  58.0717019  23.9976614 102.8716223  58.9761771  22.8704920 102.4207414
  56.2574311  42.9772678 114.1405631  57.1601558  43.0096289 114.4572126
  56.0311681  42.0473129 114.1551966  58.0127913  41.7303665 110.8015709
  57.0623544  41.7305526 110.6880081  58.3160399  40.9836399 110.2851744
  61.8990469  19.6477551 106.9693889  61.1322865  19.0936038 107.1150572
  62.3101174  19.7199420 107.8308041  53.9032230  25.9362347 121.0599071
  54.7663691  25.5799152 121.2702395  53.3297640  25.5976242 121.7474475
  73.7480607  47.5664203 111.8661472  74.3859017  47.4470951 111.1624812
  73.6301450  48.5145047 111.9249424  70.5570313  47.5191631 111.8022996
  70.2188825  47.4032696 110.9143531  71.4260081  47.1182796 111.7824002
  68.2578592  46.2879879 101.1339936  68.5104113  45.7661400 100.3723399
  67.3203151  46.1246024 101.2366620  73.3021875  45.2915657 108.9414680
  74.0884964  44.8735080 108.5905097  73.5660580  46.1961749 109.1096328
  78.7030302  45.2290890 109.8447658  79.4355474  44.6590107 110.0785488
  77.9469658  44.8412491 110.2854164  67.9774881  48.1907985 103.3364311
  67.8611139  47.5152888 104.0045396  68.0877141  47.7040359 102.5196464
  70.3206422  47.6518132 107.0411001  69.9564629  47.1248753 107.7523922
  71.1773538  47.2616601 106.8677486  76.2255723  38.9412464 114.3042267
  75.8939047  39.8107875 114.0803482  75.6301336  38.6248748 114.9836297
  69.9611909  42.6808031 102.0372349  70.1286311  43.5488268 102.4042820
  69.7709078  42.8435313 101.1133638  66.1699724  47.5938807 109.7374884
  65.2450220  47.4615021 109.9452576  66.4184137  48.3733026 110.2344826
  76.1184386  43.6607551 111.3835617  75.2101263  43.5922959 111.0894378
  76.0671982  44.1379495 112.2117442  69.9401130  45.1365689 103.0219016
  69.8200755  45.5822740 103.8604496  69.2453718  45.4851007 102.4632554
  63.5308535  47.2372081 110.5718673  63.6600916  47.4906560 111.4858085
  62.8505986  47.8299789 110.2523328  77.9846032  41.8623989 113.1613491
  77.3420413  42.1556522 112.5153285  77.4800961  41.7476909 113.9666687
  75.6386196  45.6087162 103.8499350  76.5504052  45.8414549 103.6747048
  75.1295843  46.1924206 103.2874429  74.2455778  50.5912981 111.2412931
  73.6164641  50.7558695 110.5388999  73.8581440  51.0054590 112.0123895
  78.1245010  51.5267418 108.5957295  77.4396048  51.9066320 108.0454329
  78.2088860  52.1362745 109.3289243  73.4257479  42.6288765 116.5175373
  73.1818411  43.3830826 115.9809649  73.7017410  43.0074113 117.3522620
  75.3795942  49.1727377 115.1952639  75.5912837  49.8159137 114.5187020
  75.3325690  48.3389694 114.7274569  72.9822171  41.7845198 112.0989211
  72.1206650  42.0826452 112.3905948  73.0084606  42.0015597 111.1670244
  66.6907821  49.8758870 111.4442780  67.2609178  50.3046139 110.8060264
  67.2815933  49.5941455 112.1426965  68.7352626  46.4510541 105.3152582
  69.4376670  46.9031585 105.7826508  68.4033255  45.8094360 105.9432475
  62.4777960  44.7094094 110.6169715  61.6877014  44.9651622 110.1409826
  62.9689208  45.5242432 110.7221756  76.4941770  52.0499333 113.3674996
  77.3159214  51.6479520 113.0857678  76.4904173  51.9467567 114.3191112
  64.4292706  45.0738673 107.5753192  63.6323869  45.1857367 108.0936688
  64.2018298  45.4125325 106.7094082  60.7615663  44.9624584 113.0484706
  61.0123702  45.8471594 113.3142282  61.2975212  44.7829186 112.2759798
  84.5847763  48.3938081 109.7159968  83.8311471  47.8245479 109.5603972
  84.7195304  48.3600746 110.6630602  66.4613731  39.3443064 122.0529042
  66.0680676  38.7909262 122.7276686  67.2779871  39.6553642 122.4435560
  69.3781692  40.7600943 119.6449299  70.1191405  41.3608096 119.5653761
  69.6099614  40.0178580 119.0867341  73.3238855  36.7882046 113.9213580
  72.9803124  37.6783687 113.8452691  73.6917817  36.5983703 113.0583165
  61.3924705  49.1115576 106.7402183  62.2299927  49.5212584 106.5235890
  61.5702973  48.1715018 106.7102376  73.2889137  46.7790657 102.4286016
  72.7735761  47.5495261 102.6674403  73.0166446  46.1055793 103.0519077
  70.8736248  41.6240357 107.4871254  70.0177845  41.2347208 107.3076893
  71.2863200  41.7032318 106.6271039  72.4035395  39.1586701 111.8862814
  71.9000190  39.1216836 111.0730619  72.6966002  40.0679443 111.9459470
  68.6478281  39.2425430 110.8928995  69.5131278  39.0468239 110.5334885
  68.7155790  39.0135782 111.8198352  78.2623411  49.5323011 104.3639189
  77.4852854  49.1934171 103.9194351  78.9414892  49.5375634 103.6894154
  73.0775440  44.6517749 104.2545797  72.7725576  44.9663898 105.1055940
  74.0305883  44.7299169 104.2973130  76.5014718  49.0056993 111.0205797
  75.8438393  49.6956254 111.1085926  77.3055117  49.3953424 111.3639783
  66.2540600  41.4727638 108.2645362  66.8284352  41.2502820 107.5318555
  66.8411582  41.5416333 109.0173963  75.3120177  47.3601365 109.0709739
  75.8252059  47.9931357 109.5731448  75.9621401  46.7602561 108.7053099
  66.5810187  43.5032099 102.2841247  65.7447499  43.8406786 102.6050522
  66.4414957  43.3681079 101.3468384  68.5563268  38.3468887 106.9920432
  67.9027680  38.0317904 106.3677046  68.5143742  37.7244628 107.7180255
  69.6674472  48.6288182  98.9073724  68.7601534  48.3977436  99.1064873
  70.1645504  47.8325802  99.0947705  71.7901008  44.8350821 111.3168079
  70.8723569  45.0565768 111.1589767  72.2061152  44.9097131 110.4579787
  72.5736056  46.2342236 106.4470759  73.3207875  46.7463634 106.1377882
  72.8427645  45.9126289 107.3075153  70.8462706  48.7300777 103.4297714
  69.9373925  48.4459810 103.5270184  70.8757790  49.1499856 102.5701021
  75.0214893  43.2699353 108.4289549  74.2837650  42.7576739 108.7599791
  75.2741666  42.8299734 107.6172826  75.1226520  36.0475605 109.0231318
  75.4285397  35.1872968 108.7357233  75.8479125  36.6393225 108.8230312
  61.4150876  46.4506291 107.4112916  61.2175276  45.8575652 106.6863983
  60.8597540  46.1458502 108.1288855  69.3947600  46.3429398 109.5307509
  69.4496210  45.3903234 109.4549986  68.5838802  46.4988837 110.0148808
  67.3339960  44.9606458 107.2897888  66.5207825  45.2600628 107.6963080
  67.8298954  44.5662146 108.0072370  78.6611908  48.5466718 106.8262111
  78.5229807  48.7368314 105.8983300  78.3048127  49.3086101 107.2830162
  66.8254035  42.5324813 112.9059123  67.4653414  42.3913572 112.2082086
  65.9931565  42.2459326 112.5297725  78.6881288  50.6143245 111.8373382
  79.1217795  50.5218534 112.6856436  79.4012869  50.5900745 111.1993398
  63.9097102  45.9770325 105.0953868  62.9794690  45.9154781 105.3123830
  64.0054574  45.4546278 104.2990509  63.8282651  42.5025138 107.6832110
  64.0889468  43.4170471 107.5741270  64.6499823  42.0349581 107.8328723
  79.5496838  50.6566946 114.3706268  79.7432728  51.5612756 114.6165543
  79.4497456  50.1974365 115.2044853  71.2033148  40.5424836 116.8696595
  70.5561063  41.2414786 116.7761072  71.9734164  40.9760980 117.2372843
  74.6650021  49.1293903 100.3617850  74.0479192  48.4040731 100.2650903
  74.1966510  49.8903263 100.0184924  66.4548567  43.3479327  99.4839154
  65.5778034  43.2268128  99.1201401  66.9306320  42.5565405  99.2318043
  57.9750707  48.1356487 109.5780661  58.6621747  47.8218217 108.9901677
  57.8198836  49.0397851 109.3047913  62.7785429  43.0246683 114.0065685
  62.6943618  42.4172353 113.2716095  61.9568136  43.5155701 114.0075181
  72.9509143  41.5100247 109.3735880  73.4477843  40.7570209 109.0536950
  72.1796125  41.5464563 108.8079089  80.8038901  47.2140612 111.0154172
  80.7928777  48.0965328 110.6448105  79.9356280  46.8612163 110.8208709
  69.5344112  43.6517630 109.1007565  69.1641900  43.0988670 109.7888470
  70.0303205  43.0475763 108.5482565  77.4211475  46.1089253 107.4824338
  77.8871928  46.9417245 107.4084640  77.8718976  45.6434235 108.1869596
  75.3928138  38.4769840 111.5215239  74.4791218  38.7074067 111.6897446
  75.8221240  38.5608284 112.3729271  75.1634597  46.6659732 114.0215133
  74.5106047  46.9135640 113.3667586  75.5414977  45.8523870 113.6877610
  57.5518683  46.2157080 111.8498129  57.5902783  45.6820671 112.6435247
  57.0458976  45.6892285 111.2309106  64.9309446  41.0621620 115.3460671
  64.9950772  41.9236451 114.9338068  64.8676566  40.4495622 114.6133029
  64.4061718  43.1344753 118.9933705  65.0333757  42.7521830 119.6071229
  63.5489637  42.9158955 119.3589398  61.1827261  44.9421182 104.9252060
  61.4780702  44.0331860 104.8719114  60.2815297  44.9208922 104.6033062
  64.7121508  43.0177179 110.9079608  63.9908094  43.6313146 110.7687082
  65.5014764  43.5534943 110.8296254  67.5147822  40.3531605 117.1820260
  68.0382223  40.5993902 117.9446570  67.2960155  41.1851640 116.7623398
  62.9115103  42.6235280 105.0491385  62.5827809  41.7432659 104.8666491
  63.2654473  42.5682948 105.9367774  66.0256926  42.9108250 105.4166863
  66.3652998  43.4394171 104.6945471  66.4729046  43.2488656 106.1925429
  75.7628803  55.0818741 110.6451243  76.6875351  54.8761603 110.5075694
  75.5944107  54.8335142 111.5540585  68.7200367  41.2945300 114.8669931
  68.3797187  40.4953113 115.2690611  68.0139373  41.5947011 114.2946764
  69.3716838  38.3794613 113.3197254  70.1942908  37.9055091 113.1976144
  69.6154902  39.1585096 113.8195940  68.0125073  41.4082871 103.6160155
  68.7333435  41.7864124 103.1123872  67.3890377  42.1271748 103.7195133
  72.1556196  42.1128020 104.5518488  72.3719810  42.9952658 104.2507316
  71.6750263  41.7214233 103.8224130  66.8955417  45.0713733 111.1289232
  66.7499998  45.3854036 112.0213514  66.4180621  45.6898634 110.5760131
  68.7551800  42.0616281 111.1770122  68.7413369  41.1657375 110.8402420
  69.4724228  42.0686945 111.8108408  70.6077931  42.4953621 113.2223249
  70.3495709  43.4170692 113.2207580  70.0762971  42.0984056 113.9123714
  61.3701079  47.6119078 114.0676894  60.8254547  48.3878886 114.1997168
  62.2480429  47.9589882 113.9096015  68.1588696  40.9430662 106.4457692
  68.2804607  40.0147308 106.6448580  67.8690738  40.9569348 105.5336008
  71.0279886  38.6285572 109.5824412  71.0501583  38.6924905 108.6276391
  71.4447945  37.7890081 109.7764918  81.4063511  48.3640832 107.6203635
  81.8494657  47.6148157 107.2222758  80.5290021  48.3550968 107.2377367
  76.5399292  54.9171173 103.1010233  77.2350197  55.5377866 103.3197548
  76.8822442  54.0666524 103.3762611  78.4390715  52.3670879 104.6297564
  78.9642039  52.7058151 103.9046884  78.3513068  51.4317894 104.4460698
  67.6429776  42.4562659 120.6547625  67.6917931  43.3324782 120.2725394
  68.1852290  41.9140052 120.0819268  79.7500693  52.2693190 117.4923512
  79.4585501  52.6323171 118.3286973  79.1372824  51.5560198 117.3136844
  80.9496375  49.8346070 110.0126082  81.7843267  50.2735874 110.1763642
  81.0855504  49.3584723 109.1934328  64.8871388  48.5549972 105.5434648
  64.6417430  47.6512302 105.7414858  65.0567302  48.5567122 104.6014126
  72.5768098  39.4273648 114.9259404  73.0950042  40.1634675 114.6005892
  72.2223231  39.7337642 115.7606163  64.1567035  44.2878329 103.0420810
  63.4636280  44.3622684 102.3860846  63.9118787  43.5238673 103.5642327
  72.8280692  35.8473931 110.4460300  73.1082446  35.1797120 111.0720727
  73.6131299  36.0403026 109.9334964  76.6989550  44.2691565 114.1931875
  77.6506973  44.3689662 114.2144099  76.5293001  43.4769833 114.7029960
  74.7203930  41.3547148 114.3791276  74.1253862  41.6352161 113.6837765
  74.4353627  41.8441049 115.1508017  76.4799437  54.6235945 100.0997856
  76.4013068  54.2895809 100.9933614  77.3009104  55.1157713 100.0989329
  79.1777628  47.4897684 113.3074175  79.1453948  46.5513685 113.4933859
  79.7878252  47.5681721 112.5740000  71.0160959  46.3593737  99.3501379
  71.9620064  46.2299946  99.4189797  70.6375204  45.6208399  99.8270807
  79.3272117  44.2808728 113.3532458  78.8111165  43.4967185 113.1662387
  80.2112065  43.9527445 113.5178978  76.9882844  38.0249743 109.3128271
  76.7907665  37.7164832 110.1971603  77.5982549  38.7511382 109.4426201
  84.9954178  48.5513691 112.4480212  85.7257566  48.2898979 113.0087915
  84.3861123  47.8142413 112.4882280  83.0769475  46.6921554 113.0454663
  82.3502639  46.5577519 112.4371155  82.6616762  46.9998383 113.8511381
  69.2003876  44.2843714  99.2856264  68.2935332  43.9876827  99.3618978
  69.4779857  43.9873532  98.4190551  60.1181817  45.6050077 109.7355311
  59.7984601  44.7515385 109.4429685  59.5715245  45.8198655 110.4913278
  63.8961724  48.3212518 113.4524817  64.1147734  49.2529626 113.4712851
  64.3087498  47.9620493 114.2379621  70.8165942  38.8280604 105.4400506
  70.0066670  38.4827689 105.8155752  71.5050359  38.5188147 106.0288117
  72.7456490  37.9058650 107.0624802  73.2987529  38.3254104 107.7214825
  72.9826577  36.9794398 107.1047758  68.7689589  43.8945724 122.8427566
  68.6686316  44.8440081 122.7739657  68.5511131  43.5663963 121.9703636
  67.9702661  41.1430649  99.4268244  68.8321825  41.4685547  99.6864061
  68.1553005  40.3562145  98.9141309  59.9870077  49.2252989 111.7048432
  59.2933548  48.8106942 111.1918387  60.7343068  49.2673525 111.1081851
  76.1235297  40.0159176 106.5703467  75.5433966  40.6743980 106.1881519
  75.8571230  39.1936520 106.1590884  74.5738864  39.4164233 108.7724787
  75.0738642  39.5280768 107.9639106  75.2174472  39.1125286 109.4125595
  61.9006819  49.1571243 109.5814447  61.8777507  49.2558930 108.6296330
  62.2107456  50.0036393 109.9031613  74.9060175  42.1759266 105.6259815
  74.0186030  42.4608917 105.4080010  75.3214164  42.0153029 104.7787092
  78.2574711  42.2005787 109.3414154  79.0335102  42.6902239 109.6138771
  77.5322846  42.6263841 109.7986024  80.6947270  42.9133406 110.3988095
  81.2891761  42.6729142 109.6881403  80.7673854  42.1940537 111.0261631
  74.8801199  47.6913802 105.8410105  74.8236400  48.1482353 105.0017737
  75.4329541  46.9304486 105.6632948  78.6906005  43.4803534 106.6660224
  78.4342939  43.0800169 107.4968432  78.0658873  44.1947328 106.5410364
  83.0018343  46.2199607 109.1731516  82.4417901  46.2892796 109.9463078
  82.3961846  46.0440592 108.4531012  75.6135978  48.8818583 103.1362634
  75.5584782  48.7162855 102.1951078  74.9882034  49.5894616 103.2924824
  60.4028493  44.1186647 116.9624056  61.0487357  43.6085601 117.4511282
  60.1945644  44.8555329 117.5367482  68.9232104  38.3826692 102.7147953
  68.9110774  39.3268532 102.8716223  69.8155526  38.1996838 102.4207414
  72.7384223  34.9769469 106.9693889  71.9716619  34.4227955 107.1150572
  73.1494928  35.0491337 107.8308041  64.7425984  41.2654265 121.0599071
  65.6057446  40.9091069 121.2702395  64.1691395  40.9268159 121.7474475
  84.5874361  62.8956121 111.8661472  85.2252771  62.7762868 111.1624812
  84.4695204  63.8436965 111.9249424  81.3964068  62.8483549 111.8022996
  81.0582579  62.7324614 110.9143531  82.2653836  62.4474714 111.7824002
  82.8350442  68.3689993 103.1034352  82.1838422  68.9544074 102.7168366
  83.6294805  68.8996188 103.1629390  79.5247318  64.1632361 113.2989745
  80.1210891  63.9388383 112.5846708  79.5822290  63.4217107 113.9015193
  79.0972347  61.6171796 101.1339936  79.3497868  61.0953318 100.3723399
  78.1596906  61.4537942 101.2366620  84.1415630  60.6207575 108.9414680
  84.9278719  60.2026998 108.5905097  84.4054334  61.5253667 109.1096328
  84.3125707  66.0580425 103.6403336  83.6771540  66.1315052 104.3524241
  83.9823113  66.6474024 102.9622416  89.5424057  60.5582808 109.8447658
  90.2749229  59.9882025 110.0785488  88.7863413  60.1704408 110.2854164
  81.1600177  62.9810049 107.0411001  80.7958384  62.4540670 107.7523922
  82.0167292  62.5908518 106.8677486  87.0649477  54.2704382 114.3042267
  86.7332802  55.1399793 114.0803482  86.4695091  53.9540666 114.9836297
  80.8005664  58.0099949 102.0372349  80.9680066  58.8780186 102.4042820
  80.6102833  58.1727231 101.1133638  83.5580997  66.4716928 113.7038179
  83.2581720  67.3741967 113.5953987  83.2132056  66.2049111 114.5559332
  86.9578141  58.9899468 111.3835617  86.0495018  58.9214877 111.0894378
  86.9065736  59.4671413 112.2117442  80.7794884  60.4657607 103.0219016
  80.6594510  60.9114657 103.8604496  80.0847473  60.8142924 102.4632554
  74.3702289  62.5663998 110.5718673  74.4994670  62.8198477 111.4858085
  73.6899741  63.1591706 110.2523328  78.5401777  73.2361248 106.6709147
  78.4625806  74.1869073 106.7497628  77.9363420  72.8907121 107.3284073
  81.0319006  60.4089114 119.3270514  80.2552340  60.9683034 119.3173379
  81.6709569  60.8945897 119.8485384  88.8239787  57.1915907 113.1613491
  88.1814167  57.4848440 112.5153285  88.3194715  57.0768827 113.9666687
  86.4779951  60.9379080 103.8499350  87.3897807  61.1706467 103.6747048
  85.9689598  61.5216124 103.2874429  81.1151788  60.2976314 114.8594200
  81.9612983  60.7215728 115.0028849  81.0550426  59.6409939 115.5532763
  85.0849533  65.9204898 111.2412931  84.4558395  66.0850612 110.5388999
  84.6975195  66.3346508 112.0123895  88.9638765  66.8559336 108.5957295
  88.2789803  67.2358237 108.0454329  89.0482614  67.4654663 109.3289243
  84.2651234  57.9580683 116.5175373  84.0212165  58.7122743 115.9809649
  84.5411164  58.3366030 117.3522620  86.2189696  64.5019295 115.1952639
  86.4306592  65.1451055 114.5187020  86.1719445  63.6681612 114.7274569
  83.8215925  57.1137116 112.0989211  82.9600404  57.4118369 112.3905948
  83.8478360  57.3307515 111.1670244  80.6377495  65.6579306 108.5063017
  81.1015840  65.9367009 107.7167639  80.3734293  64.7562751 108.3236107
  77.5301576  65.2050788 111.4442780  78.1002933  65.6338056 110.8060264
  78.1209688  64.9233373 112.1426965  79.5746381  61.7802459 105.3152582
  80.2770424  62.2323502 105.7826508  79.2427009  61.1386278 105.9432475
  78.0226742  60.3714215 119.6903791  77.3925403  61.0530496 119.9239188
  77.9162830  60.2597297 118.7456929  87.3335524  67.3791251 113.3674996
  88.1552968  66.9771438 113.0857678  87.3297927  67.2759485 114.3191112
  75.2686460  60.4030591 107.5753192  74.4717623  60.5149285 108.0936688
  75.0412052  60.7417243 106.7094082  95.4241517  63.7229999 109.7159968
  94.6705226  63.1537397 109.5603972  95.5589059  63.6892664 110.6630602
  80.8140145  68.5943401 105.3914687  80.6785820  69.4394937 105.8199535
  81.3549958  68.7962679 104.6280621  77.3007485  54.6734981 122.0529042
  76.9074431  54.1201180 122.7276686  78.1173625  54.9845560 122.4435560
  80.2175446  56.0892860 119.6449299  80.9585159  56.6900013 119.5653761
  80.4493369  55.3470498 119.0867341  75.3616784  61.2749228 117.9227528
  75.2470299  60.3734485 118.2234627  74.5061302  61.5212924 117.5712345
  84.1632609  52.1173963 113.9213580  83.8196878  53.0075605 113.8452691
  84.5311572  51.9275621 113.0583165  84.1282892  62.1082574 102.4286016
  83.6129515  62.8787179 102.6674403  83.8560200  61.4347710 103.0519077
  81.7130003  56.9532275 107.4871254  80.8571599  56.5639126 107.3076893
  82.1256955  57.0324236 106.6271039  83.2429149  54.4878618 111.8862814
  82.7393945  54.4508754 111.0730619  83.5359756  55.3971361 111.9459470
  79.4872035  54.5717348 110.8928995  80.3525032  54.3760157 110.5334885
  79.5549544  54.3427700 111.8198352  89.1017166  64.8614929 104.3639189
  88.3246609  64.5226088 103.9194351  89.7808647  64.8667552 103.6894154
  83.9169195  59.9809666 104.2545797  83.6119330  60.2955816 105.1055940
  84.8699637  60.0591086 104.2973130  82.3615627  66.1399890 105.9038751
  81.8336988  65.4052649 105.5911988  81.8603129  66.9174566 105.6578719
  87.3408473  64.3348910 111.0205797  86.6832147  65.0248172 111.1085926
  88.1448872  64.7245342 111.3639783  77.0934354  56.8019556 108.2645362
  77.6678106  56.5794738 107.5318555  77.6805337  56.8708251 109.0173963
  86.1513932  62.6893283 109.0709739  86.6645813  63.3223275 109.5731448
  86.8015155  62.0894478 108.7053099  79.3957022  53.6760805 106.9920432
  78.7421434  53.3609822 106.3677046  79.3537496  53.0536545 107.7180255
  83.4136306  72.6677607 101.8270410  82.7398005  72.9709304 102.4355368
  83.8002128  73.4706688 101.4775867  82.6294762  60.1642738 111.3168079
  81.7117324  60.3857685 111.1589767  83.0454906  60.2389049 110.4579787
  83.4129810  61.5634154 106.4470759  84.1601629  62.0755551 106.1377882
  83.6821400  61.2418207 107.3075153  81.6856460  64.0592695 103.4297714
  80.7767680  63.7751728 103.5270184  81.7151544  64.4791773 102.5701021
  86.9175728  67.6699284 107.1988881  86.4638055  66.8290194 107.2554072
  86.2869694  68.3060683 107.5363661  85.8608647  58.5991270 108.4289549
  85.1231404  58.0868657 108.7599791  86.1135421  58.1591652 107.6172826
  85.3608667  69.5075781 108.1338699  85.6531641  70.0680838 107.4151065
  85.8707288  69.8004342 108.8891859  85.9620275  51.3767522 109.0231318
  86.2679151  50.5164886 108.7357233  86.6872879  51.9685143 108.8230312
  80.2341354  61.6721315 109.5307509  80.2889964  60.7195152 109.4549986
  79.4232556  61.8280755 110.0148808  81.3832548  65.6001439 100.7685792
  80.9451978  64.8837297 100.3091430  82.1242989  65.8277553 100.2070884
  78.1733714  60.2898375 107.2897888  77.3601580  60.5892546 107.6963080
  78.6692709  59.8954064 108.0072370  80.3242292  70.2856132 109.2232153
  80.2818471  70.5116978 108.2940685  81.2404991  70.0519507 109.3717954
  83.7707926  60.7540200 116.1212782  84.1257314  60.9811673 116.9807248
  84.4180057  61.0858576 115.4990037  89.5005663  63.8758636 106.8262111
  89.3623562  64.0660232 105.8983300  89.1441882  64.6378018 107.2830162
  77.6647789  57.8616731 112.9059123  78.3047168  57.7205490 112.2082086
  76.8325320  57.5751244 112.5297725  89.5275043  65.9435163 111.8373382
  89.9611549  65.8510452 112.6856436  90.2406623  65.9192663 111.1993398
  74.6676405  57.8317056 107.6832110  74.9283223  58.7462389 107.5741270
  75.4893578  57.3641498 107.8328723  76.1401331  59.2454813 114.8530934
  76.8124384  59.0372175 114.2043583  75.3131117  59.0476899 114.4136167
  90.3890592  65.9858863 114.3706268  90.5826482  66.8904674 114.6165543
  90.2891210  65.5266282 115.2044853  82.0426903  55.8716754 116.8696595
  81.3954818  56.5706703 116.7761072  82.8127918  56.3052898 117.2372843
  85.4505701  66.1365606 119.9447148  85.2991207  65.9076158 119.0277232
  85.4410380  67.0936207 119.9578493  82.2191037  63.7097519 114.9293415
  83.1483097  63.8608678 114.7562382  81.7982067  63.7981540 114.0742061
  81.0179369  67.7348183 112.6991953  80.8790455  67.3666968 113.5717891
  80.2293965  68.2495823 112.5275910  81.6127521  72.8357280 104.0417489
  81.7879277  72.3645323 104.8563112  80.9260309  73.4623046 104.2698750
  82.5684584  67.1129786 110.0880790  82.2334417  67.0730556 110.9838440
  82.0688530  66.4474502 109.6151201  76.5428828  62.5197416 115.6133371
  76.4048626  61.7877655 116.2144910  77.4533752  62.4306316 115.3317559
  85.5043776  64.4585820 100.3617850  84.8872946  63.7332648 100.2650903
  85.0360264  65.2195180 100.0184924  79.1711129  62.2317375 115.1017051
  79.8810747  61.5910567 115.0603670  79.1280437  62.4830270 116.0243232
  77.8840063  59.2182593 116.9212691  77.3477420  58.7673332 117.5734287
  77.2956771  59.3528502 116.1783155  77.2942322  58.6771244  99.4839154
  76.4171788  58.5560045  99.1201401  77.7700075  57.8857323  99.2318043
  87.1615315  67.1324312 116.2537610  86.2742093  66.7950234 116.3764009
  87.7313866  66.4007344 116.4906375  80.4806248  71.0297535 106.7301675
  79.6973770  71.5719215 106.8239899  81.1798993  71.5471514 107.1295916
  83.7902898  56.8392164 109.3735880  84.2871597  56.0862127 109.0536950
  83.0189879  56.8756481 108.8079089  91.6432655  62.5432530 111.0154172
  91.6322531  63.4257245 110.6448105  90.7750035  62.1904081 110.8208709
  84.8732679  65.5963852 106.9474304  83.9388957  65.7165314 106.7779008
  85.0509347  64.6936318 106.6834313  80.3737867  58.9809547 109.1007565
  80.0035654  58.4280588 109.7888470  80.8696959  58.3767681 108.5482565
  88.2605230  61.4381171 107.4824338  88.7265682  62.2709162 107.4084640
  88.7112730  60.9726152 108.1869596  86.3281461  67.7824992 104.4810490
  86.6041305  67.6681587 105.3904364  85.4585960  67.3842477 104.4422663
  86.2321893  53.8061758 111.5215239  85.3184972  54.0365985 111.6897446
  86.6614994  53.8900202 112.3729271  86.0028351  61.9951650 114.0215133
  85.3499801  62.2427557 113.3667586  86.3808731  61.1815788 113.6877610
  82.9635525  72.0311343 108.1243303  83.1457920  71.2132999 108.5871056
  83.7868511  72.2479035 107.6868193  83.2977690  70.9579528 105.3858352
  83.8265457  70.4471983 104.7728514  83.5605910  70.6422058 106.2503885
  82.0515924  62.7371461 120.5081170  81.3756561  62.6365590 121.1783545
  82.8743558  62.5810675 120.9717167  76.6533438  72.0094645 108.1456128
  75.9843814  72.4940772 107.6620168  76.5146308  72.2563865 109.0599506
  75.7703200  56.3913538 115.3460671  75.8344527  57.2528369 114.9338068
  75.7070320  55.7787540 114.6133029  75.2455473  58.4636671 118.9933705
  75.8727512  58.0813748 119.6071229  74.3883392  58.2450873 119.3589398
  83.9307094  71.9920364 111.7302468  83.8058234  71.1910104 111.2213414
  84.5886185  72.4866557 111.2416438  75.5515263  58.3469096 110.9079608
  74.8301848  58.9605064 110.7687082  76.3408518  58.8826861 110.8296254
  85.9942003  69.7929384 113.3582018  85.0472338  69.6734735 113.2860345
  86.3424776  68.9051882 113.4408280  78.3541576  55.6823523 117.1820260
  78.8775978  55.9285819 117.9446570  78.1353909  56.5143558 116.7623398
  73.7508857  57.9527197 105.0491385  73.4221563  57.0724576 104.8666491
  74.1048228  57.8974866 105.9367774  82.9988436  69.5882100 109.5586371
  82.8513398  68.6598808 109.7393941  83.8241929  69.6102191 109.0743446
  76.8650680  58.2400167 105.4166863  77.2046753  58.7686088 104.6945471
  77.3122801  58.5780573 106.1925429  86.6022558  70.4110659 110.6451243
  87.5269105  70.2053520 110.5075694  86.4337861  70.1627060 111.5540585
  79.5594121  56.6237218 114.8669931  79.2190941  55.8245031 115.2690611
  78.8533127  56.9238929 114.2946764  80.2110593  53.7086530 113.3197254
  81.0336662  53.2347009 113.1976144  80.4548656  54.4877014 113.8195940
  78.8518827  56.7374789 103.6160155  79.5727190  57.1156042 103.1123872
  78.2284132  57.4563666 103.7195133  82.9949950  57.4419938 104.5518488
  83.2113565  58.3244576 104.2507316  82.5144017  57.0506151 103.8224130
  77.7349172  60.4005651 111.1289232  77.5893752  60.7145954 112.0213514
  77.2574375  61.0190551 110.5760131  79.5945555  57.3908199 111.1770122
  79.5807123  56.4949292 110.8402420  80.3117983  57.3978863 111.8108408
  81.4471685  57.8245539 113.2223249  81.1889463  58.7462610 113.2207580
  80.9156726  57.4275974 113.9123714  86.3917874  70.9296326 106.0013335
  86.5654752  70.3642749 105.2487187  86.8846765  71.7297221 105.8192825
  78.9982450  56.2722579 106.4457692  79.1198362  55.3439225 106.6448580
  78.7084493  56.2861265 105.5336008  81.8673641  53.9577490 109.5824412
  81.8895338  54.0216823 108.6276391  82.2841700  53.1181998 109.7764918
  92.2457265  63.6932749 107.6203635  92.6888411  62.9440074 107.2222758
  91.3683775  63.6842886 107.2377367  87.3793047  70.2463091 103.1010233
  88.0743951  70.8669783 103.3197548  87.7216197  69.3958442 103.3762611
  72.9960856  62.0680892 116.9607050  72.2542592  62.2163527 117.5471681
  72.6753600  62.3289157 116.0973800  89.2784470  67.6962796 104.6297564
  89.8035794  68.0350069 103.9046884  89.1906822  66.7609812 104.4460698
  80.9625130  73.7634780 108.9892817  80.5230121  73.2711158 109.6825674
  81.7133247  73.2207747 108.7484892  78.4099003  69.3072789 111.0615119
  77.7879012  68.6443494 110.7617347  79.0803869  69.3333920 110.3788766
  78.4823530  57.7854577 120.6547625  78.5311686  58.6616699 120.2725394
  79.0246044  57.2431970 120.0819268  88.9678376  68.3295700 119.9348762
  88.1773919  68.3119839 119.3953261  88.7311730  68.8683994 120.6897798
  89.0876251  65.1788166 117.2481490  89.1374256  65.0138174 118.1897013
  88.9790174  64.3115425 116.8579371  86.3780013  61.1619094 118.5640797
  87.2789876  61.0225559 118.2724795  86.4527988  61.3273549 119.5038974
  80.7122818  58.5385949 117.4093983  79.8426128  58.8319515 117.1376572
  80.9482299  59.1226394 118.1301247  90.5894448  67.5985108 117.4923512
  90.2979256  67.9615088 118.3286973  89.9766579  66.8852116 117.3136844
  91.7890130  65.1637988 110.0126082  92.6237021  65.6027792 110.1763642
  91.9249259  64.6876641 109.1934328  88.8381636  62.7217722 115.9603570
  89.3135757  62.9145369 115.1522421  87.9147201  62.7776908 115.7146954
  83.4161852  54.7565566 114.9259404  83.9343796  55.4926593 114.6005892
  83.0616985  55.0629559 115.7606163  74.9960790  59.6170247 103.0420810
  74.3030035  59.6914602 102.3860846  74.7512542  58.8530591 103.5642327
  83.6674446  51.1765848 110.4460300  83.9476200  50.5089038 111.0720727
  84.4525053  51.3694944 109.9334964  81.4707915  70.3524842 102.0085327
  80.8981882  70.9715030 101.5555799  82.0440709  70.9024204 102.5425249
  87.5383305  59.5983482 114.1931875  88.4900728  59.6981580 114.2144099
  87.3686755  58.8061751 114.7029960  85.5597684  56.6839066 114.3791276
  84.9647616  56.9644078 113.6837765  85.2747381  57.1732967 115.1508017
  84.6905175  70.6361993 103.1393909  85.6235848  70.5707554 103.3426784
  84.6028388  71.4718259 102.6808442  87.3193191  69.9527863 100.0997856
  87.2406823  69.6187726 100.9933614  88.1402858  70.4449631 100.0989329
  90.0171383  62.8189602 113.3074175  89.9847703  61.8805603 113.4933859
  90.6272006  62.8973639 112.5740000  90.1665871  59.6100646 113.3532458
  89.6504920  58.8259102 113.1662387  91.0505820  59.2819362 113.5178978
  87.8276598  53.3541661 109.3128271  87.6301419  53.0456749 110.1971603
  88.4376304  54.0803300 109.4426201  95.8347932  63.8805609 112.4480212
  96.5651321  63.6190897 113.0087915  95.2254878  63.1434331 112.4882280
  93.9163230  62.0213472 113.0454663  93.1896393  61.8869437 112.4371155
  93.5010516  62.3290300 113.8511381  74.7355479  63.6504436 113.4524817
  74.9541488  64.5821544 113.4712851  75.1481252  63.2912410 114.2379621
  81.6559696  54.1572521 105.4400506  80.8460425  53.8119606 105.8155752
  82.3444113  53.8480065 106.0288117  83.5850245  53.2350568 107.0624802
  84.1381283  53.6546021 107.7214825  83.8220331  52.3086316 107.1047758
  79.6083344  59.2237642 122.8427566  79.5080071  60.1731999 122.7739657
  79.3904886  58.8955881 121.9703636  78.8096415  56.4722567  99.4268244
  79.6715579  56.7977465  99.6864061  78.9946759  55.6854063  98.9141309
  86.9629052  55.3451093 106.5703467  86.3827721  56.0035897 106.1881519
  86.6964984  54.5228438 106.1590884  85.4132618  54.7456151 108.7724787
  85.9132396  54.8572685 107.9639106  86.0568226  54.4417204 109.4125595
  79.4714614  62.6534781 121.6592628  78.9881696  63.4535141 121.8656517
  79.5575553  62.6642725 120.7060072  85.7453930  57.5051184 105.6259815
  84.8579785  57.7900834 105.4080010  86.1607919  57.3444947 104.7787092
  89.0968466  57.5297705 109.3414154  89.8728856  58.0194157 109.6138771
  88.3716600  57.9555759 109.7986024  91.5341025  58.2425324 110.3988095
  92.1285515  58.0021060 109.6881403  91.6067608  57.5232454 111.0261631
  73.7538180  72.0858935 110.7131260  73.6192648  71.3259336 110.1469258
  73.3370242  72.8099835 110.2460048  84.8897143  67.2695858  99.7207835
  85.5932993  67.4745861 100.3365490  84.1659792  67.8372620  99.9856918
  85.7194953  63.0205720 105.8410105  85.6630155  63.4774271 105.0017737
  86.2723296  62.2596404 105.6632948  89.5299759  58.8095451 106.6660224
  89.2736694  58.4092087 107.4968432  88.9052627  59.5239245 106.5410364
  93.8412097  61.5491525 109.1731516  93.2811655  61.6184714 109.9463078
  93.2355601  61.3732509 108.4531012  76.9107306  72.9828252 110.9249702
  76.7939690  73.9273684 110.8228392  76.0899752  72.6801813 111.3135501
  86.7983841  67.7078387 101.7706295  87.6329445  67.2759586 101.5883770
  86.6368184  67.5360401 102.6983189  86.4529733  64.2110501 103.1362634
  86.3978537  64.0454772 102.1951078  85.8275788  64.9186534 103.2924824
  79.7625858  53.7118610 102.7147953  79.7504528  54.6560450 102.8716223
  80.6549280  53.5288755 102.4207414  79.6915422  72.3887500 110.8015709
  78.7411053  72.3889362 110.6880081  79.9947908  71.6420235 110.2851744
  83.5777978  50.3061386 106.9693889  82.8110374  49.7519873 107.1150572
  83.9888683  50.3783255 107.8308041  75.5819739  56.5946182 121.0599071
  76.4451200  56.2382987 121.2702395  75.0085149  56.2560077 121.7474475
  95.4268116  78.2248039 111.8661472  96.0646526  78.1054786 111.1624812
  95.3088959  79.1728883 111.9249424  92.2357822  78.1775467 111.8022996
  91.8976334  78.0616531 110.9143531  93.1047590  77.7766632 111.7824002
  88.0944638  80.0310943 107.7919887  87.5309503  79.9400880 107.0236175
  87.9797033  79.2110848 108.2722380  92.7177605  79.3310318 117.7609202
  92.7066246  78.9363117 116.8889705  92.8798244  78.5976391 118.3542973
  93.6744196  83.6981911 103.1034352  93.0232176  84.2835991 102.7168366
  94.4688559  84.2288106 103.1629390  87.5999824  80.7871048 103.5021487
  88.3730700  80.2400035 103.3634362  87.9525222  81.6515297 103.7135948
  89.4384866  82.1147430 116.7088386  89.1474732  83.0193061 116.5935052
  90.0741850  82.1563958 117.4232455  90.3641073  79.4924279 113.2989745
  90.9604645  79.2680301 112.5846708  90.4216045  78.7509024 113.9015193
  89.9366101  76.9463714 101.1339936  90.1891622  76.4245235 100.3723399
  88.9990660  76.7829859 101.2366620  94.9809384  75.9499492 108.9414680
  95.7672473  75.5318916 108.5905097  95.2448089  76.8545585 109.1096328
  95.1519462  81.3872343 103.6403336  94.5165295  81.4606969 104.3524241
  94.8216868  81.9765942 102.9622416 100.3817811  75.8874726 109.8447658
 101.1142983  75.3173942 110.0785488  99.6257167  75.4996326 110.2854164
  89.6562390  78.8491820 103.3364311  89.5398648  78.1736723 104.0045396
  89.7664650  78.3624194 102.5196464  91.9993931  78.3101967 107.0411001
  91.6352138  77.7832588 107.7523922  92.8561047  77.9200436 106.8677486
  97.9043232  69.5996300 114.3042267  97.5726556  70.4691711 114.0803482
  97.3088845  69.2832584 114.9836297  91.6399418  73.3391867 102.0372349
  91.8073820  74.2072103 102.4042820  91.4496587  73.5019149 101.1133638
  94.3974751  81.8008846 113.7038179  94.0975474  82.7033885 113.5953987
  94.0525811  81.5341029 114.5559332  87.8487233  78.2522643 109.7374884
  86.9237729  78.1198857 109.9452576  88.0971646  79.0316862 110.2344826
  97.7971895  74.3191386 111.3835617  96.8888772  74.2506794 111.0894378
  97.7459491  74.7963331 112.2117442  91.6188639  75.7949524 103.0219016
  91.4988264  76.2406575 103.8604496  90.9241227  76.1434842 102.4632554
  89.3795531  88.5653166 106.6709147  89.3019561  89.5160991 106.7497628
  88.7757175  88.2199039 107.3284073  91.8712761  75.7381031 119.3270514
  91.0946095  76.2974952 119.3173379  92.5103324  76.2237814 119.8485384
  99.6633541  72.5207824 113.1613491  99.0207922  72.8140357 112.5153285
  99.1588470  72.4060745 113.9666687  97.3173705  76.2670997 103.8499350
  98.2291561  76.4998384 103.6747048  96.8083352  76.8508042 103.2874429
  90.1259133  78.5466485 118.8888481  90.8673817  79.0851529 118.6123305
  89.4196119  79.1732774 119.0460033  95.6014473  80.6895625 117.4860643
  96.0097829  80.2478036 116.7415275  94.8791734  80.1148253 117.7394835
  91.9545543  75.6268232 114.8594200  92.8006738  76.0507646 115.0028849
  91.8944180  74.9701856 115.5532763  95.9243287  81.2496816 111.2412931
  95.2952150  81.4142530 110.5388999  95.5368949  81.6638425 112.0123895
  99.8032519  82.1851254 108.5957295  99.1183557  82.5650155 108.0454329
  99.8876369  82.7946580 109.3289243  95.1044988  73.2872600 116.5175373
  94.8605920  74.0414661 115.9809649  95.3804919  73.6657948 117.3522620
  97.0583451  79.8311213 115.1952639  97.2700346  80.4742973 114.5187020
  97.0113199  78.9973529 114.7274569  94.6609680  72.4429033 112.0989211
  93.7994159  72.7410287 112.3905948  94.6872114  72.6599432 111.1670244
  91.4771249  80.9871224 108.5063017  91.9409595  81.2658927 107.7167639
  91.2128047  80.0854669 108.3236107  88.3695330  80.5342706 111.4442780
  88.9396687  80.9629974 110.8060264  88.9603442  80.2525290 112.1426965
  90.4140135  77.1094376 105.3152582  91.1164179  77.5615420 105.7826508
  90.0820764  76.4678195 105.9432475  88.8620497  75.7006133 119.6903791
  88.2319157  76.3822414 119.9239188  88.7556585  75.5889215 118.7456929
  84.1565469  75.3677929 110.6169715  83.3664523  75.6235458 110.1409826
  84.6476717  76.1826267 110.7221756  98.1729279  82.7083168 113.3674996
  98.9946723  82.3063356 113.0857678  98.1691682  82.6051402 114.3191112
  86.1080215  75.7322508 107.5753192  85.3111378  75.8441203 108.0936688
  85.8805807  76.0709161 106.7094082  91.9385882  82.2567212 115.5235707
  92.0030315  82.7187619 116.3593878  91.2296806  81.6264576 115.6518016
 106.2635272  79.0521917 109.7159968 105.5098980  78.4829315 109.5603972
 106.3982813  79.0184581 110.6630602  91.6533900  83.9235319 105.3914687
  91.5179575  84.7686855 105.8199535  92.1943712  84.1254597 104.6280621
  88.1401240  70.0026899 122.0529042  87.7468185  69.4493097 122.7276686
  88.9567380  70.3137477 122.4435560  91.0569201  71.4184778 119.6449299
  91.7978914  72.0191931 119.5653761  91.2887123  70.6762416 119.0867341
  93.2802376  84.5458886 119.5215029  92.8366230  83.7595264 119.2035933
  93.9419590  84.7338036 118.8558920  88.0389497  86.0754687 114.0475708
  88.5896923  85.9471750 113.2752701  87.2000973  86.3749576 113.6970600
  95.3783614  84.8261685 117.5496430  95.3602090  85.6470566 117.0576699
  96.3003534  84.7015761 117.7746571  91.8356669  82.3405815 118.3919939
  92.3685005  81.5794103 118.1619247  91.3070750  82.0479467 119.1344093
  95.0026363  67.4465881 113.9213580  94.6590633  68.3367523 113.8452691
  95.3705326  67.2567539 113.0583165  83.0712214  79.7699411 106.7402183
  83.9087436  80.1796420 106.5235890  83.2490482  78.8298854 106.7102376
  94.9676646  77.4374492 102.4286016  94.4523270  78.2079097 102.6674403
  94.6953955  76.7639628 103.0519077  92.5523757  72.2824193 107.4871254
  91.6965354  71.8931043 107.3076893  92.9650709  72.3616154 106.6271039
  94.0822904  69.8170536 111.8862814  93.5787699  69.7800671 111.0730619
  94.3753511  70.7263279 111.9459470  90.3265790  69.9009266 110.8928995
  91.1918787  69.7052074 110.5334885  90.3943299  69.6719618 111.8198352
  99.9410920  80.1906847 104.3639189  99.1640363  79.8518006 103.9194351
 100.6202401  80.1959470 103.6894154  94.7562949  75.3101584 104.2545797
  94.4513085  75.6247733 105.1055940  95.7093392  75.3883004 104.2973130
  93.2009381  81.4691807 105.9038751  92.6730743  80.7344567 105.5911988
  92.6996884  82.2466484 105.6578719  98.1802227  79.6640828 111.0205797
  97.5225902  80.3540089 111.1085926  98.9842626  80.0537260 111.3639783
  87.9328109  72.1311474 108.2645362  88.5071861  71.9086655 107.5318555
  88.5199091  72.2000168 109.0173963  96.9907686  78.0185201 109.0709739
  97.5039568  78.6515192 109.5731448  97.6408910  77.4186396 108.7053099
  88.2597696  74.1615935 102.2841247  87.4235008  74.4990621 102.6050522
  88.1202466  74.0264915 101.3468384  90.2350777  69.0052723 106.9920432
  89.5815189  68.6901740 106.3677046  90.1931251  68.3828463 107.7180255
  91.3461981  79.2872018  98.9073724  90.4389043  79.0561271  99.1064873
  91.8433013  78.4909637  99.0947705  94.2530060  87.9969525 101.8270410
  93.5791759  88.3001222 102.4355368  94.6395882  88.7998605 101.4775867
  93.4688517  75.4934656 111.3168079  92.5511078  75.7149603 111.1589767
  93.8848661  75.5680967 110.4579787  94.2523565  76.8926072 106.4470759
  94.9995384  77.4047469 106.1377882  94.5215154  76.5710125 107.3075153
  92.5250215  79.3884613 103.4297714  91.6161434  79.1043645 103.5270184
  92.5545299  79.8083691 102.5701021  97.7569482  82.9991202 107.1988881
  97.3031809  82.1582112 107.2554072  97.1263449  83.6352600 107.5363661
  96.7002402  73.9283188 108.4289549  95.9625159  73.4160574 108.7599791
  96.9529175  73.4883570 107.6172826  96.2002422  84.8367699 108.1338699
  96.4925396  85.3972756 107.4151065  96.7101042  85.1296260 108.8891859
  96.8014029  66.7059440 109.0231318  97.1072906  65.8456804 108.7357233
  97.5266634  67.2977060 108.8230312  83.0938385  77.1090127 107.4112916
  82.8962785  76.5159487 106.6863983  82.5385049  76.8042337 108.1288855
  91.0735109  77.0013233 109.5307509  91.1283719  76.0487070 109.4549986
  90.2626311  77.1572672 110.0148808  92.2226303  80.9293356 100.7685792
  91.7845733  80.2129215 100.3091430  92.9636744  81.1569471 100.2070884
  89.0127469  75.6190293 107.2897888  88.1995334  75.9184463 107.6963080
  89.5086463  75.2245982 108.0072370  91.1636047  85.6148050 109.2232153
  91.1212225  85.8408896 108.2940685  92.0798746  85.3811424 109.3717954
  94.6101680  76.0832117 116.1212782  94.9651068  76.3103591 116.9807248
  95.2573812  76.4150494 115.4990037 100.3399417  79.2050553 106.8262111
 100.2017316  79.3952149 105.8983300  99.9835636  79.9669936 107.2830162
  88.5041544  73.1908648 112.9059123  89.1440923  73.0497408 112.2082086
  87.6719074  72.9043162 112.5297725 100.3668797  81.2727080 111.8373382
 100.8005304  81.1802369 112.6856436 101.0800378  81.2484581 111.1993398
  89.2801847  82.4911079 109.0194115  90.0742446  81.9961399 108.8176690
  88.5693540  81.9628942 108.6561821  94.0996692  84.8729174 113.3706483
  94.1533714  85.4420111 114.1384199  93.2311473  85.0431059 113.0060520
  85.5884611  76.6354161 105.0953868  84.6582199  76.5738616 105.3123830
  85.6842083  76.1130113 104.2990509  85.5070160  73.1608973 107.6832110
  85.7676977  74.0754307 107.5741270  86.3287332  72.6933416 107.8328723
 101.2284347  81.3150781 114.3706268 101.4220237  82.2196591 114.6165543
 101.1284965  80.8558200 115.2044853  92.8820657  71.2008671 116.8696595
  92.2348572  71.8998621 116.7761072  93.6521673  71.6344815 117.2372843
  96.2899455  81.4657524 119.9447148  96.1384962  81.2368075 119.0277232
  96.2804135  82.4228125 119.9578493  93.0584792  79.0389436 114.9293415
  93.9876852  79.1900596 114.7562382  92.6375822  79.1273457 114.0742061
  91.8573123  83.0640101 112.6991953  91.7184209  82.6958885 113.5717891
  91.0687720  83.5787740 112.5275910  92.4521275  88.1649197 104.0417489
  92.6273031  87.6937240 104.8563112  91.7654063  88.7914963 104.2698750
  93.4078339  82.4421704 110.0880790  93.0728171  82.4022473 110.9838440
  92.9082284  81.7766419 109.6151201  87.3822583  77.8489334 115.6133371
  87.2442381  77.1169572 116.2144910  88.2927506  77.7598234 115.3317559
  96.3437530  79.7877738 100.3617850  95.7266701  79.0624566 100.2650903
  95.8754019  80.5487098 100.0184924  90.0104883  77.5609293 115.1017051
  90.7204502  76.9202485 115.0603670  89.9674191  77.8122188 116.0243232
  97.9991662  84.4976646 118.0223630  97.9404208  83.8135866 117.3554213
  98.4011180  85.2395636 117.5704256  87.0182361  91.3138560 110.8157349
  87.2578959  91.9457084 111.4936368  86.1751557  90.9626600 111.1022708
  88.1336076  74.0063162  99.4839154  87.2565542  73.8851963  99.1201401
  88.6093829  73.2149240  99.2318043  98.0009069  82.4616230 116.2537610
  97.1135848  82.1242152 116.3764009  98.5707620  81.7299261 116.4906375
  91.5310223  87.1217682 113.2198853  91.4580394  87.9272654 113.7318158
  91.0887616  87.3209648 112.3946875  91.3200002  86.3589453 106.7301675
  90.5367524  86.9011133 106.8239899  92.0192747  86.8763432 107.1295916
  94.6296652  72.1684082 109.3735880  95.1265352  71.4154044 109.0536950
  93.8583634  72.2048399 108.8079089 102.4826410  77.8724448 111.0154172
 102.4716286  78.7549163 110.6448105 101.6143789  77.5195998 110.8208709
  93.9908906  87.0204517 115.3757012  94.7036878  87.6551981 115.3032913
  93.4998935  87.1168383 114.5597014  95.7126433  80.9255769 106.9474304
  94.7782712  81.0457232 106.7779008  95.8903101  80.0228236 106.6834313
  91.2131621  74.3101465 109.1007565  90.8429409  73.7572505 109.7888470
  91.7090714  73.7059598 108.5482565  99.0998984  76.7673088 107.4824338
  99.5659437  77.6001080 107.4084640  99.5506485  76.3018070 108.1869596
  89.0420820  84.7698960 116.1962583  89.7430279  85.4035443 116.3491977
  88.5715935  85.1113692 115.4358222  97.1675215  83.1116910 104.4810490
  97.4435059  82.9973504 105.3904364  96.2979714  82.7134395 104.4422663
  97.0715647  69.1353675 111.5215239  96.1578727  69.3657902 111.6897446
  97.5008749  69.2192120 112.3729271  96.8422106  77.3243567 114.0215133
  96.1893556  77.5719475 113.3667586  97.2202486  76.5107706 113.6877610
  93.8029279  87.3603261 108.1243303  93.9851674  86.5424917 108.5871056
  94.6262266  87.5770953 107.6868193  94.1371445  86.2871446 105.3858352
  94.6659211  85.7763900 104.7728514  94.3999665  85.9713976 106.2503885
  92.8909679  78.0663378 120.5081170  92.2150316  77.9657508 121.1783545
  93.7137313  77.9102592 120.9717167  84.6388538  84.3035315 113.1293685
  85.2241975  83.5579003 113.2621590  84.4413376  84.6139272 114.0130349
  91.6332462  89.3730306 114.7438786  92.1850770  89.5361927 115.5087871
  91.9738655  89.9634744 114.0718811  96.4843336  84.1991563 120.5987441
  97.0283240  84.8121522 120.1042395  95.9030181  84.7571142 121.1154454
  82.8614770  75.6005017 104.9252060  83.1568211  74.6915696 104.8719114
  81.9602806  75.5792757 104.6033062  94.7700849  87.3212281 111.7302468
  94.6451988  86.5202021 111.2213414  95.4279940  87.8158475 111.2416438
  86.3909017  73.6761014 110.9079608  85.6695603  74.2896982 110.7687082
  87.1802273  74.2118779 110.8296254  96.8335757  85.1221302 113.3582018
  95.8866093  85.0026653 113.2860345  97.1818530  84.2343800 113.4408280
  84.5902612  73.2819115 105.0491385  84.2615318  72.4016494 104.8666491
  84.9441982  73.2266784 105.9367774  93.8382190  84.9174018 109.5586371
  93.6907153  83.9890725 109.7393941  94.6635684  84.9394108 109.0743446
  87.7044435  73.5692085 105.4166863  88.0440507  74.0978006 104.6945471
  88.1516555  73.9072491 106.1925429  97.4416312  85.7402577 110.6451243
  98.3662860  85.5345438 110.5075694  97.2731616  85.4918978 111.5540585
  90.3987876  71.9529136 114.8669931  90.0584696  71.1536949 115.2690611
  89.6926882  72.2530846 114.2946764  91.0504347  69.0378448 113.3197254
  91.8730417  68.5638926 113.1976144  91.2942411  69.8168932 113.8195940
  89.6912582  72.0666706 103.6160155  90.4120944  72.4447959 103.1123872
  89.0677886  72.7855583 103.7195133  93.8343705  72.7711855 104.5518488
  94.0507319  73.6536493 104.2507316  93.3537772  72.3798069 103.8224130
  88.5742926  75.7297569 111.1289232  88.4287507  76.0437872 112.0213514
  88.0968130  76.3482469 110.5760131  90.4339309  72.7200117 111.1770122
  90.4200878  71.8241210 110.8402420  91.1511737  72.7270780 111.8108408
  92.2865440  73.1537457 113.2223249  92.0283218  74.0754527 113.2207580
  91.7550480  72.7567891 113.9123714  97.2311629  86.2588244 106.0013335
  97.4048506  85.6934666 105.2487187  97.7240520  87.0589139 105.8192825
  89.8376205  71.6014497 106.4457692  89.9592116  70.6731143 106.6448580
  89.5478247  71.6153183 105.5336008  92.7067395  69.2869407 109.5824412
  92.7289092  69.3508740 108.6276391  93.1235454  68.4473916 109.7764918
 103.0851020  79.0224667 107.6203635 103.5282166  78.2731992 107.2222758
 102.2077530  79.0134803 107.2377367  98.2186801  85.5755008 103.1010233
  98.9137706  86.1961701 103.3197548  98.5609951  84.7250360 103.3762611
 100.1178224  83.0254714 104.6297564 100.6429548  83.3641987 103.9046884
 100.0300577  82.0901729 104.4460698  91.7798273  86.9388788 116.7587440
  92.0885399  86.6937934 117.6310140  92.5773755  87.1435426 116.2706311
  91.8018885  89.0926697 108.9892817  91.3623875  88.6003076 109.6825674
  92.5527002  88.5499665 108.7484892  89.2492757  84.6364706 111.0615119
  88.6272766  83.9735411 110.7617347  89.9197624  84.6625838 110.3788766
  89.3217285  73.1146494 120.6547625  89.3705440  73.9908617 120.2725394
  89.8639799  72.5723887 120.0819268  99.8072130  83.6587618 119.9348762
  99.0167674  83.6411756 119.3953261  99.5705485  84.1975911 120.6897798
  99.9270005  80.5080084 117.2481490  99.9768010  80.3430091 118.1897013
  99.8183929  79.6407343 116.8579371  97.2173768  76.4911012 118.5640797
  98.1183630  76.3517477 118.2724795  97.2921742  76.6565467 119.5038974
  91.5516573  73.8677867 117.4093983  90.6819882  74.1611433 117.1376572
  91.7876053  74.4518312 118.1301247 101.4288202  82.9277025 117.4923512
 101.1373010  83.2907006 118.3286973 100.8160333  82.2144034 117.3136844
 102.6283884  80.4929905 110.0126082 103.4630776  80.9319709 110.1763642
 102.7643013  80.0168558 109.1934328  99.6775390  78.0509640 115.9603570
 100.1529512  78.2437286 115.1522421  98.7540956  78.1068826 115.7146954
  86.5658897  79.2133807 105.5434648  86.3204939  78.3096137 105.7414858
  86.7354811  79.2150958 104.6014126  94.2555607  70.0857484 114.9259404
  94.7737551  70.8218511 114.6005892  93.9010740  70.3921477 115.7606163
  85.8354544  74.9462165 103.0420810  85.1423789  75.0206520 102.3860846
  85.5906296  74.1822508 103.5642327  94.5068201  66.5057766 110.4460300
  94.7869955  65.8380955 111.0720727  95.2918808  66.6986862 109.9334964
  92.3101669  85.6816760 102.0085327  91.7375637  86.3006947 101.5555799
  92.8834463  86.2316122 102.5425249  98.3777059  74.9275400 114.1931875
  99.3294482  75.0273498 114.2144099  98.2080510  74.1353669 114.7029960
  96.3991439  72.0130983 114.3791276  95.8041371  72.2935996 113.6837765
  96.1141135  72.5024884 115.1508017  95.5298929  85.9653910 103.1393909
  96.4629602  85.8999472 103.3426784  95.4422142  86.8010177 102.6808442
  98.1586946  85.2819781 100.0997856  98.0800577  84.9479644 100.9933614
  98.9796613  85.7741548 100.0989329 100.8565137  78.1481520 113.3074175
 100.8241457  77.2097521 113.4933859 101.4665761  78.2265557 112.5740000
  92.6948468  77.0177573  99.3501379  93.6407573  76.8883781  99.4189797
  92.3162713  76.2792235  99.8270807 101.0059626  74.9392563 113.3532458
 100.4898674  74.1551020 113.1662387 101.8899574  74.6111280 113.5178978
  98.6670353  68.6833579 109.3128271  98.4695174  68.3748667 110.1971603
  99.2770058  69.4095218 109.4426201 106.6741687  79.2097527 112.4480212
 107.4045075  78.9482815 113.0087915 106.0648632  78.4726249 112.4882280
 104.7556984  77.3505389 113.0454663 104.0290148  77.2161354 112.4371155
 104.3404271  77.6582218 113.8511381  92.5787160  81.0695319 120.8102036
  93.4990170  81.2473918 121.0042083  92.5436744  80.1251364 120.6581735
  90.8791385  74.9427549  99.2856264  89.9722841  74.6460662  99.3618978
  91.1567366  74.6457367  98.4190551  92.4953451  69.4864439 105.4400506
  91.6854179  69.1411524 105.8155752  93.1837868  69.1771983 106.0288117
  94.4243999  68.5642486 107.0624802  94.9775038  68.9837939 107.7214825
  94.6614085  67.6378234 107.1047758  90.4477098  74.5529559 122.8427566
  90.3473825  75.5023916 122.7739657  90.2298640  74.2247798 121.9703636
  89.6490170  71.8014484  99.4268244  90.5109334  72.1269383  99.6864061
  89.8340514  71.0145980  98.9141309  97.8022806  70.6743011 106.5703467
  97.2221475  71.3327815 106.1881519  97.5358739  69.8520355 106.1590884
  96.2526373  70.0748069 108.7724787  96.7526151  70.1864603 107.9639106
  96.8961981  69.7709121 109.4125595  90.3108368  77.9826698 121.6592628
  89.8275450  78.7827058 121.8656517  90.3969307  77.9934643 120.7060072
  86.2381706  81.8731233 113.6961062  87.1924959  81.8415175 113.6290993
  86.0394229  81.4121857 114.5111288  86.8281088  80.4432349 116.2631859
  87.6473977  80.9376428 116.2866697  87.1017896  79.5264317 116.2349427
  96.5847684  72.8343101 105.6259815  95.6973539  73.1192752 105.4080010
  97.0001673  72.6736865 104.7787092  99.9362220  72.8589622 109.3414154
 100.7122610  73.3486075 109.6138771  99.2110355  73.2847676 109.7986024
 102.3734779  73.5717241 110.3988095 102.9679270  73.3312977 109.6881403
 102.4461363  72.8524372 111.0261631  95.7290898  82.5987776  99.7207835
  96.4326748  82.8037778 100.3365490  95.0053546  83.1664538  99.9856918
  96.5588708  78.3497637 105.8410105  96.5023909  78.8066189 105.0017737
  97.1117050  77.5888322 105.6632948 100.3693514  74.1387369 106.6660224
 100.1130448  73.7384005 107.4968432  99.7446382  74.8531163 106.5410364
 104.6805852  76.8783442 109.1731516 104.1205410  76.9476632 109.9463078
 104.0749355  76.7024427 108.4531012  87.7501061  88.3120169 110.9249702
  87.6333445  89.2565602 110.8228392  86.9293507  88.0093731 111.3135501
  97.6377595  83.0370305 101.7706295  98.4723199  82.6051504 101.5883770
  97.4761938  82.8652319 102.6983189  97.2923487  79.5402418 103.1362634
  97.2372291  79.3746690 102.1951078  96.6669543  80.2478451 103.2924824
  94.6069394  81.8451330 122.4616197  95.4760554  82.0191983 122.1002832
  94.1276146  82.6645747 122.3391926  90.6019613  69.0410527 102.7147953
  90.5898283  69.9852367 102.8716223  91.4943035  68.8580673 102.4207414
  88.7755575  88.9648431 114.1405631  89.6782821  88.9972042 114.4572126
  88.5492945  88.0348882 114.1551966  90.5309177  87.7179418 110.8015709
  89.5804808  87.7181279 110.6880081  90.8341663  86.9712152 110.2851744
  94.4171732  65.6353304 106.9693889  93.6504128  65.0811791 107.1150572
  94.8282437  65.7075173 107.8308041 106.2661870  93.5539956 111.8661472
 106.9040280  93.4346704 111.1624812 106.1482713  94.5020800 111.9249424
 103.0751576  93.5067384 111.8022996 102.7370088  93.3908449 110.9143531
 103.9441345  93.1058549 111.7824002  98.9338392  95.3602861 107.7919887
  98.3703257  95.2692798 107.0236175  98.8190787  94.5402765 108.2722380
 103.5571359  94.6602236 117.7609202 103.5460000  94.2655034 116.8889705
 103.7191999  93.9268309 118.3542973  96.4802824  96.8554052 110.6304108
  97.2724116  96.5144877 110.2150407  96.7199474  96.9649027 111.5506261
 104.5137951  99.0273828 103.1034352 103.8625931  99.6127909 102.7168366
 105.3082314  99.5580023 103.1629390  98.4393578  96.1162966 103.5021487
  99.2124454  95.5691953 103.3634362  98.7918977  96.9807215 103.7135948
 100.2778621  97.4439348 116.7088386  99.9868487  98.3484979 116.5935052
 100.9135605  97.4855875 117.4232455 101.2034827  94.8216196 113.2989745
 101.7998400  94.5972219 112.5846708 101.2609799  94.0800942 113.9015193
 100.7759856  92.2755632 101.1339936 101.0285377  91.7537153 100.3723399
  99.8384415  92.1121777 101.2366620 105.8203139  91.2791410 108.9414680
 106.6066228  90.8610833 108.5905097 106.0841843  92.1837502 109.1096328
 105.9913216  96.7164260 103.6403336 105.3559049  96.7898887 104.3524241
 105.6610622  97.3057859 102.9622416 111.2211566  91.2166643 109.8447658
 111.9536738  90.6465860 110.0785488 110.4650922  90.8288244 110.2854164
 100.4956145  94.1783738 103.3364311 100.3792403  93.5028641 104.0045396
 100.6058405  93.6916112 102.5196464 102.8387686  93.6393885 107.0411001
 102.4745893  93.1124506 107.7523922 103.6954801  93.2492354 106.8677486
 108.7436986  84.9288217 114.3042267 108.4120311  85.7983628 114.0803482
 108.1482600  84.6124501 114.9836297 102.4793173  88.6683784 102.0372349
 102.6467575  89.5364021 102.4042820 102.2890342  88.8311066 101.1133638
 105.2368506  97.1300763 113.7038179 104.9369229  98.0325802 113.5953987
 104.8919565  96.8632947 114.5559332  98.6880987  93.5814560 109.7374884
  97.7631484  93.4490774 109.9452576  98.9365400  94.3608779 110.2344826
 108.6365649  89.6483304 111.3835617 107.7282527  89.5798712 111.0894378
 108.5853245  90.1255249 112.2117442 102.4582393  91.1241442 103.0219016
 102.3382019  91.5698493 103.8604496 101.7634982  91.4726760 102.4632554
  96.0489798  93.2247834 110.5718673  96.1782179  93.4782313 111.4858085
  95.3687250  93.8175542 110.2523328 100.2189286 103.8945084 106.6709147
 100.1413315 104.8452909 106.7497628  99.6150929 103.5490956 107.3284073
 102.7106515  91.0672949 119.3270514 101.9339849  91.6266869 119.3173379
 103.3497078  91.5529732 119.8485384 110.5027296  87.8499742 113.1613491
 109.8601676  88.1432275 112.5153285 109.9982224  87.7352662 113.9666687
 108.1567460  91.5962915 103.8499350 109.0685316  91.8290302 103.6747048
 107.6477107  92.1799959 103.2874429 100.9652888  93.8758403 118.8888481
 101.7067572  94.4143446 118.6123305 100.2589873  94.5024691 119.0460033
 106.4408227  96.0187543 117.4860643 106.8491583  95.5769954 116.7415275
 105.7185489  95.4440171 117.7394835 102.7939297  90.9560150 114.8594200
 103.6400492  91.3799563 115.0028849 102.7337935  90.2993774 115.5532763
 106.7637042  96.5788734 111.2412931 106.1345904  96.7434448 110.5388999
 106.3762704  96.9930343 112.0123895 110.6426274  97.5143171 108.5957295
 109.9577312  97.8942073 108.0454329 110.7270123  98.1238498 109.3289243
 105.9438743  88.6164518 116.5175373 105.6999674  89.3706579 115.9809649
 106.2198673  88.9949866 117.3522620 107.8977205  95.1603130 115.1952639
 108.1094101  95.8034890 114.5187020 107.8506954  94.3265447 114.7274569
 105.5003434  87.7720951 112.0989211 104.6387913  88.0702205 112.3905948
 105.5265869  87.9891350 111.1670244 102.3165004  96.3163142 108.5063017
 102.7803349  96.5950845 107.7167639 102.0521802  95.4146586 108.3236107
  99.2089085  95.8634623 111.4442780  99.7790442  96.2921892 110.8060264
  99.7997197  95.5817208 112.1426965 101.2533890  92.4386294 105.3152582
 101.9557933  92.8907338 105.7826508 100.9214518  91.7970113 105.9432475
  99.7014251  91.0298051 119.6903791  99.0712912  91.7114332 119.9239188
  99.5950339  90.9181132 118.7456929  94.9959224  90.6969847 110.6169715
  94.2058278  90.9527375 110.1409826  95.4870471  91.5118185 110.7221756
 109.0123033  98.0375086 113.3674996 109.8340477  97.6355273 113.0857678
 109.0085436  97.9343320 114.3191112  96.9473969  91.0614426 107.5753192
  96.1505132  91.1733120 108.0936688  96.7199561  91.4001078 106.7094082
 102.7779637  97.5859129 115.5235707 102.8424069  98.0479536 116.3593878
 102.0690561  96.9556494 115.6518016  93.2796927  90.9500337 113.0484706
  93.5304965  91.8347347 113.3142282  93.8156475  90.7704939 112.2759798
 117.1029026  94.3813834 109.7159968 116.3492735  93.8121232 109.5603972
 117.2376568  94.3476499 110.6630602 102.4927654  99.2527237 105.3914687
 102.3573329 100.0978772 105.8199535 103.0337467  99.4546514 104.6280621
  98.9794994  85.3318817 122.0529042  98.5861940  84.7785015 122.7276686
  99.7961134  85.6429395 122.4435560  95.9457052  96.7702675 105.9642612
  96.4581572  97.5645925 106.1148177  96.5979765  96.0728965 105.8976213
  97.7551937  99.8868431 108.0465365  97.9318565 100.8086396 107.8586349
  98.5508770  99.5726850 108.4759745 101.8962955  86.7476696 119.6449299
 102.6372668  87.3483849 119.5653761 102.1280878  86.0054333 119.0867341
  97.0404293  91.9333063 117.9227528  96.9257808  91.0318320 118.2234627
  96.1848811  92.1796760 117.5712345 104.1196131  99.8750803 119.5215029
 103.6759985  99.0887182 119.2035933 104.7813344 100.0629954 118.8558920
  98.8783252 101.4046605 114.0475708  99.4290677 101.2763668 113.2752701
  98.0394728 101.7041494 113.6970600 106.2177369 100.1553603 117.5496430
 106.1995844 100.9762484 117.0576699 107.1397289 100.0307678 117.7746571
 102.6750423  97.6697733 118.3919939 103.2078760  96.9086021 118.1619247
 102.1464504  97.3771384 119.1344093 105.8420118  82.7757799 113.9213580
 105.4984387  83.6659440 113.8452691 106.2099081  82.5859456 113.0583165
  93.9105969  95.0991329 106.7402183  94.7481191  95.5088337 106.5235890
  94.0884236  94.1590771 106.7102376 105.8070401  92.7666410 102.4286016
 105.2917024  93.5371014 102.6674403 105.5347709  92.0931546 103.0519077
 103.3917512  87.6116110 107.4871254 102.5359108  87.2222961 107.3076893
 103.8044464  87.6908071 106.6271039 104.9216658  85.1462454 111.8862814
 104.4181454  85.1092589 111.0730619 105.2147265  86.0555196 111.9459470
 101.1659544  85.2301183 110.8928995 102.0312541  85.0343992 110.5334885
 101.2337053  85.0011535 111.8198352 110.7804675  95.5198764 104.3639189
 110.0034118  95.1809924 103.9194351 111.4596156  95.5251387 103.6894154
 105.5956704  90.6393502 104.2545797 105.2906839  90.9539651 105.1055940
 106.5487146  90.7174922 104.2973130 104.0403136  96.7983725 105.9038751
 103.5124497  96.0636485 105.5911988 103.5390638  97.5758401 105.6578719
 109.0195982  94.9932746 111.0205797 108.3619656  95.6832007 111.1085926
 109.8236381  95.3829178 111.3639783  98.7721863  87.4603391 108.2645362
  99.3465615  87.2378573 107.5318555  99.3592846  87.5292086 109.0173963
 107.8301441  93.3477118 109.0709739 108.3433322  93.9807110 109.5731448
 108.4802664  92.7478314 108.7053099  99.0991450  89.4907852 102.2841247
  98.2628763  89.8282539 102.6050522  98.9596220  89.3556832 101.3468384
 101.0744531  84.3344640 106.9920432 100.4208943  84.0193657 106.3677046
 101.0325005  83.7120381 107.7180255 102.1855736  94.6163935  98.9073724
 101.2782798  94.3853189  99.1064873 102.6826768  93.8201555  99.0947705
 105.0923815 103.3261443 101.8270410 104.4185514 103.6293139 102.4355368
 105.4789637 104.1290523 101.4775867 104.3082271  90.8226574 111.3168079
 103.3904833  91.0441521 111.1589767 104.7242415  90.8972884 110.4579787
 105.0917319  92.2217990 106.4470759 105.8389138  92.7339387 106.1377882
 105.3608909  91.9002042 107.3075153 103.3643969  94.7176530 103.4297714
 102.4555189  94.4335563 103.5270184 103.3939053  95.1375609 102.5701021
 108.5963237  98.3283120 107.1988881 108.1425564  97.4874030 107.2554072
 107.9657203  98.9644518 107.5363661 107.5396156  89.2575106 108.4289549
 106.8018913  88.7452492 108.7599791 107.7922930  88.8175487 107.6172826
 107.0396176 100.1659616 108.1338699 107.3319150 100.7264674 107.4151065
 107.5494797 100.4588177 108.8891859 107.6407784  82.0351358 109.0231318
 107.9466660  81.1748721 108.7357233 108.3660388  82.6268978 108.8230312
  93.9332140  92.4382044 107.4112916  93.7356540  91.8451405 106.6863983
  93.3778804  92.1334255 108.1288855 101.9128863  92.3305151 109.5307509
 101.9677473  91.3778987 109.4549986 101.1020065  92.4864590 110.0148808
 103.0620057  96.2585274 100.7685792 102.6239487  95.5421133 100.3091430
 103.8030498  96.4861389 100.2070884  99.8521223  90.9482211 107.2897888
  99.0389089  91.2476381 107.6963080 100.3480217  90.5537899 108.0072370
 102.0029801 100.9439968 109.2232153 101.9605980 101.1700814 108.2940685
 102.9192500 100.7103342 109.3717954 105.4495435  91.4124035 116.1212782
 105.8044823  91.6395508 116.9807248 106.0967566  91.7442412 115.4990037
 111.1793172  94.5342471 106.8262111 111.0411071  94.7244067 105.8983300
 110.8229391  95.2961854 107.2830162  99.3435298  88.5200566 112.9059123
  99.9834677  88.3789325 112.2082086  98.5112829  88.2335079 112.5297725
 111.2062552  96.6018998 111.8373382 111.6399058  96.5094287 112.6856436
 111.9194132  96.5776498 111.1993398 100.1195602  97.8202997 109.0194115
 100.9136200  97.3253317 108.8176690  99.4087294  97.2920860 108.6561821
 104.9390446 100.2021092 113.3706483 104.9927469 100.7712028 114.1384199
 104.0705228 100.3722977 113.0060520  96.4278365  91.9646078 105.0953868
  95.4975954  91.9030534 105.3123830  96.5235837  91.4422031 104.2990509
  96.3463914  88.4900891 107.6832110  96.6070732  89.4046224 107.5741270
  97.1681087  88.0225334 107.8328723  97.8188840  89.9038648 114.8530934
  98.4911893  89.6956010 114.2043583  96.9918626  89.7060734 114.4136167
 112.0678101  96.6442699 114.3706268 112.2613991  97.5488509 114.6165543
 111.9678719  96.1850118 115.2044853 103.7214412  86.5300589 116.8696595
 103.0742327  87.2290539 116.7761072 104.4915427  86.9636733 117.2372843
 107.1293210  96.7949441 119.9447148 106.9778716  96.5659993 119.0277232
 107.1197889  97.7520043 119.9578493 103.8978546  94.3681354 114.9293415
 104.8270606  94.5192514 114.7562382 103.4769576  94.4565375 114.0742061
 102.6966878  98.3932019 112.6991953 102.5577964  98.0250803 113.5717891
 101.9081474  98.9079658 112.5275910 103.2915030 103.4941115 104.0417489
 103.4666786 103.0229158 104.8563112 102.6047818 104.1206881 104.2698750
 104.2472093  97.7713621 110.0880790 103.9121926  97.7314391 110.9838440
 103.7476039  97.1058337 109.6151201  98.2216337  93.1781251 115.6133371
  98.0836135  92.4461490 116.2144910  99.1321261  93.0890151 115.3317559
 107.1831285  95.1169656 100.3617850 106.5660455  94.3916484 100.2650903
 106.7147773  95.8779016 100.0184924 100.8498638  92.8901211 115.1017051
 101.5598256  92.2494403 115.0603670 100.8067946  93.1414105 116.0243232
 108.8385416  99.8268564 118.0223630 108.7797963  99.1427784 117.3554213
 109.2404935 100.5687554 117.5704256  99.5627572  89.8766428 116.9212691
  99.0264929  89.4257167 117.5734287  98.9744280  90.0112337 116.1783155
  97.8576115 106.6430478 110.8157349  98.0972713 107.2749002 111.4936368
  97.0145312 106.2918518 111.1022708  98.9729831  89.3355080  99.4839154
  98.0959297  89.2143881  99.1201401  99.4487584  88.5441158  99.2318043
 108.8402824  97.7908148 116.2537610 107.9529602  97.4534070 116.3764009
 109.4101375  97.0591179 116.4906375  90.4931971  94.1232240 109.5780661
  91.1803011  93.8093970 108.9901677  90.3380099  95.0273604 109.3047913
  95.2966693  89.0122436 114.0065685  95.2124882  88.4048106 113.2716095
  94.4749399  89.5031454 114.0075181 102.3703977 102.4509600 113.2198853
 102.2974149 103.2564572 113.7318158 101.9281370 102.6501566 112.3946875
 102.1593757 101.6881370 106.7301675 101.3761279 102.2303050 106.8239899
 102.8586502 102.2055350 107.1295916 105.4690407  87.4976000 109.3735880
 105.9659106  86.7445962 109.0536950 104.6977388  87.5340316 108.8079089
 113.3220164  93.2016365 111.0154172 113.3110040  94.0841081 110.6448105
 112.4537544  92.8487916 110.8208709 104.8302661 102.3496434 115.3757012
 105.5430633 102.9843899 115.3032913 104.3392689 102.4460300 114.5597014
 106.5520188  96.2547687 106.9474304 105.6176466  96.3749149 106.7779008
 106.7296856  95.3520154 106.6834313 102.0525376  89.6393383 109.1007565
 101.6823163  89.0864423 109.7888470 102.5484468  89.0351516 108.5482565
 109.9392739  92.0965006 107.4824338 110.4053191  92.9292998 107.4084640
 110.3900239  91.6309988 108.1869596  99.8814574 100.0990878 116.1962583
 100.5824034 100.7327361 116.3491977  99.4109689 100.4405609 115.4358222
 108.0068970  98.4408827 104.4810490 108.2828814  98.3265422 105.3904364
 107.1373469  98.0426312 104.4422663 107.9109402  84.4645593 111.5215239
 106.9972481  84.6949820 111.6897446 108.3402503  84.5484037 112.3729271
 107.6815860  92.6535485 114.0215133 107.0287310  92.9011393 113.3667586
 108.0596240  91.8399623 113.6877610 104.6423034 102.6895178 108.1243303
 104.8245429 101.8716834 108.5871056 105.4656020 102.9062871 107.6868193
 104.9765199 101.6163363 105.3858352 105.5052966 101.1055818 104.7728514
 105.2393419 101.3005894 106.2503885 103.7303433  93.3955296 120.5081170
 103.0544070  93.2949426 121.1783545 104.5531067  93.2394510 120.9717167
  95.4782292  99.6327233 113.1293685  96.0635729  98.8870921 113.2621590
  95.2807131  99.9431189 114.0130349  98.3320947 102.6678480 108.1456128
  97.6631323 103.1524608 107.6620168  98.1933817 102.9147701 109.0599506
  90.0699947  92.2032833 111.8498129  90.1084046  91.6696424 112.6435247
  89.5640240  91.6768038 111.2309106 102.4726216 104.7022224 114.7438786
 103.0244524 104.8653845 115.5087871 102.8132409 105.2926661 114.0718811
  97.4490709  87.0497373 115.3460671  97.5132036  87.9112204 114.9338068
  97.3857829  86.4371375 114.6133029  96.9242982  89.1220506 118.9933705
  97.5515021  88.7397583 119.6071229  96.0670901  88.9034708 119.3589398
 107.3237090  99.5283481 120.5987441 107.8676994 100.1413439 120.1042395
 106.7423935 100.0863060 121.1154454  93.7008525  90.9296935 104.9252060
  93.9961966  90.0207613 104.8719114  92.7996560  90.9084675 104.6033062
 105.6094603 102.6504199 111.7302468 105.4845743 101.8493939 111.2213414
 106.2673694 103.1450393 111.2416438  97.2302772  89.0052932 110.9079608
  96.5089357  89.6188899 110.7687082  98.0196027  89.5410696 110.8296254
 107.6729512 100.4513219 113.3582018 106.7259847 100.3318570 113.2860345
 108.0212285  99.5635717 113.4408280 100.0329085  86.3407358 117.1820260
 100.5563487  86.5869655 117.9446570  99.8141418  87.1727393 116.7623398
  95.4296366  88.6111033 105.0491385  95.1009072  87.7308412 104.8666491
  95.7835737  88.5558701 105.9367774 104.6775945 100.2465935 109.5586371
 104.5300907  99.3182643 109.7393941 105.5029438 100.2686026 109.0743446
  98.5438189  88.8984003 105.4166863  98.8834262  89.4269924 104.6945471
  98.9910310  89.2364409 106.1925429 108.2810067 101.0694494 110.6451243
 109.2056614 100.8637356 110.5075694 108.1125370 100.8210895 111.5540585
 101.2381630  87.2821053 114.8669931 100.8978450  86.4828866 115.2690611
 100.5320636  87.5822764 114.2946764 101.8898102  84.3670366 113.3197254
 102.7124171  83.8930844 113.1976144 102.1336165  85.1460849 113.8195940
 100.5306336  87.3958624 103.6160155 101.2514699  87.7739877 103.1123872
  99.9071641  88.1147501 103.7195133 104.6737459  88.1003773 104.5518488
 104.8901074  88.9828411 104.2507316 104.1931526  87.7089987 103.8224130
  99.4136681  91.0589486 111.1289232  99.2681261  91.3729789 112.0213514
  98.9361884  91.6774387 110.5760131 101.2733064  88.0492034 111.1770122
 101.2594632  87.1533128 110.8402420 101.9905492  88.0562698 111.8108408
 103.1259194  88.4829375 113.2223249 102.8676972  89.4046445 113.2207580
 102.5944235  88.0859809 113.9123714 108.0705383 101.5880162 106.0013335
 108.2442261 101.0226584 105.2487187 108.5634274 102.3881057 105.8192825
  93.8882343  93.5994831 114.0676894  93.3435811  94.3754639 114.1997168
  94.7661693  93.9465635 113.9096015 100.6769959  86.9306415 106.4457692
 100.7985871  86.0023061 106.6448580 100.3872002  86.9445101 105.5336008
 103.5461150  84.6161325 109.5824412 103.5682847  84.6800658 108.6276391
 103.9629209  83.7765834 109.7764918 113.9244774  94.3516585 107.6203635
 114.3675920  93.6023910 107.2222758 113.0471284  94.3426721 107.2377367
 109.0580556 100.9046926 103.1010233 109.7531460 101.5253619 103.3197548
 109.4003706 100.0542277 103.3762611  94.6748365  92.7264727 116.9607050
  93.9330101  92.8747362 117.5471681  94.3541109  92.9872993 116.0973800
 110.9571979  98.3546632 104.6297564 111.4823303  98.6933904 103.9046884
 110.8694331  97.4193647 104.4460698 102.6192027 102.2680705 116.7587440
 102.9279154 102.0229852 117.6310140 103.4167509 102.4727344 116.2706311
 102.6412639 104.4218615 108.9892817 102.2017630 103.9294994 109.6825674
 103.3920756 103.8791583 108.7484892  95.1204978 100.6130156 108.9917445
  95.9462998 100.3133928 108.6116089  94.7699030  99.8437778 109.4407234
 100.0886512  99.9656624 111.0615119  99.4666521  99.3027329 110.7617347
 100.7591378  99.9917756 110.3788766  93.3213583  98.5316482 109.9506379
  92.4845492  98.1038657 109.7690380  93.2937229  98.7248926 110.8877170
 100.1611039  88.4438412 120.6547625 100.2099194  89.3200535 120.2725394
 100.7033553  87.9015805 120.0819268 110.6465885  98.9879535 119.9348762
 109.8561428  98.9703674 119.3953261 110.4099239  99.5267829 120.6897798
 110.7663760  95.8372002 117.2481490 110.8161765  95.6722009 118.1897013
 110.6577683  94.9699261 116.8579371  99.6500018  98.5160547 104.5373579
  99.7988139  99.1996012 103.8840252 100.4566462  98.4965637 105.0523035
 108.0567522  91.8202930 118.5640797 108.9577385  91.6809394 118.2724795
 108.1315497  91.9857384 119.5038974 102.3910327  89.1969784 117.4093983
 101.5213637  89.4903350 117.1376572 102.6269808  89.7810229 118.1301247
 112.2681957  98.2568943 117.4923512 111.9766765  98.6198924 118.3286973
 111.6554088  97.5435951 117.3136844 113.4677639  95.8221823 110.0126082
 114.3024530  96.2611627 110.1763642 113.6036768  95.3460476 109.1934328
 110.5169145  93.3801558 115.9603570 110.9923266  93.5729204 115.1522421
 109.5934710  93.4360744 115.7146954  97.4052651  94.5425725 105.5434648
  97.1598693  93.6388055 105.7414858  97.5748566  94.5442875 104.6014126
 105.0949361  85.4149401 114.9259404 105.6131305  86.1510428 114.6005892
 104.7404494  85.7213395 115.7606163  96.6748299  90.2754082 103.0420810
  95.9817544  90.3498437 102.3860846  96.4300051  89.5114426 103.5642327
 105.3461955  81.8349684 110.4460300 105.6263709  81.1672873 111.0720727
 106.1312562  82.0278779 109.9334964 103.1495424 101.0108678 102.0085327
 102.5769391 101.6298865 101.5555799 103.7228218 101.5608039 102.5425249
 109.2170814  90.2567318 114.1931875 110.1688237  90.3565415 114.2144099
 109.0474264  89.4645586 114.7029960 107.2385193  87.3422901 114.3791276
 106.6435125  87.6227914 113.6837765 106.9534890  87.8316802 115.1508017
 106.3692684 101.2945828 103.1393909 107.3023357 101.2291390 103.3426784
 106.2815897 102.1302095 102.6808442 108.9980700 100.6111698 100.0997856
 108.9194332 100.2771562 100.9933614 109.8190367 101.1033466 100.0989329
 111.6958892  93.4773438 113.3074175 111.6635212  92.5389438 113.4933859
 112.3059515  93.5557474 112.5740000 103.5342222  92.3469490  99.3501379
 104.4801327  92.2175699  99.4189797 103.1556467  91.6084152  99.8270807
 111.8453380  90.2684481 113.3532458 111.3292429  89.4842938 113.1662387
 112.7293329  89.9403198 113.5178978 109.5064107  84.0125497 109.3128271
 109.3088928  83.7040585 110.1971603 110.1163813  84.7387135 109.4426201
 117.5135441  94.5389444 112.4480212 118.2438830  94.2774732 113.0087915
 116.9042387  93.8018166 112.4882280 115.5950739  92.6797307 113.0454663
 114.8683902  92.5453272 112.4371155 115.1798025  92.9874136 113.8511381
 103.4180915  96.3987237 120.8102036 104.3383924  96.5765836 121.0042083
 103.3830498  95.4543282 120.6581735 101.7185140  90.2719467  99.2856264
 100.8116595  89.9752580  99.3618978 101.9961121  89.9749285  98.4190551
  92.6363080  91.5925830 109.7355311  92.3165864  90.7391138 109.4429685
  92.0896508  91.8074408 110.4913278  96.4142988  94.3088271 113.4524817
  96.6328997  95.2405379 113.4712851  96.8268761  93.9496246 114.2379621
 103.3347205  84.8156357 105.4400506 102.5247934  84.4703442 105.8155752
 104.0231622  84.5063900 106.0288117 105.2637754  83.8934403 107.0624802
 105.8168792  84.3129857 107.7214825 105.5007840  82.9670152 107.1047758
 101.2870853  89.8821477 122.8427566 101.1867580  90.8315834 122.7739657
 101.0692395  89.5539716 121.9703636 100.4883924  87.1306402  99.4268244
 101.3503088  87.4561300  99.6864061 100.6734268  86.3437898  98.9141309
  92.5051340  95.2128742 111.7048432  91.8114811  94.7982695 111.1918387
  93.2524331  95.2549278 111.1081851 108.6416561  86.0034929 106.5703467
 108.0615230  86.6619733 106.1881519 108.3752493  85.1812273 106.1590884
 107.0920127  85.4039986 108.7724787 107.5919905  85.5156521 107.9639106
 107.7355735  85.1001039 109.4125595 101.1502123  93.3118616 121.6592628
 100.6669205  94.1118976 121.8656517 101.2363062  93.3226561 120.7060072
  94.4188083  95.1446996 109.5814447  94.3958771  95.2434683 108.6296330
  94.7288719  95.9912146 109.9031613  97.0775460  97.2023151 113.6961062
  98.0318714  97.1707093 113.6290993  96.8787984  96.7413774 114.5111288
  97.6674843  95.7724267 116.2631859  98.4867732  96.2668345 116.2866697
  97.9411650  94.8556235 116.2349427 107.4241439  88.1635019 105.6259815
 106.5367294  88.4484670 105.4080010 107.8395428  88.0028782 104.7787092
 110.7755975  88.1881540 109.3414154 111.5516365  88.6777992 109.6138771
 110.0504109  88.6139594 109.7986024 113.2128533  88.9009159 110.3988095
 113.8073024  88.6604895 109.6881403 113.2855117  88.1816290 111.0261631
  95.4325689 102.7442770 110.7131260  95.2980157 101.9843171 110.1469258
  95.0157751 103.4683670 110.2460048 106.5684652  97.9279694  99.7207835
 107.2720502  98.1329696 100.3365490 105.8447301  98.4956455  99.9856918
 107.3982462  93.6789555 105.8410105 107.3417664  94.1358106 105.0017737
 107.9510805  92.9180239 105.6632948 111.2087268  89.4679287 106.6660224
 110.9524203  89.0675922 107.4968432 110.5840136  90.1823081 106.5410364
 115.5199606  92.2075360 109.1731516 114.9599164  92.2768549 109.9463078
 114.9143110  92.0316345 108.4531012  98.5894815 103.6412087 110.9249702
  98.4727199 104.5857520 110.8228392  97.7687261 103.3385649 111.3135501
 108.4771350  98.3662223 101.7706295 109.3116954  97.9343421 101.5883770
 108.3155693  98.1944236 102.6983189 108.1317242  94.8694336 103.1362634
 108.0766046  94.7038608 102.1951078 107.5063297  95.5770369 103.2924824
  92.9209757  90.1062400 116.9624056  93.5668620  89.5961354 117.4511282
  92.7126908  90.8431082 117.5367482 105.4463149  97.1743248 122.4616197
 106.3154309  97.3483900 122.1002832 104.9669900  97.9937665 122.3391926
 101.4413367  84.3702445 102.7147953 101.4292037  85.3144285 102.8716223
 102.3336789  84.1872591 102.4207414  99.6149329 104.2940349 114.1405631
 100.5176576 104.3263959 114.4572126  99.3886699 103.3640800 114.1551966
 101.3702931 103.0471336 110.8015709 100.4198562 103.0473197 110.6880081
 101.6735417 102.3004070 110.2851744 105.2565487  80.9645222 106.9693889
 104.4897883  80.4103708 107.1150572 105.6676192  81.0367091 107.8308041
  97.2607248  87.2530018 121.0599071  98.1238709  86.8966822 121.2702395
  96.6872658  86.9143912 121.7474475 117.1055625 108.8831874 111.8661472
 117.7434035 108.7638621 111.1624812 116.9876468 109.8312718 111.9249424
 113.9145331 108.8359302 111.8022996 113.5763842 108.7200367 110.9143531
 114.7835099 108.4350467 111.7824002 109.7732147 110.6894778 107.7919887
 109.2097012 110.5984715 107.0236175 109.6584542 109.8694683 108.2722380
 107.3196579 112.1845970 110.6304108 108.1117871 111.8436795 110.2150407
 107.5593229 112.2940945 111.5506261 115.3531705 114.3565746 103.1034352
 114.7019685 114.9419827 102.7168366 116.1476068 114.8871941 103.1629390
 109.2787333 111.4454883 103.5021487 110.0518209 110.8983870 103.3634362
 109.6312731 112.3099133 103.7135948 112.0428582 110.1508114 113.2989745
 112.6392154 109.9264136 112.5846708 112.1003553 109.4092860 113.9015193
 111.6153610 107.6047549 101.1339936 111.8679131 107.0829071 100.3723399
 110.6778169 107.4413695 101.2366620 116.6596893 106.6083328 108.9414680
 117.4459982 106.1902751 108.5905097 116.9235598 107.5129420 109.1096328
 116.8306971 112.0456178 103.6403336 116.1952804 112.1190805 104.3524241
 116.5004377 112.6349777 102.9622416 122.0605320 106.5458561 109.8447658
 122.7930492 105.9757778 110.0785488 121.3044676 106.1580161 110.2854164
 111.3349899 109.5075655 103.3364311 111.2186157 108.8320559 104.0045396
 111.4452159 109.0208029 102.5196464 113.6781440 108.9685802 107.0411001
 113.3139647 108.4416423 107.7523922 114.5348556 108.5784272 106.8677486
 119.5830741 100.2580135 114.3042267 119.2514065 101.1275546 114.0803482
 118.9876354  99.9416419 114.9836297 113.3186927 103.9975702 102.0372349
 113.4861329 104.8655939 102.4042820 113.1284096 104.1602984 101.1133638
 109.5274742 108.9106478 109.7374884 108.6025238 108.7782692 109.9452576
 109.7759155 109.6900697 110.2344826 119.4759404 104.9775221 111.3835617
 118.5676281 104.9090630 111.0894378 119.4247000 105.4547166 112.2117442
 113.2976148 106.4533360 103.0219016 113.1775773 106.8990410 103.8604496
 112.6028736 106.8018677 102.4632554 106.8883553 108.5539751 110.5718673
 107.0175934 108.8074230 111.4858085 106.2081004 109.1467459 110.2523328
 111.0583040 119.2237001 106.6709147 110.9807070 120.1744826 106.7497628
 110.4544684 118.8782874 107.3284073 121.3421050 103.1791660 113.1613491
 120.6995431 103.4724193 112.5153285 120.8375979 103.0644580 113.9666687
 118.9961214 106.9254833 103.8499350 119.9079070 107.1582220 103.6747048
 118.4870861 107.5091877 103.2874429 113.6333052 106.2852067 114.8594200
 114.4794247 106.7091481 115.0028849 113.5731689 105.6285692 115.5532763
 117.6030796 111.9080651 111.2412931 116.9739659 112.0726365 110.5388999
 117.2156458 112.3222261 112.0123895 121.4820028 112.8435089 108.5957295
 120.7971066 113.2233990 108.0454329 121.5663878 113.4530416 109.3289243
 116.7832497 103.9456436 116.5175373 116.5393429 104.6998496 115.9809649
 117.0592428 104.3241783 117.3522620 116.3397189 103.1012869 112.0989211
 115.4781668 103.3994122 112.3905948 116.3659623 103.3183268 111.1670244
 113.1558758 111.6455059 108.5063017 113.6197104 111.9242762 107.7167639
 112.8915556 110.7438504 108.3236107 110.0482839 111.1926541 111.4442780
 110.6184196 111.6213809 110.8060264 110.6390951 110.9109126 112.1426965
 112.0927644 107.7678212 105.3152582 112.7951688 108.2199255 105.7826508
 111.7608273 107.1262031 105.9432475 105.8352978 106.0261764 110.6169715
 105.0452032 106.2819293 110.1409826 106.3264226 106.8410102 110.7221756
 107.7867724 106.3906344 107.5753192 106.9898887 106.5025038 108.0936688
 107.5593316 106.7292996 106.7094082 104.1190681 106.2792255 113.0484706
 104.3698720 107.1639265 113.3142282 104.6550230 106.0996856 112.2759798
 127.9422781 109.7105752 109.7159968 127.1886489 109.1413150 109.5603972
 128.0770322 109.6768417 110.6630602 113.3321409 114.5819154 105.3914687
 113.1967084 115.4270690 105.8199535 113.8731221 114.7838432 104.6280621
 109.8188749 100.6610734 122.0529042 109.4255694 100.1076933 122.7276686
 110.6354889 100.9721313 122.4435560 106.7850806 112.0994592 105.9642612
 107.2975327 112.8937843 106.1148177 107.4373519 111.4020883 105.8976213
 108.5945691 115.2160349 108.0465365 108.7712319 116.1378313 107.8586349
 109.3902525 114.9018768 108.4759745 112.7356710 102.0768613 119.6449299
 113.4766423 102.6775766 119.5653761 112.9674632 101.3346251 119.0867341
 107.8798048 107.2624981 117.9227528 107.7651563 106.3610238 118.2234627
 107.0242565 107.5088677 117.5712345 109.7177006 116.7338522 114.0475708
 110.2684432 116.6055586 113.2752701 108.8788482 117.0333411 113.6970600
 116.6813872  98.1049716 113.9213580 116.3378142  98.9951358 113.8452691
 117.0492835  97.9151374 113.0583165 104.7499723 110.4283247 106.7402183
 105.5874945 110.8380255 106.5235890 104.9277991 109.4882689 106.7102376
 116.6464155 108.0958327 102.4286016 116.1310779 108.8662932 102.6674403
 116.3741464 107.4223464 103.0519077 114.2311266 102.9408028 107.4871254
 113.3752863 102.5514879 107.3076893 114.6438218 103.0199989 106.6271039
 115.7610413 100.4754371 111.8862814 115.2575208 100.4384507 111.0730619
 116.0541020 101.3847114 111.9459470 112.0053299 100.5593101 110.8928995
 112.8706296 100.3635910 110.5334885 112.0730808 100.3303453 111.8198352
 121.6198429 110.8490682 104.3639189 120.8427872 110.5101841 103.9194351
 122.2989910 110.8543305 103.6894154 116.4350458 105.9685419 104.2545797
 116.1300594 106.2831569 105.1055940 117.3880900 106.0466839 104.2973130
 114.8796890 112.1275643 105.9038751 114.3518252 111.3928402 105.5911988
 114.3784393 112.9050319 105.6578719 119.8589736 110.3224663 111.0205797
 119.2013411 111.0123925 111.1085926 120.6630135 110.7121095 111.3639783
 109.6115618 102.7895309 108.2645362 110.1859370 102.5670491 107.5318555
 110.1986600 102.8584004 109.0173963 118.6695195 108.6769036 109.0709739
 119.1827077 109.3099028 109.5731448 119.3196419 108.0770231 108.7053099
 109.9385205 104.8199770 102.2841247 109.1022517 105.1574457 102.6050522
 109.7989975 104.6848750 101.3468384 111.9138286  99.6636558 106.9920432
 111.2602698  99.3485575 106.3677046 111.8718760  99.0412298 107.7180255
 113.0249490 109.9455853  98.9073724 112.1176552 109.7145106  99.1064873
 113.5220522 109.1493472  99.0947705 115.9317569 118.6553360 101.8270410
 115.2579268 118.9585057 102.4355368 116.3183391 119.4582441 101.4775867
 115.1476026 106.1518491 111.3168079 114.2298587 106.3733439 111.1589767
 115.5636170 106.2264802 110.4579787 115.9311074 107.5509907 106.4470759
 116.6782893 108.0631304 106.1377882 116.2002663 107.2293960 107.3075153
 114.2037724 110.0468448 103.4297714 113.2948943 109.7627481 103.5270184
 114.2332808 110.4667526 102.5701021 119.4356991 113.6575037 107.1988881
 118.9819318 112.8165947 107.2554072 118.8050958 114.2936436 107.5363661
 118.3789911 104.5867023 108.4289549 117.6412668 104.0744410 108.7599791
 118.6316684 104.1467405 107.6172826 117.8789930 115.4951534 108.1338699
 118.1712905 116.0556591 107.4151065 118.3888551 115.7880095 108.8891859
 118.4801538  97.3643275 109.0231318 118.7860415  96.5040639 108.7357233
 119.2054143  97.9560896 108.8230312 104.7725894 107.7673962 107.4112916
 104.5750294 107.1743323 106.6863983 104.2172558 107.4626172 108.1288855
 112.7522618 107.6597068 109.5307509 112.8071228 106.7070905 109.4549986
 111.9413820 107.8156508 110.0148808 113.9013812 111.5877192 100.7685792
 113.4633242 110.8713050 100.3091430 114.6424252 111.8153306 100.2070884
 110.6914978 106.2774128 107.2897888 109.8782843 106.5768299 107.6963080
 111.1873972 105.8829817 108.0072370 112.8423556 116.2731885 109.2232153
 112.7999734 116.4992731 108.2940685 113.7586255 116.0395260 109.3717954
 116.2889189 106.7415953 116.1212782 116.6438577 106.9687426 116.9807248
 116.9361321 107.0734330 115.4990037 122.0186926 109.8634389 106.8262111
 121.8804825 110.0535985 105.8983300 121.6623145 110.6253771 107.2830162
 110.1829053 103.8492484 112.9059123 110.8228432 103.7081243 112.2082086
 109.3506583 103.5626997 112.5297725 110.9589356 113.1494914 109.0194115
 111.7529955 112.6545234 108.8176690 110.2481049 112.6212777 108.6561821
 107.2672120 107.2937996 105.0953868 106.3369708 107.2322451 105.3123830
 107.3629592 106.7713949 104.2990509 107.1857669 103.8192809 107.6832110
 107.4464486 104.7338142 107.5741270 108.0074841 103.3517251 107.8328723
 108.6582594 105.2330566 114.8530934 109.3305648 105.0247928 114.2043583
 107.8312381 105.0352652 114.4136167 114.5608166 101.8592507 116.8696595
 113.9136081 102.5582457 116.7761072 115.3309182 102.2928651 117.2372843
 114.7372301 109.6973272 114.9293415 115.6664361 109.8484431 114.7562382
 114.3163331 109.7857293 114.0742061 113.5360632 113.7223936 112.6991953
 113.3971718 113.3542721 113.5717891 112.7475229 114.2371576 112.5275910
 114.1308784 118.8233033 104.0417489 114.3060540 118.3521076 104.8563112
 113.4441572 119.4498799 104.2698750 115.0865848 113.1005539 110.0880790
 114.7515680 113.0606309 110.9838440 114.5869793 112.4350255 109.6151201
 109.0610092 108.5073169 115.6133371 108.9229889 107.7753408 116.2144910
 109.9715015 108.4182069 115.3317559 118.0225039 110.4461573 100.3617850
 117.4054210 109.7208401 100.2650903 117.5541528 111.2070933 100.0184924
 111.6892392 108.2193128 115.1017051 112.3992011 107.5786320 115.0603670
 111.6461700 108.4706023 116.0243232 110.4021326 105.2058346 116.9212691
 109.8658683 104.7549085 117.5734287 109.8138035 105.3404255 116.1783155
 109.8123585 104.6646998  99.4839154 108.9353051 104.5435798  99.1201401
 110.2881338 103.8733076  99.2318043 101.3325725 109.4524157 109.5780661
 102.0196765 109.1385887 108.9901677 101.1773854 110.3565522 109.3047913
 106.1360447 104.3414354 114.0065685 106.0518636 103.7340023 113.2716095
 105.3143154 104.8323372 114.0075181 112.9987511 117.0173288 106.7301675
 112.2155033 117.5594968 106.8239899 113.6980256 117.5347268 107.1295916
 116.3084161 102.8267917 109.3735880 116.8052861 102.0737880 109.0536950
 115.5371143 102.8632234 108.8079089 124.1613919 108.5308283 111.0154172
 124.1503795 109.4132998 110.6448105 123.2931298 108.1779834 110.8208709
 117.3913942 111.5839605 106.9474304 116.4570221 111.7041067 106.7779008
 117.5690610 110.6812071 106.6834313 112.8919130 104.9685300 109.1007565
 112.5216918 104.4156341 109.7888470 113.3878223 104.3643434 108.5482565
 120.7786493 107.4256924 107.4824338 121.2446946 108.2584915 107.4084640
 121.2293994 106.9601905 108.1869596 118.8462724 113.7700745 104.4810490
 119.1222568 113.6557340 105.3904364 117.9767223 113.3718230 104.4422663
 118.7503156  99.7937511 111.5215239 117.8366236 100.0241738 111.6897446
 119.1796258  99.8775955 112.3729271 118.5209615 107.9827403 114.0215133
 117.8681065 108.2303310 113.3667586 118.8989994 107.1691541 113.6877610
 115.4816788 118.0187096 108.1243303 115.6639183 117.2008752 108.5871056
 116.3049774 118.2354788 107.6868193 115.8158954 116.9455281 105.3858352
 116.3446720 116.4347736 104.7728514 116.0787174 116.6297811 106.2503885
 106.3176047 114.9619150 113.1293685 106.9029484 114.2162838 113.2621590
 106.1200885 115.2723107 114.0130349 109.1714702 117.9970398 108.1456128
 108.5025077 118.4816525 107.6620168 109.0327572 118.2439618 109.0599506
 100.9093701 107.5324751 111.8498129 100.9477801 106.9988341 112.6435247
 100.4033994 107.0059956 111.2309106 108.2884464 102.3789291 115.3460671
 108.3525790 103.2404122 114.9338068 108.2251584 101.7663293 114.6133029
 107.7636736 104.4512424 118.9933705 108.3908775 104.0689501 119.6071229
 106.9064655 104.2326626 119.3589398 104.5402279 106.2588853 104.9252060
 104.8355720 105.3499531 104.8719114 103.6390315 106.2376592 104.6033062
 108.0696526 104.3344849 110.9079608 107.3483112 104.9480817 110.7687082
 108.8589782 104.8702614 110.8296254 110.8722840 101.6699276 117.1820260
 111.3957241 101.9161572 117.9446570 110.6535173 102.5019311 116.7623398
 106.2690121 103.9402950 105.0491385 105.9402827 103.0600329 104.8666491
 106.6229491 103.8850619 105.9367774 115.5169699 115.5757853 109.5586371
 115.3694662 114.6474561 109.7393941 116.3423193 115.5977944 109.0743446
 109.3831944 104.2275920 105.4166863 109.7228016 104.7561841 104.6945471
 109.8304064 104.5656326 106.1925429 112.0775385 102.6112971 114.8669931
 111.7372205 101.8120784 115.2690611 111.3714391 102.9114682 114.2946764
 112.7291856  99.6962283 113.3197254 113.5517926  99.2222762 113.1976144
 112.9729920 100.4752767 113.8195940 111.3700091 102.7250542 103.6160155
 112.0908453 103.1031795 103.1123872 110.7465395 103.4439419 103.7195133
 115.5131214 103.4295691 104.5518488 115.7294828 104.3120329 104.2507316
 115.0325281 103.0381904 103.8224130 110.2530435 106.3881404 111.1289232
 110.1075016 106.7021707 112.0213514 109.7755639 107.0066304 110.5760131
 112.1126818 103.3783952 111.1770122 112.0988387 102.4825045 110.8402420
 112.8299246 103.3854616 111.8108408 113.9652949 103.8121292 113.2223249
 113.7070727 104.7338363 113.2207580 113.4337989 103.4151727 113.9123714
 118.9099138 116.9172079 106.0013335 119.0836015 116.3518502 105.2487187
 119.4028029 117.7172974 105.8192825 104.7276097 108.9286748 114.0676894
 104.1829565 109.7046556 114.1997168 105.6055447 109.2757553 113.9096015
 111.5163714 102.2598332 106.4457692 111.6379625 101.3314978 106.6448580
 111.2265756 102.2737018 105.5336008 114.3854904  99.9453243 109.5824412
 114.4076601 100.0092576 108.6276391 114.8022963  99.1057751 109.7764918
 124.7638529 109.6808502 107.6203635 125.2069675 108.9315827 107.2222758
 123.8865039 109.6718639 107.2377367 119.8974310 116.2338844 103.1010233
 120.5925215 116.8545536 103.3197548 120.2397460 115.3834195 103.3762611
 105.5142119 108.0556645 116.9607050 104.7723855 108.2039280 117.5471681
 105.1934863 108.3164910 116.0973800 121.7965733 113.6838549 104.6297564
 122.3217057 114.0225822 103.9046884 121.7088086 112.7485565 104.4460698
 113.4806394 119.7510533 108.9892817 113.0411384 119.2586911 109.6825674
 114.2314511 119.2083500 108.7484892 105.9598733 115.9422073 108.9917445
 106.7856753 115.6425845 108.6116089 105.6092785 115.1729696 109.4407234
 110.9280266 115.2948542 111.0615119 110.3060275 114.6319247 110.7617347
 111.5985133 115.3209674 110.3788766 104.1607338 113.8608400 109.9506379
 103.3239246 113.4330574 109.7690380 104.1330983 114.0540843 110.8877170
 111.0004794 103.7730330 120.6547625 111.0492949 104.6492452 120.2725394
 111.5427308 103.2307723 120.0819268 110.4893773 113.8452465 104.5373579
 110.6381893 114.5287929 103.8840252 111.2960216 113.8257555 105.0523035
 113.2304082 104.5261702 117.4093983 112.3607391 104.8195268 117.1376572
 113.4663562 105.1102147 118.1301247 124.3071393 111.1513741 110.0126082
 125.1418285 111.5903545 110.1763642 124.4430522 110.6752394 109.1934328
 108.2446406 109.8717643 105.5434648 107.9992448 108.9679973 105.7414858
 108.4142320 109.8734793 104.6014126 115.9343116 100.7441319 114.9259404
 116.4525060 101.4802346 114.6005892 115.5798249 101.0505312 115.7606163
 107.5142053 105.6046000 103.0420810 106.8211298 105.6790355 102.3860846
 107.2693805 104.8406344 103.5642327 116.1855710  97.1641602 110.4460300
 116.4657464  96.4964791 111.0720727 116.9706317  97.3570697 109.9334964
 113.9889178 116.3400595 102.0085327 113.4163146 116.9590783 101.5555799
 114.5621972 116.8899957 102.5425249 120.0564568 105.5859235 114.1931875
 121.0081991 105.6857333 114.2144099 119.8868019 104.7937504 114.7029960
 118.0778948 102.6714819 114.3791276 117.4828880 102.9519831 113.6837765
 117.7928644 103.1608720 115.1508017 117.2086438 116.6237746 103.1393909
 118.1417111 116.5583307 103.3426784 117.1209651 117.4594012 102.6808442
 119.8374455 115.9403616 100.0997856 119.7588086 115.6063479 100.9933614
 120.6584122 116.4325384 100.0989329 122.5352646 108.8065355 113.3074175
 122.5028966 107.8681356 113.4933859 123.1453270 108.8849392 112.5740000
 114.3735977 107.6761408  99.3501379 115.3195082 107.5467616  99.4189797
 113.9950222 106.9376070  99.8270807 122.6847135 105.5976399 113.3532458
 122.1686183 104.8134855 113.1662387 123.5687083 105.2695115 113.5178978
 120.3457861  99.3417414 109.3128271 120.1482683  99.0332502 110.1971603
 120.9557567 100.0679053 109.4426201 112.5578894 105.6011385  99.2856264
 111.6510349 105.3044497  99.3618978 112.8354875 105.3041203  98.4190551
 103.4756834 106.9217748 109.7355311 103.1559619 106.0683056 109.4429685
 102.9290263 107.1366326 110.4913278 107.2536742 109.6380189 113.4524817
 107.4722752 110.5697297 113.4712851 107.6662516 109.2788163 114.2379621
 114.1740960 100.1448274 105.4400506 113.3641688  99.7995359 105.8155752
 114.8625377  99.8355818 106.0288117 116.1031508  99.2226321 107.0624802
 116.6562547  99.6421774 107.7214825 116.3401594  98.2962069 107.1047758
 111.3277679 102.4598320  99.4268244 112.1896843 102.7853218  99.6864061
 111.5128023 101.6729816  98.9141309 103.3445094 110.5420659 111.7048432
 102.6508566 110.1274612 111.1918387 104.0918085 110.5841196 111.1081851
 119.4810315 101.3326846 106.5703467 118.9008984 101.9911650 106.1881519
 119.2146248 100.5104191 106.1590884 117.9313882 100.7331904 108.7724787
 118.4313660 100.8448438 107.9639106 118.5749489 100.4292957 109.4125595
 105.2581837 110.4738913 109.5814447 105.2352525 110.5726601 108.6296330
 105.5682474 111.3204064 109.9031613 107.9169215 112.5315068 113.6961062
 108.8712468 112.4999011 113.6290993 107.7181738 112.0705692 114.5111288
 108.5068597 111.1016184 116.2631859 109.3261486 111.5960263 116.2866697
 108.7805405 110.1848152 116.2349427 118.2635193 103.4926937 105.6259815
 117.3761048 103.7776587 105.4080010 118.6789182 103.3320700 104.7787092
 121.6149729 103.5173458 109.3414154 122.3910119 104.0069910 109.6138771
 120.8897864 103.9431512 109.7986024 124.0522288 104.2301077 110.3988095
 124.6466779 103.9896813 109.6881403 124.1248872 103.5108207 111.0261631
 106.2719444 118.0734688 110.7131260 106.1373912 117.3135089 110.1469258
 105.8551506 118.7975588 110.2460048 117.4078407 113.2571611  99.7207835
 118.1114257 113.4621614 100.3365490 116.6841055 113.8248373  99.9856918
 118.2376217 109.0081473 105.8410105 118.1811418 109.4650024 105.0017737
 118.7904559 108.2472157 105.6632948 122.0481023 104.7971204 106.6660224
 121.7917957 104.3967840 107.4968432 121.4233891 105.5114998 106.5410364
 126.3593361 107.5367278 109.1731516 125.7992919 107.6060467 109.9463078
 125.7536864 107.3608262 108.4531012 109.4288570 118.9704005 110.9249702
 109.3120954 119.9149437 110.8228392 108.6081016 118.6677566 111.3135501
 119.3165104 113.6954140 101.7706295 120.1510708 113.2635339 101.5883770
 119.1549447 113.5236154 102.6983189 118.9710996 110.1986254 103.1362634
 118.9159800 110.0330525 102.1951078 118.3457052 110.9062287 103.2924824
 103.7603511 105.4354318 116.9624056 104.4062375 104.9253272 117.4511282
 103.5520662 106.1723000 117.5367482 112.2807122  99.6994363 102.7147953
 112.2685792 100.6436203 102.8716223 113.1730544  99.5164508 102.4207414
 112.2096686 118.3763253 110.8015709 111.2592317 118.3765115 110.6880081
 112.5129172 117.6295988 110.2851744 116.0959241  96.2937139 106.9693889
 115.3291637  95.7395626 107.1150572 116.5069946  96.3659008 107.8308041
 108.1001002 102.5821935 121.0599071 108.9632464 102.2258740 121.2702395
 107.5266413 102.2435830 121.7474475 122.4547365 122.9339467 101.1339936
 122.7072886 122.4120988 100.3723399 121.5171924 122.7705613 101.2366620
 122.1743654 124.8367573 103.3364311 122.0579912 124.1612476 104.0045396
 122.2845913 124.3499947 102.5196464 124.1580682 119.3267620 102.0372349
 124.3255084 120.1947856 102.4042820 123.9677851 119.4894902 101.1133638
 124.1369902 121.7825277 103.0219016 124.0169528 122.2282328 103.8604496
 123.4422491 122.1310595 102.4632554 118.6261478 121.7198261 107.5753192
 117.8292641 121.8316956 108.0936688 118.3987070 122.0584914 106.7094082
 127.4857910 123.4250245 102.4286016 126.9704533 124.1954850 102.6674403
 127.2135218 122.7515381 103.0519077 120.7778959 120.1491688 102.2841247
 119.9416272 120.4866374 102.6050522 120.6383729 120.0140668 101.3468384
 122.7532040 114.9928476 106.9920432 122.0996452 114.6777493 106.3677046
 122.7112514 114.3704216 107.7180255 123.8643245 125.2747771  98.9073724
 122.9570307 125.0437024  99.1064873 124.3614277 124.4785390  99.0947705
 115.6119649 123.0965880 107.4112916 115.4144049 122.5035240 106.6863983
 115.0566313 122.7918090 108.1288855 124.7407566 126.9169109 100.7685792
 124.3026996 126.2004968 100.3091430 125.4818007 127.1445224 100.2070884
 118.1065874 122.6229914 105.0953868 117.1763463 122.5614369 105.3123830
 118.2023346 122.1005866 104.2990509 118.0251423 119.1484726 107.6832110
 118.2858241 120.0630060 107.5741270 118.8468596 118.6809169 107.8328723
 128.8618794 125.7753491 100.3617850 128.2447964 125.0500319 100.2650903
 128.3935282 126.5362851 100.0184924 120.6517340 119.9938915  99.4839154
 119.7746806 119.8727716  99.1201401 121.1275093 119.2024993  99.2318043
 115.3796033 121.5880770 104.9252060 115.6749475 120.6791449 104.8719114
 114.4784069 121.5668510 104.6033062 117.1083875 119.2694868 105.0491385
 116.7796581 118.3892247 104.8666491 117.4623246 119.2142537 105.9367774
 120.2225698 119.5567838 105.4166863 120.5621771 120.0853759 104.6945471
 120.6697819 119.8948244 106.1925429 122.2093845 118.0542459 103.6160155
 122.9302208 118.4323712 103.1123872 121.5859150 118.7731336 103.7195133
 126.3524968 118.7587608 104.5518488 126.5688583 119.6412246 104.2507316
 125.8719035 118.3673822 103.8224130 122.3557468 117.5890250 106.4457692
 122.4773380 116.6606896 106.6448580 122.0659511 117.6028936 105.5336008
 119.0840160 125.2009560 105.5434648 118.8386202 124.2971890 105.7414858
 119.2536075 125.2026711 104.6014126 118.3535808 120.9337918 103.0420810
 117.6605053 121.0082273 102.3860846 118.1087560 120.1698261 103.5642327
 125.2129731 123.0053326  99.3501379 126.1588836 122.8759534  99.4189797
 124.8343976 122.2667988  99.8270807 123.3972649 120.9303302  99.2856264
 122.4904104 120.6336415  99.3618978 123.6748630 120.6333120  98.4190551
 125.0134714 115.4740192 105.4400506 124.2035443 115.1287277 105.8155752
 125.7019131 115.1647736 106.0288117 126.9425263 114.5518239 107.0624802
 127.4956301 114.9713692 107.7214825 127.1795349 113.6253987 107.1047758
 122.1671433 117.7890237  99.4268244 123.0290597 118.1145136  99.6864061
 122.3521777 117.0021733  98.9141309 123.1200876 115.0286280 102.7147953
 123.1079546 115.9728120 102.8716223 124.0124298 114.8456426 102.4207414
 126.9352996 111.6229057 106.9693889 126.1685391 111.0687544 107.1150572
 127.3463701 111.6950926 107.8308041  52.0693099  -6.0857510  98.5906778
  52.7071509  -6.2050762  97.8870118  51.9513942  -5.1376666  98.6494730
  48.8782805  -6.1330081  98.5268303  48.5401317  -6.2489017  97.6388838
  49.7472573  -6.5338916  98.5069309  44.7369621  -4.2794605  94.5165194
  44.1734486  -4.3704668  93.7481482  44.6222016  -5.0994701  94.9967686
  42.2834053  -2.7843413  97.3549414  43.0755345  -3.1252589  96.9395714
  42.5230703  -2.6748438  98.2751568  50.3169180  -0.6123637  89.8279659
  49.6657159  -0.0269557  89.4413673  51.1113543  -0.0817442  89.8874696
  44.2424807  -3.5234500  90.2266793  45.0155683  -4.0705513  90.0879669
  44.5950206  -2.6590251  90.4381255  46.0809849  -2.1958118 103.4333692
  45.7899715  -1.2912487 103.3180359  46.7166834  -2.1541590 104.1477762
  47.0066056  -4.8181269 100.0235052  47.6029629  -5.0425247  99.3092015
  47.0641028  -5.5596524 100.6260500  46.5791085  -7.3641834  87.8585243
  46.8316605  -7.8860313  87.0968706  45.6415644  -7.5275689  87.9611927
  51.6234367  -8.3606056  95.6659986  52.4097457  -8.7786633  95.3150403
  51.8873072  -7.4559964  95.8341635  51.7944445  -2.9233205  90.3648643
  51.1590278  -2.8498579  91.0769548  51.4641851  -2.3339607  89.6867722
  46.2987373  -5.4613728  90.0609618  46.1823632  -6.1368825  90.7290702
  46.4089633  -5.9481354  89.2441771  48.6418914  -6.0003581  93.7656307
  48.2777122  -6.5272960  94.4769229  49.4986030  -6.3905112  93.5922793
  48.2824401 -10.9713681  88.7617656  48.4498804 -10.1033445  89.1288127
  48.0921570 -10.8086400  87.8378945  51.0399734  -2.5096702 100.4283486
  50.7400458  -1.6071664 100.3199293  50.6950794  -2.7764519 101.2804639
  44.4912216  -6.0582906  96.4620191  43.5662712  -6.1906691  96.6697882
  44.7396629  -5.2788686  96.9590133  48.2613622  -8.5156024  89.7464323
  48.1413247  -8.0698973  90.5849803  47.5666211  -8.1670706  89.1877861
  41.8521027  -6.4149632  97.2963980  41.9813408  -6.1615153  98.2103391
  41.1718478  -5.8221924  96.9768635  46.0220514   4.2547618  93.3954454
  45.9444544   5.2055443  93.4742934  45.4182158   3.9093490  94.0529380
  53.9598688  -8.0434551  90.5744657  54.8716544  -7.8107164  90.3992354
  53.4508335  -7.4597506  90.0119735  52.2439456  -3.6209923 104.2105949
  52.6522812  -4.0627512 103.4660582  51.5216718  -4.1957295 104.4640142
  52.5668271  -3.0608732  97.9658238  51.9377133  -2.8963018  97.2634306
  52.1793933  -2.6467123  98.7369202  56.4457503  -2.1254294  95.3202602
  55.7608541  -1.7455393  94.7699635  56.5301352  -1.5158968  96.0534550
  53.7008434  -4.4794335 101.9197945  53.9125329  -3.8362575 101.2432326
  53.6538182  -5.3132019 101.4519875  48.1196233  -3.3234324  95.2308323
  48.5834578  -3.0446621  94.4412946  47.8553031  -4.2250880  95.0481414
  45.0120314  -3.7762843  98.1688086  45.5821671  -3.3475574  97.5305571
  45.6028425  -4.0580258  98.8672272  47.0565119  -7.2011172  92.0397888
  47.7589162  -6.7490128  92.5071815  46.7245747  -7.8427353  92.6677781
  54.8154262  -1.6022380 100.0920303  55.6371706  -2.0042193  99.8102984
  54.8116665  -1.7054146 101.0436419  48.5810866  -2.0538337 102.2481013
  48.6455298  -1.5917929 103.0839185  47.8721789  -2.6840972 102.3763323
  62.9060255  -5.2583631  96.4405274  62.1523964  -5.8276233  96.2849279
  63.0407796  -5.2920967  97.3875909  48.2958883  -0.3870229  92.1159994
  48.1604558   0.4581307  92.5444841  48.8368696  -0.1850951  91.3525927
  41.7488281  -2.8694791  92.6887919  42.2612801  -2.0751541  92.8393483
  42.4010993  -3.5668501  92.6221520  43.5583165   0.2470965  94.7710672
  43.7349794   1.1688930  94.5831656  44.3539999  -0.0670616  95.2005052
  49.9227360   0.2353337 106.2460336  49.4791214  -0.5510284 105.9281240
  50.5844573   0.4232488 105.5804226  44.6814481   1.7649139 100.7721014
  45.2321906   1.6366202  99.9998008  43.8425957   2.0644028 100.4215907
  52.0208598   0.5156137 104.2741737  52.0027073   1.3365018 103.7822006
  52.9428518   0.3910213 104.4991878  39.7137197  -4.5406137  93.4647489
  40.5512419  -4.1309128  93.2481197  39.8915465  -5.4806695  93.4347683
  51.6101630  -6.8731056  89.1531322  51.0948253  -6.1026451  89.3919710
  51.3378938  -7.5465920  89.7764384  56.5835904  -4.1198701  91.0884496
  55.8065346  -4.4587542  90.6439658  57.2627385  -4.1146078  90.4139461
  51.3987933  -9.0003964  90.9791103  51.0938068  -8.6857815  91.8301247
  52.3518375  -8.9222544  91.0218436  49.8434365  -2.8413741  92.6284057
  49.3155726  -3.5760981  92.3157295  49.3421867  -2.0639064  92.3824026
  54.8227211  -4.6464720  97.7451104  54.1650885  -3.9565459  97.8331232
  55.6267610  -4.2568288  98.0885090  53.6332669  -6.2920348  95.7955045
  54.1464551  -5.6590356  96.2976755  54.2833893  -6.8919152  95.4298405
  44.9022679 -10.1489613  89.0086554  44.0659992  -9.8114927  89.3295829
  44.7627449 -10.2840634  88.0713691  47.9886965  -5.0233530  85.6319030
  47.0814026  -5.2544277  85.8310179  48.4857997  -5.8195911  85.8193012
  50.8955044   3.6863977  88.5515716  50.2216742   3.9895674  89.1600674
  51.2820866   4.4893057  88.2021174  50.1113500  -8.8170892  98.0413386
  49.1936062  -8.5955945  97.8835074  50.5273644  -8.7424581  97.1825093
  50.8948548  -7.4179476  93.1716066  51.6420367  -6.9058079  92.8623188
  51.1640138  -7.7395424  94.0320460  49.1675198  -4.9220936  90.1543020
  48.2586417  -5.2061903  90.2515490  49.1970282  -4.5021857  89.2946327
  54.3994466  -1.3114346  93.9234188  53.9456793  -2.1523436  93.9799378
  53.7688432  -0.6752948  94.2608968  52.8427405   0.5262151  94.8584006
  53.1350379   1.0867208  94.1396372  53.3526025   0.8190712  95.6137165
  47.7160092  -7.3092315  96.2552816  47.7708702  -8.2618479  96.1795292
  46.9051294  -7.1532876  96.7394114  48.8651286  -3.3812192  87.4931099
  48.4270716  -4.0976333  87.0336736  49.6061727  -3.1536077  86.9316190
  45.6552452  -8.6915255  94.0143195  44.8420318  -8.3921085  94.4208387
  46.1511446  -9.0859566  94.7317677  47.8061030   1.3042502  95.9477459
  47.7637209   1.5303348  95.0185991  48.7223729   1.0705876  96.0963260
  56.9824401  -5.1054995  93.5507418  56.8442299  -4.9153399  92.6228607
  56.6260620  -4.3435612  94.0075469  57.0093780  -3.0378468  98.5618689
  57.4430287  -3.1303179  99.4101743  57.7225361  -3.0620967  97.9238705
  45.9226831  -1.8194469  95.7439422  46.7167429  -2.3144149  95.5421997
  45.2118523  -2.3476606  95.3807128  50.7421675   0.5623626 100.0951790
  50.7958698   1.1314563 100.8629506  49.8736457   0.7325511  99.7305827
  42.2309594  -7.6751388  91.8199175  41.3007182  -7.7366932  92.0369137
  42.3267066  -8.1975435  91.0235816  57.8709330  -2.9954767 101.0951574
  58.0645220  -2.0908957 101.3410849  57.7709948  -3.4547348 101.9290159
  52.9324439  -2.8448024 106.6692455  52.7809945  -3.0737473 105.7522539
  52.9229118  -1.8877423 106.6823800  49.7009775  -5.2716112 101.6538722
  50.6301835  -5.1204952 101.4807689  49.2800805  -5.1832091 100.7987368
  48.4998107  -1.2465447  99.4237259  48.3609192  -1.6146663 100.2963197
  47.7112703  -0.7317808  99.2521217  49.0946259   3.8543649  90.7662796
  49.2698014   3.3831692  91.5808418  48.4079047   4.4809415  90.9944056
  50.0503322  -1.8683845  96.8126097  49.7153155  -1.9083075  97.7083747
  49.5507268  -2.5339129  96.3396507  52.9862514  -4.5227810  87.0863157
  52.3691684  -5.2480982  86.9896209  52.5179002  -3.7618450  86.7430231
  54.6416645   0.1871098 104.7468937  54.5829191  -0.4969682 104.0799520
  55.0436164   0.9290088 104.2949563  43.6607344   7.0033012  97.5402656
  43.9003942   7.6351536  98.2181674  42.8176540   6.6521052  97.8268015
  54.6434052  -1.8489318 102.9782917  53.7560831  -2.1863396 103.1009315
  55.2132604  -2.5806287 103.2151682  48.1735206   2.8112134  99.9444160
  48.1005377   3.6167106 100.4563464  47.7312599   3.0104100  99.1192181
  47.9624986   2.0483904  93.4546981  47.1792507   2.5905585  93.5485206
  48.6617731   2.5657884  93.8541223  59.1251393  -6.4381101  97.7399478
  59.1141269  -5.5556385  97.3693411  58.2568772  -6.7909550  97.5454015
  50.6333889   2.7098968 102.1002318  51.3461862   3.3446433 102.0278220
  50.1423918   2.8062834 101.2842320  52.3551416  -3.3849779  93.6719610
  51.4207695  -3.2648316  93.5024314  52.5328085  -4.2877312  93.4079620
  47.8556604 -10.0004083  95.8252871  47.4854392 -10.5533043  96.5133777
  48.3515697 -10.6045950  95.2727871  55.7423968  -7.5432460  94.2069644
  56.2084420  -6.7104468  94.1329947  56.1931468  -8.0087478  94.9114903
  45.6845803   0.4593412 102.9207889  46.3855262   1.0929895 103.0737284
  45.2140918   0.8008143 102.1603529  53.8100199  -1.1988638  91.2055796
  54.0860043  -1.3132044  92.1149670  52.9404698  -1.5971153  91.1667969
  53.4847089  -6.9861981 100.7460440  52.8318539  -6.7386073 100.0912892
  53.8627469  -7.7997842 100.4122917  50.4454263   3.0497713  94.8488610
  50.6276657   2.2319368  95.3116362  51.2687249   3.2665405  94.4113500
  50.7796428   1.9765898  92.1103658  51.3084195   1.4658352  91.4973821
  51.0424648   1.6608428  92.9749191  41.2813521  -0.0070233  99.8538992
  41.8666958  -0.7526545  99.9866896  41.0838359   0.3033724 100.7375656
  44.1352176   3.0281014  94.8701434  43.4662551   3.5127142  94.3865474
  43.9965046   3.2750235  95.7844813  48.2757445   5.0624758 101.4684093
  48.8275753   5.2256379 102.2333178  48.6163638   5.6529196 100.7964118
  53.1268319  -0.1113985 107.3232747  53.6708223   0.5015974 106.8287702
  52.5455164   0.4465594 107.8399760  51.4125832   3.0106733  98.4547775
  51.2876972   2.2096473  97.9458720  52.0704923   3.5052927  97.9661745
  53.4760740   0.8115753 100.0827325  52.5291076   0.6921105 100.0105652
  53.8243514  -0.0761748 100.1653586  50.4807174   0.6068470  96.2831677
  50.3332136  -0.3214823  96.4639247  51.3060667   0.6288560  95.7988752
  54.0841296   1.4297028  97.3696550  55.0087843   1.2239890  97.2321001
  53.9156599   1.1813430  98.2785891  45.2167909  -8.5807979  97.8534539
  45.0712490  -8.2667676  98.7458821  44.7393113  -7.9623079  97.3005438
  53.8736612   1.9482696  92.7258641  54.0473489   1.3829118  91.9732494
  54.3665503   2.7483591  92.5438131  59.7276003  -5.2880881  94.3448941
  60.1707149  -6.0373556  93.9468064  58.8502513  -5.2970745  93.9622673
  54.8611784   1.2649460  89.8255540  55.5562689   1.8856153  90.0442854
  55.2034934   0.4144811  90.1007918  56.7603207  -1.2850834  91.3542870
  57.2854532  -0.9463561  90.6292190  56.6725560  -2.2203819  91.1706005
  48.4223256   2.6283239 103.4832747  48.7310383   2.3832386 104.3555447
  49.2198738   2.8329878 102.9951617  48.4443868   4.7821149  95.7138124
  48.0048858   4.2897528  96.4070980  49.1951985   4.2394117  95.4730199
  40.9236207   0.9732690  95.7162752  41.7494227   0.6736462  95.3361395
  40.5730259   0.2040312  96.1652540  45.8917740   0.3259158  97.7860425
  45.2697750  -0.3370137  97.4862653  46.5622607   0.3520290  97.1034073
  39.1244812  -1.1080984  96.6751685  38.2876721  -1.5358809  96.4935687
  39.0968458  -0.9148540  97.6122477  56.4497113  -0.6517931 106.6594068
  55.6592657  -0.6693792 106.1198568  56.2130468  -0.1129637 107.4143105
  56.5694989  -3.8025464 103.9726797  56.6192993  -3.9675457 104.9142320
  56.4608912  -4.6698205 103.5824678  45.4531247  -1.1236918  91.2618886
  45.6019368  -0.4401454  90.6085559  46.2597691  -1.1431828  91.7768342
  58.0713185  -1.3828523 104.2168818  57.7797994  -1.0198542 105.0532279
  57.4585317  -2.0961514 104.0382151  59.2708868  -3.8175643  96.7371389
  60.1055759  -3.3785839  96.9008949  59.4067996  -4.2936990  95.9179634
  56.3200374  -6.2595908 102.6848876  56.7954495  -6.0668262 101.8767728
  55.3965939  -6.2036722 102.4392260  43.2083880  -5.0971741  92.2679955
  42.9629922  -6.0009411  92.4660165  43.3779795  -5.0954590  91.3259433
  48.9526653   1.3711212  88.7330633  48.3800620   1.9901399  88.2801105
  49.5259446   1.9210574  89.2670555  52.1723913   1.6548362  89.8639216
  53.1054586   1.5893924  90.0672091  52.0847125   2.4904629  89.4053748
  54.8011929   0.9714232  86.8243163  54.7225561   0.6374096  87.7178921
  55.6221596   1.4636000  86.8234635  57.4990120  -6.1624028 100.0319482
  57.4666441  -7.1008028 100.2179166  58.1090744  -6.0839992  99.2985307
  49.3373451  -7.2927975  86.0746686  50.2832556  -7.4221767  86.1435104
  48.9587696  -8.0313313  86.5516114  63.3166670  -5.1008021  99.1725519
  64.0470059  -5.3622733  99.7333222  62.7073616  -5.8379299  99.2127587
  61.3981967  -6.9600159  99.7699970  60.6715131  -7.0944194  99.1616461
  60.9829254  -6.6523330 100.5756688  47.5216368  -9.3677999  86.0101571
  46.6147824  -9.6644886  86.0864285  47.7992349  -9.6648181  85.1435857
  42.2174216  -5.3309195 100.1770124  42.4360226  -4.3992087 100.1958158
  42.6299990  -5.6901220 100.9624928  38.3082569  -4.4268724  98.4293739
  37.6146040  -4.8414771  97.9163693  39.0555560  -4.3848187  97.8327158
  40.2219311  -4.4950470  96.3059754  40.1989999  -4.3962783  95.3541637
  40.5319948  -3.6485319  96.6276920  42.8806689  -2.4374315 100.4206368
  43.8349943  -2.4690373 100.3536300  42.6819213  -2.8983691 101.2356594
  41.2356918   3.1045304  97.4376566  41.1011386   2.3445705  96.8714564
  40.8188980   3.8286204  96.9705355  52.3715881  -1.7117772  86.4453141
  53.0751731  -1.5067770  87.0610797  51.6478530  -1.1441010  86.7102225
  53.2013691  -5.9607911  92.5655412  53.1448893  -5.5039359  91.7263044
  53.7542034  -6.7217226  92.3878254  44.3926044   4.0014621  97.6495009
  44.2758428   4.9460054  97.5473699  43.5718490   3.6988183  98.0380808
  54.2802578  -1.2735243  88.4951601  55.1148182  -1.7054045  88.3129076
  54.1186921  -1.4453229  89.4228496  53.9348471  -4.7703130  89.8607941
  53.8797274  -4.9358858  88.9196385  53.3094526  -4.0627097  90.0170131
  45.4180558   4.6542883 100.8650937  46.3207805   4.6866493 101.1817432
  45.1917928   3.7243334 100.8797273  47.1734160   3.4073870  97.5261016
  46.2229791   3.4075731  97.4125388  47.4766646   2.6606604  97.0097050
  62.9086853   9.2434408  98.5906778  63.5465263   9.1241155  97.8870118
  62.7907696  10.1915252  98.6494730  59.7176560   9.1961836  98.5268303
  59.3795071   9.0802901  97.6388838  60.5866328   8.7953001  98.5069309
  55.5763375  11.0497313  94.5165194  55.0128241  10.9587250  93.7481482
  55.4615771  10.2297217  94.9967686  60.1996343  10.3496688 104.4854508
  60.1884984   9.9549486 103.6135012  60.3616982   9.6162761 105.0788280
  53.1227807  12.5448504  97.3549414  53.9149099  12.2039329  96.9395714
  53.3624458  12.6543479  98.2751568  61.1562934  14.7168280  89.8279659
  60.5050914  15.3022361  89.4413673  61.9507297  15.2474475  89.8874696
  55.0818561  11.8057418  90.2266793  55.8549437  11.2586405  90.0879669
  55.4343960  12.6701667  90.4381255  56.9203604  13.1333800 103.4333692
  56.6293470  14.0379431 103.3180359  57.5560588  13.1750327 104.1477762
  57.8459811  10.5110648 100.0235052  58.4423383  10.2866671  99.3092015
  57.9034782   9.7695394 100.6260500  57.4184839   7.9650084  87.8585243
  57.6710360   7.4431605  87.0968706  56.4809398   7.8016229  87.9611927
  62.4628122   6.9685862  95.6659986  63.2491211   6.5505285  95.3150403
  62.7266826   7.8731954  95.8341635  62.6338199  12.4058712  90.3648643
  61.9984032  12.4793339  91.0769548  62.3035606  12.9952311  89.6867722
  67.8636549   6.9061095  96.5692965  68.5961721   6.3360312  96.8030794
  67.1075905   6.5182696  97.0099470  57.1381128   9.8678190  90.0609618
  57.0217386   9.1923093  90.7290702  57.2483388   9.3810564  89.2441771
  59.4812669   9.3288337  93.7656307  59.1170876   8.8018958  94.4769229
  60.3379785   8.9386806  93.5922793  65.3861969   0.6182669 101.0287573
  65.0545294   1.4878080 100.8048788  64.7907583   0.3018953 101.7081604
  59.1218156   4.3578236  88.7617656  59.2892558   5.2258473  89.1288127
  58.9315325   4.5205518  87.8378945  61.8793489  12.8195215 100.4283486
  61.5794212  13.7220254 100.3199293  61.5344549  12.5527398 101.2804639
  55.3305970   9.2709012  96.4620191  54.4056467   9.1385226  96.6697882
  55.5790384  10.0503231  96.9590133  65.2790633   5.3377755  98.1080923
  64.3707510   5.2693164  97.8139684  65.2278229   5.8149700  98.9362749
  59.1007377   6.8135894  89.7464323  58.9807002   7.2592945  90.5849803
  58.4059965   7.1621212  89.1877861  52.6914782   8.9142286  97.2963980
  52.8207163   9.1676765  98.2103391  52.0112233   9.5069994  96.9768635
  56.8614269  19.5839536  93.3954454  56.7838298  20.5347361  93.4742934
  56.2575912  19.2385408  94.0529380  59.3531499   6.7567401 106.0515821
  58.5764833   7.3161321 106.0418685  59.9922062   7.2424184 106.5730691
  67.1452279   3.5394194  99.8858797  66.5026659   3.8326727  99.2398592
  66.6407208   3.4247114 100.6911994  64.7992443   7.2857367  90.5744657
  65.7110299   7.5184754  90.3992354  64.2902090   7.8694411  90.0119735
  57.6077871   9.5652854 105.6133788  58.3492555  10.1037898 105.3368611
  56.9014856  10.1919143 105.7705340  63.0833211  11.7081995 104.2105949
  63.4916567  11.2664405 103.4660582  62.3610472  11.1334622 104.4640142
  59.4364281   6.6454602 101.5839506  60.2825476   7.0694015 101.7274155
  59.3762918   5.9888226 102.2778069  63.4062025  12.2683186  97.9658238
  62.7770888  12.4328900  97.2634306  63.0187687  12.6824795  98.7369202
  67.2851257  13.2037623  95.3202602  66.6002295  13.5836525  94.7699635
  67.3695106  13.8132950  96.0534550  62.5863726   4.3058970 103.2420680
  62.3424658   5.0601031 102.7054955  62.8623656   4.6844318 104.0767927
  64.5402189  10.8497582 101.9197945  64.7519084  11.4929342 101.2432326
  64.4931937  10.0159899 101.4519875  62.1428418   3.4615403  98.8234518
  61.2812897   3.7596657  99.1151255  62.1690852   3.6785802  97.8915550
  58.9589987  12.0057594  95.2308323  59.4228333  12.2845297  94.4412946
  58.6946785  11.1041038  95.0481414  55.8514068  11.5529075  98.1688086
  56.4215425  11.9816344  97.5305571  56.4422180  11.2711660  98.8672272
  57.8958873   8.1280746  92.0397888  58.5982916   8.5801790  92.5071815
  57.5639502   7.4864565  92.6677781  56.3439235   6.7192503 106.4149098
  55.7137895   7.4008783 106.6484495  56.2375323   6.6075584 105.4702236
  51.6384207   6.3864299  97.3415022  50.8483261   6.6421827  96.8655133
  52.1295454   7.2012636  97.4467062  65.6548017  13.7269538 100.0920303
  66.4765460  13.3249725  99.8102984  65.6510419  13.6237772 101.0436419
  53.5898952   6.7508878  94.2998499  52.7930116   6.8627572  94.8181994
  53.3624545   7.0895530  93.4339389  59.4204620  13.2753581 102.2481013
  59.4849053  13.7373988 103.0839185  58.7115544  12.6450946 102.3763323
  49.9221910   6.6394789  99.7730013  50.1729948   7.5241799 100.0387589
  50.4581458   6.4599391  99.0005105  73.7454010  10.0708286  96.4405274
  72.9917718   9.5015684  96.2849279  73.8801551  10.0370951  97.3875909
  59.1352638  14.9421689  92.1159994  58.9998312  15.7873224  92.5444841
  59.6762450  15.1440966  91.3525927  55.6219977   1.0213268 108.7774349
  55.2286923   0.4679467 109.4521993  56.4386118   1.3323847 109.1680866
  52.5882035  12.4597127  92.6887919  53.1006556  13.2540377  92.8393483
  53.2404748  11.7623417  92.6221520  54.3976920  15.5762883  94.7710672
  54.5743548  16.4980848  94.5831656  55.1933753  15.2621302  95.2005052
  58.5387938   2.4371148 106.3694605  59.2797652   3.0378301 106.2899068
  58.7705861   1.6948785 105.8112648  53.6829276   7.6227515 104.6472835
  53.5682791   6.7212772 104.9479934  52.8273794   7.8691212 104.2957652
  60.7621114  15.5645255 106.2460336  60.3184968  14.7781634 105.9281240
  61.4238328  15.7524406 105.5804226  55.5208235  17.0941057 100.7721014
  56.0715660  16.9658120  99.9998008  54.6819711  17.3935946 100.4215907
  62.8602352  15.8448055 104.2741737  62.8420828  16.6656936 103.7822006
  63.7822272  15.7202130 104.4991878  59.3175406  13.3592185 105.1165245
  59.8503743  12.5980473 104.8864553  58.7889487  13.0665836 105.8589400
  62.4845101  -1.5347750 100.6458887  62.1409371  -0.6446108 100.5697998
  62.8524064  -1.7246092  99.7828472  50.5530952  10.7885781  93.4647489
  51.3906174  11.1982789  93.2481197  50.7309220   9.8485223  93.4347683
  62.4495384   8.4560862  89.1531322  61.9342007   9.2265466  89.3919710
  62.1772692   7.7825998  89.7764384  60.0342495   3.3010562  94.2116561
  59.1784091   2.9117413  94.0322199  60.4469447   3.3802523  93.3516346
  61.5641642   0.8356906  98.6108120  61.0606437   0.7987041  97.7975926
  61.8572249   1.7449648  98.6704777  57.8084528   0.9195635  97.6174302
  58.6737524   0.7238444  97.2580191  57.8762036   0.6905987  98.5443659
  67.4229658  11.2093216  91.0884496  66.6459101  10.8704376  90.6439658
  68.1021139  11.2145839  90.4139461  62.2381687   6.3287954  90.9791103
  61.9331823   6.6434103  91.8301247  63.1912129   6.4069374  91.0218436
  60.6828119  12.4878177  92.6284057  60.1549481  11.7530937  92.3157295
  60.1815622  13.2652853  92.3824026  65.6620965  10.6827197  97.7451104
  65.0044639  11.3726459  97.8331232  66.4661364  11.0723629  98.0885090
  55.4146847   3.1497843  94.9890669  55.9890599   2.9273025  94.2563862
  56.0017829   3.2186538  95.7419270  64.4726424   9.0371570  95.7955045
  64.9858306   9.6701562  96.2976755  65.1227648   8.4372766  95.4298405
  55.7416434   5.1802304  89.0086554  54.9053746   5.5176991  89.3295829
  55.6021203   5.0451284  88.0713691  57.7169514   0.0239092  93.7165738
  57.0633927  -0.2911891  93.0922353  57.6749988  -0.5985167  94.4425561
  58.8280719  10.3058387  85.6319030  57.9207781  10.0747641  85.8310179
  59.3251751   9.5096007  85.8193012  61.7348798  19.0155894  88.5515716
  61.0610497  19.3187591  89.1600674  62.1214620  19.8184975  88.2021174
  60.9507255   6.5121026  98.0413386  60.0329816   6.7335973  97.8835074
  61.3667398   6.5867336  97.1825093  61.7342302   7.9112441  93.1716066
  62.4814121   8.4233839  92.8623188  62.0033892   7.5896494  94.0320460
  60.0068953  10.4070982  90.1543020  59.0980172  10.1230015  90.2515490
  60.0364036  10.8270061  89.2946327  65.2388220  14.0177572  93.9234188
  64.7850547  13.1768481  93.9799378  64.6082187  14.6538970  94.2608968
  64.1821140   4.9469558  95.1534855  63.4443896   4.4346944  95.4845098
  64.4347913   4.5069939  94.3418132  63.6821159  15.8554068  94.8584006
  63.9744134  16.4159125  94.1396372  64.1919780  16.1482629  95.6137165
  64.2832767  -2.2754190  95.7476625  64.5891644  -3.1356827  95.4602540
  65.0085372  -1.6836570  95.5475619  50.5757123   8.1276496  94.1358223
  50.3781523   7.5345857  93.4109289  50.0203787   7.8228706  94.8534161
  58.5553847   8.0199603  96.2552816  58.6102456   7.0673439  96.1795292
  57.7445049   8.1759042  96.7394114  59.7045040  11.9479726  87.4931099
  59.2664470  11.2315585  87.0336736  60.4455481  12.1755841  86.9316190
  56.4946207   6.6376662  94.0143195  55.6814072   6.9370833  94.4208387
  56.9905201   6.2432351  94.7317677  58.6454784  16.6334419  95.9477459
  58.6030963  16.8595266  95.0185991  59.5617483  16.3997794  96.0963260
  62.0920418   7.1018487 102.8458089  62.4469806   7.3289960 103.7052554
  62.7392550   7.4336864 102.2235344  67.8218155  10.2236923  93.5507418
  67.6836054  10.4138519  92.6228607  67.4654374  10.9856306  94.0075469
  55.9860281   4.2095018  99.6304430  56.6259661   4.0683777  98.9327393
  55.1537812   3.9229531  99.2543032  67.8487535  12.2913450  98.5618689
  68.2824041  12.1988739  99.4101743  68.5619116  12.2670950  97.9238705
  56.7620585  13.5097448  95.7439422  57.5561184  13.0147769  95.5421997
  56.0512278  12.9815312  95.3807128  61.5815430  15.8915544 100.0951790
  61.6352452  16.4606480 100.8629506  60.7130211  16.0617429  99.7305827
  53.0703349   7.6540530  91.8199175  52.1400937   7.5924986  92.0369137
  53.1660821   7.1316483  91.0235816  52.9888898   4.1795343  94.4077416
  53.2495715   5.0940676  94.2986577  53.8106070   3.7119786  94.5574029
  54.4613823   5.5933100 101.5776241  55.1336877   5.3850462 100.9288890
  53.6343610   5.3955186 101.1381473  68.7103084  12.3337150 101.0951574
  68.9038974  13.2382961 101.3410849  68.6103703  11.8744570 101.9290159
  60.3639395   2.2195041 103.5941902  59.7167310   2.9184991 103.5006378
  61.1340411   2.6531185 103.9618150  63.7718193  12.4843893 106.6692455
  63.6203699  12.2554445 105.7522539  63.7622873  13.4414495 106.6823800
  60.5403529  10.0575806 101.6538722  61.4695589  10.2086966 101.4807689
  60.1194559  10.1459827 100.7987368  59.3391861  14.0826470  99.4237259
  59.2002947  13.7145255 100.2963197  58.5506457  14.5974110  99.2521217
  59.9340013  19.1835567  90.7662796  60.1091769  18.7123610  91.5808418
  59.2472801  19.8101333  90.9944056  60.8897076  13.4608073  96.8126097
  60.5546909  13.4208843  97.7083747  60.3901022  12.7952789  96.3396507
  54.8641320   8.8675703 102.3378678  54.7261118   8.1355942 102.9390217
  55.7746244   8.7784603 102.0562866  63.8256268  10.8064107  87.0863157
  63.2085439  10.0810936  86.9896209  63.3572757  11.5673468  86.7430231
  57.4923621   8.5795662 101.8262358  58.2023240   7.9388855 101.7848976
  57.4492929   8.8308557 102.7488539  65.4810400  15.5163016 104.7468937
  65.4222946  14.8322236 104.0799520  65.8829918  16.2582006 104.2949563
  56.2052555   5.5660880 103.6457997  55.6689912   5.1151619 104.2979594
  55.6169263   5.7006789 102.9028462  54.5001099  22.3324930  97.5402656
  54.7397697  22.9643454  98.2181674  53.6570295  21.9812970  97.8268015
  55.6154814   5.0249532  86.2084461  54.7384280   4.9038333  85.8446708
  56.0912567   4.2335610  85.9563350  65.4827807  13.4802600 102.9782917
  64.5954586  13.1428522 103.1009315  66.0526358  12.7485631 103.2151682
  47.1356954   9.8126691  96.3025968  47.8227994   9.4988421  95.7146983
  46.9805083  10.7168056  96.0293219  51.9391676   4.7016888 100.7310992
  51.8549865   4.0942558  99.9961402  51.1174383   5.1925906 100.7320488
  59.0128960  18.1404052  99.9444160  58.9399132  18.9459024 100.4563464
  58.5706353  18.3396018  99.1192181  58.8018740  17.3775822  93.4546981
  58.0186262  17.9197502  93.5485206  59.5011485  17.8949802  93.8541223
  62.1115390   3.1870452  96.0981187  62.6084090   2.4340414  95.7782257
  61.3402372   3.2234768  95.5324396  69.9645148   8.8910817  97.7399478
  69.9535024   9.7735533  97.3693411  69.0962527   8.5382368  97.5454015
  61.4727644  18.0390886 102.1002318  62.1855616  18.6738351 102.0278220
  60.9817673  18.1354752 101.2842320  63.1945171  11.9442139  93.6719610
  62.2601450  12.0643601  93.5024314  63.3721839  11.0414606  93.4079620
  58.6950359   5.3287835  95.8252871  58.3248146   4.7758875  96.5133777
  59.1909451   4.7245968  95.2727871  66.5817722   7.7859458  94.2069644
  67.0478174   8.6187450  94.1329947  67.0325223   7.3204440  94.9114903
  56.5239557  15.7885330 102.9207889  57.2249017  16.4221813 103.0737284
  56.0534672  16.1300061 102.1603529  64.6493953  14.1303279  91.2055796
  64.9253797  14.0159874  92.1149670  63.7798452  13.7320764  91.1667969
  64.5534385   0.1540045  98.2460546  63.6397465   0.3844272  98.4142753
  64.9827486   0.2378489  99.0974578  64.3240843   8.3429937 100.7460440
  63.6712294   8.5905844 100.0912892  64.7021223   7.5294075 100.4122917
  61.2848017  18.3789630  94.8488610  61.4670412  17.5611286  95.3116362
  62.1081003  18.5957322  94.4113500  61.6190183  17.3057815  92.1103658
  62.1477949  16.7950270  91.4973821  61.8818402  16.9900346  92.9749191
  60.3728416   9.0849748 107.2326477  59.6969053   8.9843877 107.9028852
  61.1956050   8.9288962 107.6962474  52.1207275  15.3221685  99.8538992
  52.7060712  14.5765373  99.9866896  51.9232114  15.6325641 100.7375656
  54.9745931  18.3572932  94.8701434  54.3056306  18.8419060  94.3865474
  54.8358800  18.6042152  95.7844813  46.7124930   7.8927285  98.5743435
  46.7509030   7.3590876  99.3680553  46.2065223   7.3662490  97.9554412
  59.1151199  20.3916676 101.4684093  59.6669507  20.5548297 102.2333178
  59.4557393  20.9821113 100.7964118  54.0915693   2.7391825 102.0705977
  54.1557019   3.6006656 101.6583375  54.0282813   2.1265827 101.3378336
  53.5667965   4.8114958 105.7179012  54.1940004   4.4292035 106.3316536
  52.7095884   4.5929160 106.0834704  63.9662074  15.2177933 107.3232747
  64.5101978  15.8307891 106.8287702  63.3848918  15.7757511 107.8399760
  50.3433508   6.6191387  91.6497367  50.6386949   5.7102065  91.5964420
  49.4421544   6.5979126  91.3278369  62.2519587  18.3398651  98.4547775
  62.1270726  17.5388391  97.9458720  62.9098678  18.8344844  97.9661745
  53.8727755   4.6947384  97.6324915  53.1514341   5.3083351  97.4932388
  54.6621011   5.2305148  97.5541561  64.3154495  16.1407671 100.0827325
  63.3684830  16.0213022 100.0105652  64.6637268  15.2530169 100.1653586
  56.6754068   2.0301810 103.9065567  57.1988470   2.2764107 104.6691876
  56.4566402   2.8621845 103.4868704  52.0721349   4.3005485  91.7736692
  51.7434056   3.4202864  91.5911798  52.4260720   4.2453153  92.6613081
  61.3200928  15.9360387  96.2831677  61.1725891  15.0077095  96.4639247
  62.1454422  15.9580478  95.7988752  55.1863173   4.5878454  92.1412169
  55.5259245   5.1164376  91.4190778  55.6335293   4.9258861  92.9170736
  64.9235050  16.7588946  97.3696550  65.8481598  16.5531807  97.2321001
  64.7550353  16.5105347  98.2785891  57.8806613   2.9715505 101.5915237
  57.5403434   2.1723318 101.9935917  57.1745620   3.2717216 101.0192071
  58.5323085   0.0564818 100.0442560  59.3549155  -0.4174704  99.9221451
  58.7761149   0.8355301 100.5441247  57.1731320   3.0853076  90.3405462
  57.8939682   3.4634329  89.8369179  56.5496624   3.8041953  90.4440440
  61.3162443   3.7898225  91.2763794  61.5326057   4.6722863  90.9752623
  60.8356510   3.3984438  90.5469436  56.0561664   6.7483938  97.8534539
  55.9106245   7.0624241  98.7458821  55.5786868   7.3668839  97.3005438
  57.9158047   3.7386486  97.9015429  57.9019616   2.8427580  97.5647727
  58.6330475   3.7457150  98.5353715  59.7684178   4.1723826  99.9468556
  59.5101955   5.0940897  99.9452886  59.2369218   3.7754261 100.6369020
  64.7130366  17.2774614  92.7258641  64.8867244  16.7121036  91.9732494
  65.2059258  18.0775508  92.5438131  50.5307326   9.2889283 100.7922200
  49.9860794  10.0649091 100.9242475  51.4086676   9.6360087 100.6341322
  57.3194943   2.6200866  93.1702999  57.4410854   1.6917513  93.3693886
  57.0296985   2.6339552  92.2581314  60.1886133   0.3055777  96.3069719
  60.2107830   0.3695110  95.3521698  60.6054192  -0.5339714  96.5010225
  70.5669757  10.0411036  94.3448941  71.0100904   9.2918362  93.9468064
  69.6896268  10.0321173  93.9622673  65.7005539  16.5941378  89.8255540
  66.3956443  17.2148071  90.0442854  66.0428689  15.7436729  90.1007918
  51.3173348   8.4159179 103.6852357  50.5755084   8.5641814 104.2716988
  50.9966092   8.6767444 102.8219106  67.5996962  14.0441083  91.3542870
  68.1248286  14.3828356  90.6292190  67.5119314  13.1088099  91.1706005
  59.2617011  17.9575157 103.4832747  59.5704137  17.7124304 104.3555447
  60.0592493  18.1621796 102.9951617  59.2837623  20.1113067  95.7138124
  58.8442613  19.6189445  96.4070980  60.0345740  19.5686034  95.4730199
  51.7629962  16.3024608  95.7162752  52.5887982  16.0028379  95.3361395
  51.4124014  15.5332230  96.1652540  56.7311495  15.6551076  97.7860425
  56.1091504  14.9921781  97.4862653  57.4016362  15.6812208  97.1034073
  49.9638567  14.2210934  96.6751685  49.1270475  13.7933108  96.4935687
  49.9362212  14.4143377  97.6122477  56.8036022   4.1332864 107.3792931
  56.8524178   5.0094987 106.9970701  57.3458537   3.5910257 106.8064575
  67.2890868  14.6773987 106.6594068  66.4986412  14.6598126 106.1198568
  67.0524223  15.2162281 107.4143105  67.4088743  11.5266453 103.9726797
  67.4586748  11.3616461 104.9142320  67.3002666  10.6593713 103.5824678
  56.2925002  14.2054999  91.2618886  56.4413122  14.8890464  90.6085559
  57.0991445  14.1860089  91.7768342  64.6992505   7.5097382 105.2886104
  65.6002368   7.3703846 104.9970101  64.7740480   7.6751836 106.2284281
  59.0335311   4.8864236 104.1339290  58.1638620   5.1797802 103.8621879
  59.2694791   5.4704681 104.8546554  68.9106940  13.9463395 104.2168818
  68.6191748  14.3093376 105.0532279  68.2979071  13.2330403 104.0382151
  70.1102622  11.5116275  96.7371389  70.9449514  11.9506079  96.9008949
  70.2461751  11.0354928  95.9179634  67.1594128   9.0696010 102.6848876
  67.6348250   9.2623656 101.8767728  66.2359693   9.1255195 102.4392260
  54.0477635  10.2320177  92.2679955  53.8023677   9.3282507  92.4660165
  54.2173549  10.2337327  91.3259433  61.7374345   1.1043853 101.6504710
  62.2556288   1.8404880 101.3251199  61.3829477   1.4107846 102.4851469
  53.3173282   5.9648534  89.7666116  52.6242527   6.0392889  89.1106152
  53.0725034   5.2008878  90.2887633  61.9886939  -2.4755864  97.1705607
  62.2688693  -3.1432675  97.7966034  62.7737546  -2.2826769  96.6580271
  59.7920407  16.7003130  88.7330633  59.2194374  17.3193317  88.2801105
  60.3653201  17.2502491  89.2670555  65.8595797   5.9461770 100.9177182
  66.8113220   6.0459867 100.9389406  65.6899248   5.1540038 101.4275266
  63.8810177   3.0317353 101.1036583  63.2860109   3.3122366 100.4083072
  63.5959873   3.5211254 101.8753324  63.0117667  16.9840280  89.8639216
  63.9448340  16.9185841  90.0672091  62.9240880  17.8196547  89.4053748
  65.6405684  16.3006150  86.8243163  65.5619315  15.9666014  87.7178921
  66.4615350  16.7927918  86.8234635  68.3383875   9.1667889 100.0319482
  68.3060195   8.2283890 100.2179166  68.9484499   9.2451926  99.2985307
  60.1767206   8.0363942  86.0746686  61.1226310   7.9070150  86.1435104
  59.7981451   7.2978604  86.5516114  68.4878363   5.9578933 100.0777765
  67.9717412   5.1737389  99.8907694  69.3718312   5.6297649 100.2424284
  66.1489090  -0.2980052  96.0373578  65.9513911  -0.6064963  96.9216910
  66.7588796   0.4281587  96.1671507  74.1560425  10.2283896  99.1725519
  74.8863813   9.9669184  99.7333222  73.5467370   9.4912618  99.2127587
  72.2375722   8.3691759  99.7699970  71.5108885   8.2347724  99.1616461
  71.8223009   8.6768587 100.5756688  60.0605898  12.0881689 107.5347343
  60.9808908  12.2660288 107.7287389  60.0255481  11.1437734 107.3827042
  58.3610123   5.9613919  86.0101571  57.4541578   5.6647031  86.0864285
  58.6386104   5.6643737  85.1435857  49.2788063   7.2820282  96.4600617
  48.9590848   6.4285590  96.1674991  48.7321491   7.4968860  97.2158585
  53.0567971   9.9982723 100.1770124  53.2753981  10.9299831 100.1958158
  53.4693745   9.6390698 100.9624928  59.9772189   0.5050808  92.1645812
  59.1672917   0.1597893  92.5401058  60.6656606   0.1958352  92.7533424
  61.9062737  -0.4171145  93.7870109  62.4593776   0.0024309  94.4460132
  62.1432823  -1.3435397  93.8293065  57.9295836   5.5715929 109.5672873
  57.8292563   6.5210286 109.4984964  57.7117378   5.2434168 108.6948943
  57.1308908   2.8200854  86.1513550  57.9928072   3.1455752  86.4109368
  57.3159252   2.0332350  85.6386616  49.1476323  10.9023194  98.4293739
  48.4539795  10.4877146  97.9163693  49.8949314  10.9443730  97.8327158
  65.2841544   1.6929380  93.2948773  64.7040213   2.3514184  92.9126826
  65.0177477   0.8706725  92.8836191  63.7345110   1.0934438  95.4970094
  64.2344889   1.2050973  94.6884412  64.3780718   0.7895491  96.1370902
  57.7927106   9.0013068 108.3837934  57.3094188   9.8013428 108.5901824
  57.8788045   9.0121013 107.4305378  51.0613066  10.8341447  96.3059754
  51.0383754  10.9329135  95.3541637  51.3713702  11.6806598  96.6276920
  53.7200444  12.8917602 100.4206368  54.6743697  12.8601545 100.3536300
  53.5212967  12.4308226 101.2356594  54.3099826  11.4618719 102.9877166
  55.1292715  11.9562797 103.0112003  54.5836634  10.5450687 102.9594733
  64.0666422   3.8529471  92.3505121  63.1792277   4.1379121  92.1325316
  64.4820411   3.6923234  91.5032398  67.4180958   3.8775992  96.0659461
  68.1941348   4.3672444  96.3384078  66.6929092   4.3034046  96.5231330
  69.8553517   4.5903611  97.1233401  70.4498008   4.3499347  96.4126710
  69.9280100   3.8710742  97.7506938  52.0750672  18.4337222  97.4376566
  51.9405140  17.6737623  96.8714564  51.6582735  19.1578122  96.9705355
  63.2109635  13.6174145  86.4453141  63.9145486  13.8224148  87.0610797
  62.4872284  14.1850907  86.7102225  64.0407446   9.3684007  92.5655412
  63.9842647   9.8252558  91.7263044  64.5935788   8.6074691  92.3878254
  67.8512252   5.1573739  93.3905531  67.5949186   4.7570374  94.2213739
  67.2265120   5.8717533  93.2655670  72.1624590   7.8969812  95.8976823
  71.6024148   7.9663001  96.6708385  71.5568093   7.7210796  95.1776319
  55.2319798  19.3306539  97.6495009  55.1152183  20.2751971  97.5473699
  54.4112245  19.0280101  98.0380808  65.1196333  14.0556675  88.4951601
  65.9541937  13.6237873  88.3129076  64.9580676  13.8838688  89.4228496
  64.7742225  10.5588788  89.8607941  64.7191029  10.3933059  88.9196385
  64.1488280  11.2664821  90.0170131  49.5634740   5.7956852 103.6869363
  50.2093604   5.2855806 104.1756588  49.3551891   6.5325534 104.2612788
  62.0888132  12.8637700 109.1861504  62.9579292  13.0378352 108.8248138
  61.6094884  13.6832117 109.0637233  58.0838351   0.0596897  89.4393259
  58.0717020   1.0038737  89.5961530  58.9761772  -0.1232958  89.1452720
  56.2574312  19.9834801 100.8650937  57.1601559  20.0158411 101.1817432
  56.0311683  19.0535252 100.8797273  58.0127914  18.7365787  97.5261016
  57.0623546  18.7367649  97.4125388  58.3160401  17.9898522  97.0097050
  61.8990470  -3.3460326  93.6939196  61.1322866  -3.9001840  93.8395878
  62.3101175  -3.2738458  94.5553348  53.9032231   2.9424469 107.7844377
  54.7663693   2.5861274 107.9947702  53.3297642   2.6038364 108.4719782
  73.7480608  24.5726326  98.5906778  74.3859018  24.4533073  97.8870118
  73.6301451  25.5207170  98.6494730  70.5570314  24.5253754  98.5268303
  70.2188826  24.4094819  97.6388838  71.4260082  24.1244919  98.5069309
  66.4157130  26.3789230  94.5165194  65.8521995  26.2879167  93.7481482
  66.3009525  25.5589135  94.9967686  71.0390097  25.6788606 104.4854508
  71.0278738  25.2841404 103.6135012  71.2010737  24.9454678 105.0788280
  63.9621562  27.8740422  97.3549414  64.7542854  27.5331247  96.9395714
  64.2018212  27.9835397  98.2751568  71.9956689  30.0460198  89.8279659
  71.3444668  30.6314278  89.4413673  72.7901051  30.5766393  89.8874696
  65.9212316  27.1349335  90.2266793  66.6943192  26.5878322  90.0879669
  66.2737715  27.9993584  90.4381255  67.7597358  28.4625717 103.4333692
  67.4687224  29.3671348 103.3180359  68.3954343  28.5042245 104.1477762
  68.6853565  25.8402566 100.0235052  69.2817138  25.6158588  99.3092015
  68.7428537  25.0987311 100.6260500  68.2578594  23.2942001  87.8585243
  68.5104114  22.7723523  87.0968706  67.3203153  23.1308147  87.9611927
  73.3021876  22.2977780  95.6659986  74.0884966  21.8797203  95.3150403
  73.5660581  23.2023872  95.8341635  73.4731954  27.7350630  90.3648643
  72.8377787  27.8085256  91.0769548  73.1429360  28.3244229  89.6867722
  78.7030304  22.2353013  96.5692965  79.4355476  21.6652230  96.8030794
  77.9469659  21.8474613  97.0099470  67.9774882  25.1970107  90.0609618
  67.8611140  24.5215011  90.7290702  68.0877142  24.7102481  89.2441771
  70.3206423  24.6580254  93.7656307  69.9564631  24.1310875  94.4769229
  71.1773539  24.2678723  93.5922793  76.2255724  15.9474587 101.0287573
  75.8939049  16.8169998 100.8048788  75.6301337  15.6310871 101.7081604
  69.9611910  19.6870154  88.7617656  70.1286313  20.5550390  89.1288127
  69.7709079  19.8497436  87.8378945  72.7187243  28.1487133 100.4283486
  72.4187967  29.0512172 100.3199293  72.3738303  27.8819316 101.2804639
  66.1699725  24.6000930  96.4620191  65.2450221  24.4677144  96.6697882
  66.4184138  25.3795149  96.9590133  76.1184387  20.6669673  98.1080923
  75.2101265  20.5985082  97.8139684  76.0671983  21.1441618  98.9362749
  69.9401131  22.1427812  89.7464323  69.8200756  22.5884862  90.5849803
  69.2453720  22.4913129  89.1877861  63.5308536  24.2434203  97.2963980
  63.6600917  24.4968682  98.2103391  62.8505987  24.8361911  96.9768635
  67.7008023  34.9131453  93.3954454  67.6232053  35.8639278  93.4742934
  67.0969667  34.5677326  94.0529380  70.1925253  22.0859319 106.0515821
  69.4158587  22.6453239 106.0418685  70.8315816  22.5716102 106.5730691
  77.9846034  18.8686112  99.8858797  77.3420414  19.1618645  99.2398592
  77.4800962  18.7539032 100.6911994  75.6386197  22.6149285  90.5744657
  76.5504053  22.8476671  90.3992354  75.1295844  23.1986329  90.0119735
  68.4471625  24.8944772 105.6133788  69.1886310  25.4329816 105.3368611
  67.7408611  25.5211061 105.7705340  73.9226965  27.0373913 104.2105949
  74.3310321  26.5956323 103.4660582  73.2004227  26.4626540 104.4640142
  70.2758035  21.9746519 101.5839506  71.1219230  22.3985933 101.7274155
  70.2156673  21.3180144 102.2778069  74.2455780  27.5975103  97.9658238
  73.6164642  27.7620817  97.2634306  73.8581442  28.0116713  98.7369202
  78.1245012  28.5329541  95.3202602  77.4396050  28.9128442  94.7699635
  78.2088861  29.1424868  96.0534550  73.4257480  19.6350888 103.2420680
  73.1818412  20.3892948 102.7054955  73.7017411  20.0136235 104.0767927
  75.3795943  26.1789500 101.9197945  75.5912838  26.8221260 101.2432326
  75.3325691  25.3451817 101.4519875  72.9822172  18.7907321  98.8234518
  72.1206651  19.0888574  99.1151255  73.0084607  19.0077720  97.8915550
  69.7983742  27.3349511  95.2308323  70.2622087  27.6137214  94.4412946
  69.5340540  26.4332956  95.0481414  66.6907823  26.8820993  98.1688086
  67.2609180  27.3108261  97.5305571  67.2815934  26.6003578  98.8672272
  68.7352628  23.4572664  92.0397888  69.4376671  23.9093707  92.5071815
  68.4033256  22.8156483  92.6677781  67.1832989  22.0484420 106.4149098
  66.5531650  22.7300701 106.6484495  67.0769077  21.9367502 105.4702236
  62.4777962  21.7156216  97.3415022  61.6877016  21.9713745  96.8655133
  62.9689209  22.5304554  97.4467062  76.4941771  29.0561455 100.0920303
  77.3159215  28.6541643  99.8102984  76.4904174  28.9529690 101.0436419
  64.4292707  22.0800796  94.2998499  63.6323870  22.1919490  94.8181994
  64.2018299  22.4187448  93.4339389  70.2598375  28.6045499 102.2481013
  70.3242807  29.0665906 103.0839185  69.5509298  27.9742864 102.3763323
  60.7615665  21.9686707  99.7730013  61.0123703  22.8533717 100.0387589
  61.2975213  21.7891308  99.0005105  84.5847764  25.4000204  96.4405274
  83.8311473  24.8307602  96.2849279  84.7195305  25.3662868  97.3875909
  69.9746392  30.2713606  92.1159994  69.8392067  31.1165142  92.5444841
  70.5156205  30.4732884  91.3525927  66.4613732  16.3505186 108.7774349
  66.0680677  15.7971385 109.4521993  67.2779872  16.6615765 109.1680866
  63.4275790  27.7889044  92.6887919  63.9400310  28.5832295  92.8393483
  64.0798502  27.0915335  92.6221520  65.2370674  30.9054801  94.7710672
  65.4137303  31.8272765  94.5831656  66.0327508  30.5913220  95.2005052
  69.3781693  17.7663065 106.3694605  70.1191406  18.3670218 106.2899068
  69.6099616  17.0240703 105.8112648  64.5223031  22.9519432 104.6472835
  64.4076546  22.0504690 104.9479934  63.6667549  23.1983129 104.2957652
  71.6014869  30.8937173 106.2460336  71.1578723  30.1073551 105.9281240
  72.2632082  31.0816323 105.5804226  66.3601990  32.4232974 100.7721014
  66.9109415  32.2950038  99.9998008  65.5213466  32.7227863 100.4215907
  73.6996107  31.1739973 104.2741737  73.6814582  31.9948854 103.7822006
  74.6216027  31.0494048 104.4991878  70.1569161  28.6884102 105.1165245
  70.6897498  27.9272390 104.8864553  69.6283242  28.3957754 105.8589400
  73.3238856  13.7944168 100.6458887  72.9803125  14.6845810 100.5697998
  73.6917818  13.6045826  99.7828472  61.3924706  26.1177699  93.4647489
  62.2299928  26.5274707  93.2481197  61.5702974  25.1777141  93.4347683
  73.2889138  23.7852779  89.1531322  72.7735762  24.5557384  89.3919710
  73.0166447  23.1117915  89.7764384  70.8736250  18.6302480  94.2116561
  70.0177846  18.2409330  94.0322199  71.2863201  18.7094441  93.3516346
  72.4035396  16.1648823  98.6108120  71.9000192  16.1278958  97.7975926
  72.6966003  17.0741566  98.6704777  68.6478282  16.2487553  97.6174302
  69.5131279  16.0530362  97.2580191  68.7155791  16.0197905  98.5443659
  78.2623413  26.5385134  91.0884496  77.4852855  26.1996293  90.6439658
  78.9414894  26.5437757  90.4139461  73.0775442  21.6579871  90.9791103
  72.7725577  21.9726021  91.8301247  74.0305884  21.7361291  91.0218436
  71.5221874  27.8170095  92.6284057  70.9943235  27.0822854  92.3157295
  71.0209376  28.5944771  92.3824026  76.5014720  26.0119115  97.7451104
  75.8438394  26.7018377  97.8331232  77.3055119  26.4015547  98.0885090
  66.2540601  18.4789761  94.9890669  66.8284353  18.2564942  94.2563862
  66.8411584  18.5478455  95.7419270  75.3120178  24.3663488  95.7955045
  75.8252060  24.9993480  96.2976755  75.9621402  23.7664683  95.4298405
  66.5810188  20.5094222  89.0086554  65.7447500  20.8468909  89.3295829
  66.4414958  20.3743202  88.0713691  68.5563269  15.3531010  93.7165738
  67.9027681  15.0380027  93.0922353  68.5143743  14.7306750  94.4425561
  69.6674474  25.6350305  85.6319030  68.7601535  25.4039558  85.8310179
  70.1645506  24.8387924  85.8193012  72.5742553  34.3447812  88.5515716
  71.9004251  34.6479509  89.1600674  72.9608375  35.1476892  88.2021174
  71.7901009  21.8412943  98.0413386  70.8723571  22.0627890  97.8835074
  72.2061153  21.9159254  97.1825093  72.5736057  23.2404359  93.1716066
  73.3207876  23.7525756  92.8623188  72.8427646  22.9188412  94.0320460
  70.8462707  25.7362900  90.1543020  69.9373926  25.4521933  90.2515490
  70.8757791  26.1561978  89.2946327  76.0781975  29.3469489  93.9234188
  75.6244302  28.5060399  93.9799378  75.4475941  29.9830888  94.2608968
  75.0214894  20.2761475  95.1534855  74.2837651  19.7638862  95.4845098
  75.2741668  19.8361857  94.3418132  74.5214914  31.1845986  94.8584006
  74.8137888  31.7451043  94.1396372  75.0313534  31.4774547  95.6137165
  75.1226521  13.0537727  95.7476625  75.4285398  12.1935091  95.4602540
  75.8479126  13.6455348  95.5475619  61.4150878  23.4568414  94.1358223
  61.2175277  22.8637775  93.4109289  60.8597541  23.1520624  94.8534161
  69.3947601  23.3491520  96.2552816  69.4496211  22.3965357  96.1795292
  68.5838803  23.5050959  96.7394114  70.5438795  27.2771643  87.4931099
  70.1058225  26.5607502  87.0336736  71.2849236  27.5047758  86.9316190
  67.3339961  21.9668580  94.0143195  66.5207827  22.2662751  94.4208387
  67.8298955  21.5724269  94.7317677  69.4848539  31.9626337  95.9477459
  69.4424718  32.1887183  95.0185991  70.4011238  31.7289712  96.0963260
  72.9314173  22.4310405 102.8458089  73.2863560  22.6581878 103.7052554
  73.5786304  22.7628781 102.2235344  78.6611910  25.5528840  93.5507418
  78.5229808  25.7430436  92.6228607  78.3048129  26.3148223  94.0075469
  66.8254036  19.5386936  99.6304430  67.4653415  19.3975695  98.9327393
  65.9931566  19.2521449  99.2543032  78.6881289  27.6205368  98.5618689
  79.1217796  27.5280657  99.4101743  79.4012870  27.5962868  97.9238705
  67.6014340  28.8389366  95.7439422  68.3954938  28.3439686  95.5421997
  66.8906032  28.3107229  95.3807128  72.4209184  31.2207462 100.0951790
  72.4746207  31.7898398 100.8629506  71.5523966  31.3909347  99.7305827
  63.9097103  22.9832448  91.8199175  62.9794691  22.9216903  92.0369137
  64.0054575  22.4608401  91.0235816  63.8282652  19.5087261  94.4077416
  64.0889470  20.4232594  94.2986577  64.6499825  19.0411703  94.5574029
  65.3007578  20.9225018 101.5776241  65.9730631  20.7142380 100.9288890
  64.4737364  20.7247104 101.1381473  79.5496839  27.6629068 101.0951574
  79.7432729  28.5674879 101.3410849  79.4497457  27.2036487 101.9290159
  71.2033150  17.5486959 103.5941902  70.5561065  18.2476908 103.5006378
  71.9734165  17.9823103 103.9618150  74.6111948  27.8135811 106.6692455
  74.4597454  27.5846363 105.7522539  74.6016627  28.7706412 106.6823800
  71.3797284  25.3867724 101.6538722  72.3089344  25.5378883 101.4807689
  70.9588314  25.4751744 100.7987368  70.1785616  29.4118388  99.4237259
  70.0396701  29.0437172 100.2963197  69.3900212  29.9266027  99.2521217
  70.7733768  34.5127485  90.7662796  70.9485523  34.0415528  91.5808418
  70.0866556  35.1393251  90.9944056  71.7290831  28.7899991  96.8126097
  71.3940663  28.7500761  97.7083747  71.2294777  28.1244707  96.3396507
  65.7035075  24.1967621 102.3378678  65.5654873  23.4647860 102.9390217
  66.6139998  24.1076521 102.0562866  74.6650023  26.1356025  87.0863157
  74.0479193  25.4102853  86.9896209  74.1966511  26.8965385  86.7430231
  68.3317376  23.9087580 101.8262358  69.0416994  23.2680772 101.7848976
  68.2886684  24.1600475 102.7488539  76.3204154  30.8454933 104.7468937
  76.2616700  30.1614154 104.0799520  76.7223673  31.5873923 104.2949563
  67.0446309  20.8952798 103.6457997  66.5083667  20.4443536 104.2979594
  66.4563018  21.0298707 102.9028462  65.3394853  37.6616847  97.5402656
  65.5791451  38.2935371  98.2181674  64.4964049  37.3104887  97.8268015
  66.4548568  20.3541449  86.2084461  65.5778035  20.2330250  85.8446708
  66.9306322  19.5627528  85.9563350  76.3221561  28.8094517 102.9782917
  75.4348340  28.4720439 103.1009315  76.8920113  28.0777549 103.2151682
  57.9750709  25.1418609  96.3025968  58.6621748  24.8280339  95.7146983
  57.8198837  26.0459974  96.0293219  62.7785431  20.0308806 100.7310992
  62.6943619  19.4234475  99.9961402  61.9568137  20.5217824 100.7320488
  69.8522715  33.4695970  99.9444160  69.7792886  34.2750941 100.4563464
  69.4100108  33.6687936  99.1192181  69.6412494  32.7067740  93.4546981
  68.8580016  33.2489420  93.5485206  70.3405240  33.2241719  93.8541223
  72.9509145  18.5162369  96.0981187  73.4477844  17.7632332  95.7782257
  72.1796126  18.5526686  95.5324396  80.8038902  24.2202735  97.7399478
  80.7928778  25.1027450  97.3693411  79.9356281  23.8674286  97.5454015
  72.3121398  33.3682804 102.1002318  73.0249371  34.0030269 102.0278220
  71.8211427  33.4646670 101.2842320  74.0338925  27.2734056  93.6719610
  73.0995204  27.3935519  93.5024314  74.2115594  26.3706523  93.4079620
  69.5344113  20.6579752  95.8252871  69.1641901  20.1050793  96.5133777
  70.0303206  20.0537886  95.2727871  77.4211477  23.1151376  94.2069644
  77.8871929  23.9479367  94.1329947  77.8718977  22.6496357  94.9114903
  67.3633312  31.1177247 102.9207889  68.0642771  31.7513730 103.0737284
  66.8928427  31.4591979 102.1603529  75.4887708  29.4595197  91.2055796
  75.7647552  29.3451792  92.1149670  74.6192206  29.0612682  91.1667969
  75.3928139  15.4831963  98.2460546  74.4791219  15.7136190  98.4142753
  75.8221241  15.5670407  99.0974578  75.1634598  23.6721855 100.7460440
  74.5106048  23.9197762 100.0912892  75.5414978  22.8585993 100.4122917
  72.1241772  33.7081548  94.8488610  72.3064166  32.8903204  95.3116362
  72.9474758  33.9249240  94.4113500  72.4583937  32.6349733  92.1103658
  72.9871704  32.1242188  91.4973821  72.7212157  32.3192263  92.9749191
  71.2122171  24.4141666 107.2326477  70.5362808  24.3135795 107.9028852
  72.0349805  24.2580879 107.6962474  62.9601030  30.6513602  99.8538992
  63.5454467  29.9057290  99.9866896  62.7625868  30.9617559 100.7375656
  65.8139685  33.6864850  94.8701434  65.1450060  34.1710977  94.3865474
  65.6752555  33.9334070  95.7844813  57.5518685  23.2219203  98.5743435
  57.5902784  22.6882793  99.3680553  57.0458978  22.6954408  97.9554412
  69.9544954  35.7208593 101.4684093  70.5063262  35.8840215 102.2333178
  70.2951147  36.3113031 100.7964118  64.9309447  18.0683743 102.0705977
  64.9950773  18.9298574 101.6583375  64.8676567  17.4557745 101.3378336
  64.4061720  20.1406876 105.7179012  65.0333758  19.7583953 106.3316536
  63.5489638  19.9221077 106.0834704  74.8055828  30.5469851 107.3232747
  75.3495732  31.1599809 106.8287702  74.2242673  31.1049429 107.8399760
  61.1827262  21.9483305  91.6497367  61.4780703  21.0393983  91.5964420
  60.2815298  21.9271044  91.3278369  73.0913341  33.6690569  98.4547775
  72.9664481  32.8680309  97.9458720  73.7492432  34.1636762  97.9661745
  64.7121509  20.0239301  97.6324915  63.9908095  20.6375269  97.4932388
  65.5014765  20.5597066  97.5541561  75.1548249  31.4699589 100.0827325
  74.2078585  31.3504940 100.0105652  75.5031023  30.5822087 100.1653586
  67.5147823  17.3593728 103.9065567  68.0382225  17.6056024 104.6691876
  67.2960156  18.1913763 103.4868704  62.9115104  19.6297402  91.7736692
  62.5827810  18.7494781  91.5911798  63.2654475  19.5745071  92.6613081
  72.1594683  31.2652305  96.2831677  72.0119645  30.3369012  96.4639247
  72.9848176  31.2872396  95.7988752  66.0256927  19.9170372  92.1412169
  66.3653000  20.4456293  91.4190778  66.4729048  20.2550778  92.9170736
  75.7628805  32.0880864  97.3696550  76.6875352  31.8823725  97.2321001
  75.5944108  31.8397265  98.2785891  68.7200368  18.3007423 101.5915237
  68.3797188  17.5015236 101.9935917  68.0139374  18.6009134 101.0192071
  69.3716840  15.3856735 100.0442560  70.1942909  14.9117213  99.9221451
  69.6154903  16.1647219 100.5441247  68.0125074  18.4144994  90.3405462
  68.7333437  18.7926246  89.8369179  67.3890378  19.1333871  90.4440440
  72.1556197  19.1190143  91.2763794  72.3719811  20.0014781  90.9752623
  71.6750264  18.7276356  90.5469436  66.8955418  22.0775856  97.8534539
  66.7499999  22.3916159  98.7458821  66.4180622  22.6960756  97.3005438
  68.7551801  19.0678404  97.9015429  68.7413370  18.1719497  97.5647727
  69.4724229  19.0749068  98.5353715  70.6077932  19.5015744  99.9468556
  70.3495710  20.4232815  99.9452886  70.0762972  19.1046179 100.6369020
  75.5524121  32.6066531  92.7258641  75.7260998  32.0412954  91.9732494
  76.0453012  33.4067426  92.5438131  61.3701081  24.6181200 100.7922200
  60.8254549  25.3941008 100.9242475  62.2480430  24.9652005 100.6341322
  68.1588697  17.9492784  93.1702999  68.2804608  17.0209430  93.3693886
  67.8690740  17.9631470  92.2581314  71.0279888  15.6347695  96.3069719
  71.0501584  15.6987028  95.3521698  71.4447947  14.7952203  96.5010225
  81.4063512  25.3702954  94.3448941  81.8494658  24.6210279  93.9468064
  80.5290022  25.3613091  93.9622673  76.5399293  31.9233296  89.8255540
  77.2350198  32.5439988  90.0442854  76.8822443  31.0728647  90.1007918
  62.1567102  23.7451097 103.6852357  61.4148839  23.8933732 104.2716988
  61.8359847  24.0059362 102.8219106  78.4390716  29.3733001  91.3542870
  78.9642040  29.7120274  90.6292190  78.3513069  28.4380016  91.1706005
  70.1010765  33.2867075 103.4832747  70.4097892  33.0416222 104.3555447
  70.8986247  33.4913713 102.9951617  70.1231377  35.4404984  95.7138124
  69.6836367  34.9481363  96.4070980  70.8739494  34.8977952  95.4730199
  62.6023716  31.6316525  95.7162752  63.4281736  31.3320297  95.3361395
  62.2517768  30.8624148  96.1652540  67.5705249  30.9842994  97.7860425
  66.9485259  30.3213699  97.4862653  68.2410116  31.0104125  97.1034073
  60.8032321  29.5502852  96.6751685  59.9664229  29.1225026  96.4935687
  60.7755967  29.7435295  97.6122477  67.6429777  19.4624782 107.3792931
  67.6917932  20.3386904 106.9970701  68.1852291  18.9202175 106.8064575
  78.1284622  30.0065905 106.6594068  77.3380166  29.9890044 106.1198568
  77.8917977  30.5454198 107.4143105  78.2482498  26.8558371 103.9726797
  78.2980502  26.6908379 104.9142320  78.1396421  25.9885630 103.5824678
  67.1318756  29.5346917  91.2618886  67.2806877  30.2182381  90.6085559
  67.9385200  29.5152007  91.7768342  75.5386260  22.8389299 105.2886104
  76.4396123  22.6995764 104.9970101  75.6134234  23.0043754 106.2284281
  69.8729065  20.2156154 104.1339290  69.0032375  20.5089720 103.8621879
  70.1088546  20.7996599 104.8546554  79.7500694  29.2755313 104.2168818
  79.4585503  29.6385293 105.0532279  79.1372826  28.5622321 104.0382151
  80.9496377  26.8408192  96.7371389  81.7843268  27.2797997  96.9008949
  81.0855505  26.3646846  95.9179634  77.9987883  24.3987927 102.6848876
  78.4742004  24.5915574 101.8767728  77.0753448  24.4547113 102.4392260
  64.8871389  25.5612094  92.2679955  64.6417431  24.6574424  92.4660165
  65.0567304  25.5629245  91.3259433  72.5768099  16.4335771 101.6504710
  73.0950043  17.1696798 101.3251199  72.2223232  16.7399764 102.4851469
  64.1567037  21.2940452  89.7666116  63.4636282  21.3684807  89.1106152
  63.9118789  20.5300796  90.2887633  72.8280693  12.8536053  97.1705607
  73.1082447  12.1859242  97.7966034  73.6131300  13.0465149  96.6580271
  70.6314162  32.0295047  88.7330633  70.0588129  32.6485234  88.2801105
  71.2046955  32.5794409  89.2670555  76.6989552  21.2753687 100.9177182
  77.6506974  21.3751785 100.9389406  76.5293002  20.4831956 101.4275266
  74.7203931  18.3609271 101.1036583  74.1253863  18.6414283 100.4083072
  74.4353628  18.8503172 101.8753324  73.8511422  32.3132197  89.8639216
  74.7842095  32.2477759  90.0672091  73.7634634  33.1488464  89.4053748
  76.4799438  31.6298068  86.8243163  76.4013070  31.2957931  87.7178921
  77.3009105  32.1219836  86.8234635  79.1777629  24.4959807 100.0319482
  79.1453949  23.5575808 100.2179166  79.7878253  24.5743844  99.2985307
  71.0160960  23.3655860  86.0746686  71.9620065  23.2362068  86.1435104
  70.6375205  22.6270522  86.5516114  79.3272118  21.2870851 100.0777765
  78.8111167  20.5029307  99.8907694  80.2112066  20.9589567 100.2424284
  76.9882845  15.0311866  96.0373578  76.7907666  14.7226954  96.9216910
  77.5982550  15.7573505  96.1671507  84.9954179  25.5575814  99.1725519
  85.7257568  25.2961102  99.7333222  84.3861125  24.8204536  99.2127587
  83.0769476  23.6983677  99.7699970  82.3502640  23.5639641  99.1616461
  82.6616763  24.0060505 100.5756688  70.8999653  27.4173606 107.5347343
  71.8202662  27.5952205 107.7287389  70.8649236  26.4729652 107.3827042
  69.2003877  21.2905836  86.0101571  68.2935333  20.9938949  86.0864285
  69.4779858  20.9935655  85.1435857  60.1181818  22.6112200  96.4600617
  59.7984602  21.7577508  96.1674991  59.5715246  22.8260778  97.2158585
  63.8961725  25.3274641 100.1770124  64.1147735  26.2591749 100.1958158
  64.3087499  24.9682615 100.9624928  70.8165943  15.8342726  92.1645812
  70.0066671  15.4889811  92.5401058  71.5050360  15.5250270  92.7533424
  72.7456491  14.9120773  93.7870109  73.2987530  15.3316226  94.4460132
  72.9826578  13.9856521  93.8293065  68.7689591  20.9007847 109.5672873
  68.6686318  21.8502204 109.4984964  68.5511133  20.5726086 108.6948943
  67.9702662  18.1492772  86.1513550  68.8321826  18.4747670  86.4109368
  68.1553006  17.3624268  85.6386616  59.9870078  26.2315111  98.4293739
  59.2933549  25.8169064  97.9163693  60.7343069  26.2735648  97.8327158
  76.1235298  17.0221298  93.2948773  75.5433968  17.6806102  92.9126826
  75.8571231  16.1998643  92.8836191  74.5738865  16.4226356  95.4970094
  75.0738643  16.5342890  94.6884412  75.2174473  16.1187409  96.1370902
  68.6320861  24.3304985 108.3837934  68.1487942  25.1305346 108.5901824
  68.7181800  24.3412930 107.4305378  61.9006820  26.1633365  96.3059754
  61.8777508  26.2621052  95.3541637  62.2107457  27.0098516  96.6276920
  64.5594198  28.2209520 100.4206368  65.5137452  28.1893462 100.3536300
  64.3606722  27.7600144 101.2356594  65.1493580  26.7910636 102.9877166
  65.9686469  27.2854715 103.0112003  65.4230388  25.8742604 102.9594733
  74.9060177  19.1821389  92.3505121  74.0186032  19.4671039  92.1325316
  75.3214166  19.0215152  91.5032398  78.2574713  19.2067909  96.0659461
  79.0335103  19.6964362  96.3384078  77.5322847  19.6325964  96.5231330
  80.6947271  19.9195529  97.1233401  81.2891762  19.6791265  96.4126710
  80.7673855  19.2002659  97.7506938  62.9144427  33.7629140  97.4376566
  62.7798895  33.0029541  96.8714564  62.4976489  34.4870039  96.9705355
  74.0503390  28.9466063  86.4453141  74.7539240  29.1516066  87.0610797
  73.3266039  29.5142825  86.7102225  74.8801200  24.6975924  92.5655412
  74.8236402  25.1544476  91.7263044  75.4329543  23.9366609  92.3878254
  78.6906006  20.4865656  93.3905531  78.4342940  20.0862292  94.2213739
  78.0658874  21.2009450  93.2655670  83.0018344  23.2261730  95.8976823
  82.4417902  23.2954919  96.6708385  82.3961847  23.0502714  95.1776319
  66.0713553  34.6598457  97.6495009  65.9545937  35.6043889  97.5473699
  65.2505999  34.3572018  98.0380808  75.9590087  29.3848592  88.4951601
  76.7935691  28.9529791  88.3129076  75.7974430  29.2130606  89.4228496
  75.6135980  25.8880706  89.8607941  75.5584783  25.7224977  88.9196385
  74.9882035  26.5956739  90.0170131  60.4028495  21.1248770 103.6869363
  61.0487358  20.6147724 104.1756588  60.1945646  21.8617452 104.2612788
  72.9281887  28.1929618 109.1861504  73.7973046  28.3670270 108.8248138
  72.4488638  29.0124034 109.0637233  68.9232105  15.3888815  89.4393259
  68.9110775  16.3330655  89.5961530  69.8155527  15.2058960  89.1452720
  67.0968067  35.3126719 100.8650937  67.9995314  35.3450329 101.1817432
  66.8705437  34.3827170 100.8797273  68.8521669  34.0657705  97.5261016
  67.9017300  34.0659567  97.4125388  69.1554155  33.3190440  97.0097050
  72.7384224  11.9831591  93.6939196  71.9716620  11.4290078  93.8395878
  73.1494929  12.0553460  94.5553348  64.7425986  18.2716387 107.7844377
  65.6057447  17.9153192 107.9947702  64.1691396  17.9330282 108.4719782
  84.5874362  39.9018243  98.5906778  85.2252772  39.7824991  97.8870118
  84.4695205  40.8499087  98.6494730  81.3964069  39.8545672  98.5268303
  81.0582580  39.7386736  97.6388838  82.2653837  39.4536837  98.5069309
  77.2550884  41.7081148  94.5165194  76.6915750  41.6171085  93.7481482
  77.1403279  40.8881052  94.9967686  81.8783852  41.0080523 104.4854508
  81.8672493  40.6133322 103.6135012  82.0404491  40.2746596 105.0788280
  74.8015316  43.2032340  97.3549414  75.5936608  42.8623164  96.9395714
  75.0411967  43.3127315  98.2751568  82.8350443  45.3752116  89.8279659
  82.1838423  45.9606196  89.4413673  83.6294806  45.9058311  89.8874696
  78.5991113  43.7917635 103.4333692  78.3080979  44.6963266 103.3180359
  79.2348097  43.8334163 104.1477762  79.5247320  41.1694484 100.0235052
  80.1210892  40.9450506  99.3092015  79.5822291  40.4279229 100.6260500
  79.0972348  38.6233919  87.8585243  79.3497869  38.1015440  87.0968706
  78.1596907  38.4600064  87.9611927  84.1415631  37.6269697  95.6659986
  84.9278720  37.2089121  95.3150403  84.4054335  38.5315790  95.8341635
  84.3125708  43.0642548  90.3648643  83.6771541  43.1377174  91.0769548
  83.9823115  43.6536146  89.6867722  89.5424058  37.5644931  96.5692965
  90.2749230  36.9944147  96.8030794  88.7863414  37.1766531  97.0099470
  78.8168637  40.5262025  90.0609618  78.7004895  39.8506928  90.7290702
  78.9270897  40.0394399  89.2441771  81.1600178  39.9872172  93.7656307
  80.7958385  39.4602793  94.4769229  82.0167294  39.5970641  93.5922793
  87.0649478  31.2766505 101.0287573  86.7332803  32.1461916 100.8048788
  86.4695092  30.9602789 101.7081604  80.8005665  35.0162072  88.7617656
  80.9680067  35.8842308  89.1288127  80.6102834  35.1789353  87.8378945
  83.5580998  43.4779051 100.4283486  83.2581721  44.3804089 100.3199293
  83.2132057  43.2111234 101.2804639  77.0093479  39.9292847  96.4620191
  76.0843976  39.7969062  96.6697882  77.2577893  40.7087067  96.9590133
  86.9578142  35.9961591  98.1080923  86.0495019  35.9276999  97.8139684
  86.9065738  36.4733536  98.9362749  80.7794886  37.4719729  89.7464323
  80.6594511  37.9176780  90.5849803  80.0847474  37.8205047  89.1877861
  74.3702290  39.5726121  97.2963980  74.4994672  39.8260600  98.2103391
  73.6899742  40.1653829  96.9768635  81.0319008  37.4151236 106.0515821
  80.2552342  37.9745157 106.0418685  81.6709571  37.9008019 106.5730691
  88.8239788  34.1978029  99.8858797  88.1814168  34.4910562  99.2398592
  88.3194717  34.0830950 100.6911994  86.4779952  37.9441202  90.5744657
  87.3897808  38.1768589  90.3992354  85.9689599  38.5278247  90.0119735
  79.2865380  40.2236690 105.6133788  80.0280064  40.7621734 105.3368611
  78.5802365  40.8502979 105.7705340  84.7620719  42.3665830 104.2105949
  85.1704076  41.9248241 103.4660582  84.0397981  41.7918458 104.4640142
  81.1151790  37.3038437 101.5839506  81.9612985  37.7277851 101.7274155
  81.0550427  36.6472061 102.2778069  85.0849534  42.9267021  97.9658238
  84.4558397  43.0912735  97.2634306  84.6975196  43.3408630  98.7369202
  88.9638766  43.8621459  95.3202602  88.2789804  44.2420360  94.7699635
  89.0482615  44.4716785  96.0534550  84.2651235  34.9642805 103.2420680
  84.0212167  35.7184866 102.7054955  84.5411165  35.3428153 104.0767927
  86.2189698  41.5081418 101.9197945  86.4306593  42.1513178 101.2432326
  86.1719446  40.6743734 101.4519875  83.8215927  34.1199238  98.8234518
  82.9600406  34.4180492  99.1151255  83.8478361  34.3369637  97.8915550
  80.6377496  42.6641429  95.2308323  81.1015842  42.9429132  94.4412946
  80.3734294  41.7624874  95.0481414  77.5301577  42.2112910  98.1688086
  78.1002934  42.6400179  97.5305571  78.1209689  41.9295495  98.8672272
  79.5746382  38.7864581  92.0397888  80.2770425  39.2385625  92.5071815
  79.2427011  38.1448400  92.6677781  78.0226744  37.3776338 106.4149098
  77.3925404  38.0592619 106.6484495  77.9162831  37.2659420 105.4702236
  73.3171716  37.0448134  97.3415022  72.5270770  37.3005663  96.8655133
  73.8082963  37.8596472  97.4467062  87.3335526  44.3853373 100.0920303
  88.1552969  43.9833560  99.8102984  87.3297928  44.2821607 101.0436419
  75.2686461  37.4092713  94.2998499  74.4717625  37.5211407  94.8181994
  75.0412054  37.7479365  93.4339389  81.0992129  43.9337416 102.2481013
  81.1636562  44.3957824 103.0839185  80.3903053  43.3034781 102.3763323
  71.6009419  37.2978624  99.7730013  71.8517457  38.1825634 100.0387589
  72.1368967  37.1183226  99.0005105  95.4241519  40.7292122  96.4405274
  94.6705227  40.1599520  96.2849279  95.5589060  40.6954786  97.3875909
  80.8140147  45.6005524  92.1159994  80.6785821  46.4457060  92.5444841
  81.3549959  45.8024802  91.3525927  77.3007486  31.6797104 108.7774349
  76.9074432  31.1263302 109.4521993  78.1173627  31.9907682 109.1680866
  74.2669544  43.1180962  92.6887919  74.7794065  43.9124212  92.8393483
  74.9192257  42.4207252  92.6221520  76.0764429  46.2346718  94.7710672
  76.2531057  47.1564683  94.5831656  76.8721262  45.9205137  95.2005052
  80.2175447  33.0954983 106.3694605  80.9585161  33.6962136 106.2899068
  80.4493370  32.3532621 105.8112648  75.3616785  38.2811350 104.6472835
  75.2470300  37.3796607 104.9479934  74.5061303  38.5275047 104.2957652
  82.4408623  46.2229090 106.2460336  81.9972477  45.4365469 105.9281240
  83.1025837  46.4108241 105.5804226  77.1995744  47.7524892 100.7721014
  77.7503169  47.6241955  99.9998008  76.3607220  48.0519781 100.4215907
  84.5389861  46.5031890 104.2741737  84.5208336  47.3240771 103.7822006
  85.4609781  46.3785966 104.4991878  80.9962915  44.0176020 105.1165245
  81.5291252  43.2564308 104.8864553  80.4676996  43.7249672 105.8589400
  84.1632610  29.1236086 100.6458887  83.8196880  30.0137727 100.5697998
  84.5311573  28.9337743  99.7828472  72.2318461  41.4469616  93.4647489
  73.0693683  41.8566625  93.2481197  72.4096729  40.5069058  93.4347683
  84.1282893  39.1144697  89.1531322  83.6129516  39.8849302  89.3919710
  83.8560201  38.4409833  89.7764384  81.7130004  33.9594398  94.2116561
  80.8571600  33.5701248  94.0322199  82.1256956  34.0386359  93.3516346
  83.2429151  31.4940741  98.6108120  82.7393946  31.4570876  97.7975926
  83.5359758  32.4033484  98.6704777  79.4872037  31.5779471  97.6174302
  80.3525033  31.3822279  97.2580191  79.5549545  31.3489822  98.5443659
  89.1017167  41.8677052  91.0884496  88.3246610  41.5288211  90.6439658
  89.7808648  41.8729675  90.4139461  83.9169196  36.9871789  90.9791103
  83.6119332  37.3017938  91.8301247  84.8699638  37.0653209  91.0218436
  82.3615628  43.1462012  92.6284057  81.8336990  42.4114772  92.3157295
  81.8603131  43.9236689  92.3824026  87.3408474  41.3411033  97.7451104
  86.6832148  42.0310294  97.8331232  88.1448873  41.7307465  98.0885090
  77.0934356  33.8081679  94.9890669  77.6678108  33.5856860  94.2563862
  77.6805338  33.8770373  95.7419270  86.1513933  39.6955406  95.7955045
  86.6645815  40.3285397  96.2976755  86.8015157  39.0956601  95.4298405
  77.4203943  35.8386140  89.0086554  76.5841255  36.1760826  89.3295829
  77.2808712  35.7035119  88.0713691  79.3957023  30.6822928  93.7165738
  78.7421436  30.3671945  93.0922353  79.3537497  30.0598668  94.4425561
  82.6294764  37.1704861  98.0413386  81.7117325  37.3919808  97.8835074
  83.0454907  37.2451172  97.1825093  83.4129811  38.5696277  93.1716066
  84.1601630  39.0817674  92.8623188  83.6821401  38.2480329  94.0320460
  81.6856462  41.0654817  90.1543020  80.7767681  40.7813850  90.2515490
  81.7151545  41.4853896  89.2946327  86.9175729  44.6761407  93.9234188
  86.4638056  43.8352317  93.9799378  86.2869696  45.3122805  94.2608968
  85.8608649  35.6053393  95.1534855  85.1231405  35.0930779  95.4845098
  86.1135422  35.1653775  94.3418132  85.3608668  46.5137904  94.8584006
  85.6531643  47.0742961  94.1396372  85.8707289  46.8066465  95.6137165
  85.9620276  28.3829645  95.7476625  86.2679153  27.5227008  95.4602540
  86.6872881  28.9747265  95.5475619  72.2544632  38.7860332  94.1358223
  72.0569032  38.1929692  93.4109289  71.6991296  38.4812542  94.8534161
  80.2341356  38.6783438  96.2552816  80.2889965  37.7257274  96.1795292
  79.4232558  38.8342877  96.7394114  78.1733716  37.2960498  94.0143195
  77.3601581  37.5954668  94.4208387  78.6692710  36.9016187  94.7317677
  80.3242293  47.2918255  95.9477459  80.2818472  47.5179101  95.0185991
  81.2404992  47.0581629  96.0963260  83.7707927  37.7602322 102.8458089
  84.1257315  37.9873795 103.7052554  84.4180058  38.0920699 102.2235344
  89.5005664  40.8820758  93.5507418  89.3623563  41.0722354  92.6228607
  89.1441883  41.6440141  94.0075469  77.6647790  34.8678853  99.6304430
  78.3047170  34.7267612  98.9327393  76.8325321  34.5813367  99.2543032
  89.5275044  42.9497285  98.5618689  89.9611550  42.8572574  99.4101743
  90.2406625  42.9254786  97.9238705  78.4408094  44.1681284  95.7439422
  79.2348693  43.6731604  95.5421997  77.7299787  43.6399147  95.3807128
  83.2602939  46.5499379 100.0951790  83.3139961  47.1190316 100.8629506
  82.3917720  46.7201264  99.7305827  74.7490858  38.3124365  91.8199175
  73.8188446  38.2508821  92.0369137  74.8448330  37.7900318  91.0235816
  74.6676407  34.8379178  94.4077416  74.9283224  35.7524512  94.2986577
  75.4893579  34.3703621  94.5574029  76.1401332  36.2516936 101.5776241
  76.8124386  36.0434298 100.9288890  75.3131119  36.0539021 101.1381473
  90.3890593  42.9920986 101.0951574  90.5826483  43.8966796 101.3410849
  90.2891212  42.5328405 101.9290159  82.0426904  32.8778876 103.5941902
  81.3954819  33.5768826 103.5006378  82.8127920  33.3115020 103.9618150
  85.4505702  43.1427729 106.6692455  85.2991208  42.9138280 105.7522539
  85.4410382  44.0998330 106.6823800  82.2191038  40.7159641 101.6538722
  83.1483098  40.8670801 101.4807689  81.7982068  40.8043662 100.7987368
  81.0179370  44.7410306  99.4237259  80.8790456  44.3729090 100.2963197
  80.2293966  45.2557945  99.2521217  82.5684585  44.1191908  96.8126097
  82.2334418  44.0792678  97.7083747  82.0688531  43.4536624  96.3396507
  76.5428829  39.5259538 102.3378678  76.4048627  38.7939777 102.9390217
  77.4533753  39.4368439 102.0562866  85.5043777  41.4647943  87.0863157
  84.8872948  40.7394771  86.9896209  85.0360265  42.2257303  86.7430231
  79.1711130  39.2379498 101.8262358  79.8810749  38.5972690 101.7848976
  79.1280438  39.4892393 102.7488539  87.1597909  46.1746851 104.7468937
  87.1010455  45.4906071 104.0799520  87.5617427  46.9165841 104.2949563
  77.8840064  36.2244716 103.6457997  77.3477421  35.7735454 104.2979594
  77.2956772  36.3590625 102.9028462  76.1788607  52.9908765  97.5402656
  76.4185206  53.6227289  98.2181674  75.3357804  52.6396805  97.8268015
  77.2942323  35.6833367  86.2084461  76.4171789  35.5622168  85.8446708
  77.7700076  34.8919445  85.9563350  87.1615316  44.1386435 102.9782917
  86.2742095  43.8012357 103.1009315  87.7313867  43.4069466 103.2151682
  68.8144463  40.4710527  96.3025968  69.5015503  40.1572257  95.7146983
  68.6592592  41.3751891  96.0293219  73.6179185  35.3600723 100.7310992
  73.5337374  34.7526393  99.9961402  72.7961892  35.8509742 100.7320488
  80.6916469  48.7987887  99.9444160  80.6186641  49.6042859 100.4563464
  80.2493862  48.9979853  99.1192181  83.7902899  33.8454287  96.0981187
  84.2871599  33.0924249  95.7782257  83.0189881  33.8818604  95.5324396
  91.6432656  39.5494652  97.7399478  91.6322533  40.4319368  97.3693411
  90.7750036  39.1966203  97.5454015  83.1515153  48.6974721 102.1002318
  83.8643125  49.3322186 102.0278220  82.6605182  48.7938587 101.2842320
  84.8732680  42.6025974  93.6719610  83.9388959  42.7227437  93.5024314
  85.0509348  41.6998441  93.4079620  80.3737868  35.9871670  95.8252871
  80.0035655  35.4342710  96.5133777  80.8696960  35.3829803  95.2727871
  88.2605231  38.4443293  94.2069644  88.7265683  39.2771285  94.1329947
  88.7112732  37.9788275  94.9114903  78.2027066  46.4469165 102.9207889
  78.9036526  47.0805648 103.0737284  77.7322181  46.7883896 102.1603529
  86.3281462  44.7887115  91.2055796  86.6041306  44.6743709  92.1149670
  85.4585961  44.3904600  91.1667969  86.2321894  30.8123880  98.2460546
  85.3184974  31.0428107  98.4142753  86.6614995  30.8962324  99.0974578
  86.0028352  39.0013772 100.7460440  85.3499803  39.2489680 100.0912892
  86.3808732  38.1877911 100.4122917  82.9635526  49.0373466  94.8488610
  83.1457921  48.2195121  95.3116362  83.7868512  49.2541158  94.4113500
  83.2977692  47.9641651  92.1103658  83.8265458  47.4534105  91.4973821
  83.5605911  47.6484181  92.9749191  82.0515925  39.7433583 107.2326477
  81.3756562  39.6427713 107.9028852  82.8743559  39.5872797 107.6962474
  73.7994784  45.9805520  99.8538992  74.3848221  45.2349208  99.9866896
  73.6019623  46.2909477 100.7375656  68.3912439  38.5511120  98.5743435
  68.4296539  38.0174711  99.3680553  67.8852732  38.0246326  97.9554412
  80.7938708  51.0500511 101.4684093  81.3457016  51.2132132 102.2333178
  81.1344902  51.6404949 100.7964118  75.7703201  33.3975661 102.0705977
  75.8344528  34.2590492 101.6583375  75.7070322  32.7849662 101.3378336
  75.2455474  35.4698793 105.7179012  75.8727513  35.0875871 106.3316536
  74.3883393  35.2512995 106.0834704  85.6449583  45.8761768 107.3232747
  86.1889487  46.4891727 106.8287702  85.0636427  46.4341347 107.8399760
  72.0221017  37.2775222  91.6497367  72.3174458  36.3685901  91.5964420
  71.1209053  37.2562962  91.3278369  83.9307096  48.9982486  98.4547775
  83.8058235  48.1972226  97.9458720  84.5886187  49.4928680  97.9661745
  75.5515264  35.3531219  97.6324915  74.8301850  35.9667187  97.4932388
  76.3408520  35.8888984  97.5541561  85.9942004  46.7991506 100.0827325
  85.0472339  46.6796858 100.0105652  86.3424777  45.9114005 100.1653586
  78.3541577  32.6885645 103.9065567  78.8775979  32.9347942 104.6691876
  78.1353911  33.5205680 103.4868704  73.7508858  34.9589320  91.7736692
  73.4221565  34.0786699  91.5911798  74.1048229  34.9036989  92.6613081
  82.9988437  46.5944223  96.2831677  82.8513400  45.6660930  96.4639247
  83.8241931  46.6164313  95.7988752  76.8650682  35.2462290  92.1412169
  77.2046754  35.7748211  91.4190778  77.3122802  35.5842696  92.9170736
  86.6022559  47.4172781  97.3696550  87.5269107  47.2115643  97.2321001
  86.4337862  47.1689183  98.2785891  79.5594122  33.6299341 101.5915237
  79.2190943  32.8307154 101.9935917  78.8533129  33.9301051 101.0192071
  80.2110594  30.7148653 100.0442560  81.0336663  30.2409131  99.9221451
  80.4548658  31.4939137 100.5441247  78.8518829  33.7436911  90.3405462
  79.5727191  34.1218164  89.8369179  78.2284133  34.4625788  90.4440440
  82.9949952  34.4482060  91.2763794  83.2113566  35.3306698  90.9752623
  82.5144019  34.0568274  90.5469436  77.7349173  37.4067774  97.8534539
  77.5893754  37.7208077  98.7458821  77.2574377  38.0252674  97.3005438
  79.5945556  34.3970322  97.9015429  79.5807125  33.5011415  97.5647727
  80.3117984  34.4040985  98.5353715  81.4471687  34.8307662  99.9468556
  81.1889464  35.7524732  99.9452886  80.9156727  34.4338096 100.6369020
  86.3917875  47.9358449  92.7258641  86.5654753  47.3704871  91.9732494
  86.8846767  48.7359344  92.5438131  72.2094835  39.9473118 100.7922200
  71.6648303  40.7232926 100.9242475  73.0874185  40.2943922 100.6341322
  78.9982452  33.2784702  93.1702999  79.1198363  32.3501348  93.3693886
  78.7084494  33.2923388  92.2581314  81.8673642  30.9639612  96.3069719
  81.8895339  31.0278945  95.3521698  82.2841701  30.1244121  96.5010225
  92.2457266  40.6994872  94.3448941  92.6888412  39.9502197  93.9468064
  91.3683777  40.6905008  93.9622673  87.3793048  47.2525213  89.8255540
  88.0743952  47.8731906  90.0442854  87.7216198  46.4020565  90.1007918
  72.9960857  39.0743014 103.6852357  72.2542593  39.2225650 104.2716988
  72.6753601  39.3351280 102.8219106  89.2784471  44.7024919  91.3542870
  89.8035795  45.0412192  90.6292190  89.1906823  43.7671934  91.1706005
  80.9404520  48.6158992 103.4832747  81.2491646  48.3708139 104.3555447
  81.7380002  48.8205631 102.9951617  80.9625132  50.7696902  95.7138124
  80.5230122  50.2773281  96.4070980  81.7133249  50.2269870  95.4730199
  73.4417471  46.9608443  95.7162752  74.2675491  46.6612215  95.3361395
  73.0911523  46.1916065  96.1652540  78.4099004  46.3134911  97.7860425
  77.7879013  45.6505616  97.4862653  79.0803871  46.3396043  97.1034073
  71.6426076  44.8794769  96.6751685  70.8057984  44.4516944  96.4935687
  71.6149721  45.0727213  97.6122477  78.4823531  34.7916699 107.3792931
  78.5311687  35.6678822 106.9970701  79.0246045  34.2494092 106.8064575
  88.9678377  45.3357822 106.6594068  88.1773921  45.3181961 106.1198568
  88.7311732  45.8746116 107.4143105  89.0876252  42.1850289 103.9726797
  89.1374257  42.0200296 104.9142320  88.9790175  41.3177548 103.5824678
  86.3780014  38.1681217 105.2886104  87.2789877  38.0287682 104.9970101
  86.4527989  38.3335672 106.2284281  80.7122820  35.5448072 104.1339290
  79.8426129  35.8381638 103.8621879  80.9482300  36.1288517 104.8546554
  90.5894449  44.6047230 104.2168818  90.2979257  44.9677211 105.0532279
  89.9766580  43.8914239 104.0382151  91.7890131  42.1700110  96.7371389
  92.6237023  42.6089914  96.9008949  91.9249260  41.6938763  95.9179634
  88.8381637  39.7279845 102.6848876  89.3135759  39.9207491 101.8767728
  87.9147202  39.7839031 102.4392260  75.7265144  40.8904012  92.2679955
  75.4811186  39.9866342  92.4660165  75.8961058  40.8921163  91.3259433
  83.4161854  31.7627689 101.6504710  83.9343797  32.4988715 101.3251199
  83.0616986  32.0691682 102.4851469  74.9960791  36.6232370  89.7666116
  74.3030036  36.6976725  89.1106152  74.7512543  35.8592713  90.2887633
  83.6674448  28.1827971  97.1705607  83.9476202  27.5151160  97.7966034
  84.4525055  28.3757067  96.6580271  87.5383306  36.6045605 100.9177182
  88.4900729  36.7043703 100.9389406  87.3686757  35.8123874 101.4275266
  85.5597686  33.6901188 101.1036583  84.9647618  33.9706201 100.4083072
  85.2747382  34.1795089 101.8753324  84.6905176  47.6424115  89.8639216
  85.6235849  47.5769677  90.0672091  84.6028389  48.4780382  89.4053748
  87.3193193  46.9589985  86.8243163  87.2406824  46.6249849  87.7178921
  88.1402859  47.4511753  86.8234635  90.0171384  39.8251725 100.0319482
  89.9847704  38.8867725 100.2179166  90.6272008  39.9035761  99.2985307
  81.8554715  38.6947778  86.0746686  82.8013819  38.5653986  86.1435104
  81.4768960  37.9562440  86.5516114  90.1665872  36.6162768 100.0777765
  89.6504921  35.8321225  99.8907694  91.0505821  36.2881485 100.2424284
  87.8276599  30.3603784  96.0373578  87.6301420  30.0518872  96.9216910
  88.4376305  31.0865423  96.1671507  95.8347934  40.8867732  99.1725519
  96.5651322  40.6253020  99.7333222  95.2254879  40.1496454  99.2127587
  93.9163231  39.0275594  99.7699970  93.1896394  38.8931559  99.1616461
  93.5010518  39.3352423 100.5756688  81.7393407  42.7465524 107.5347343
  82.6596417  42.9244123 107.7287389  81.7042990  41.8021569 107.3827042
  80.0397632  36.6197754  86.0101571  79.1329087  36.3230867  86.0864285
  80.3173613  36.3227572  85.1435857  70.9575572  37.9404118  96.4600617
  70.6378357  37.0869426  96.1674991  70.4109000  38.1552696  97.2158585
  74.7355480  40.6566559 100.1770124  74.9541490  41.5883666 100.1958158
  75.1481254  40.2974533 100.9624928  81.6559698  31.1634644  92.1645812
  80.8460426  30.8181729  92.5401058  82.3444115  30.8542188  92.7533424
  83.5850246  30.2412691  93.7870109  84.1381285  30.6608144  94.4460132
  83.8220332  29.3148439  93.8293065  79.6083345  36.2299764 109.5672873
  79.5080072  37.1794121 109.4984964  79.3904887  35.9018003 108.6948943
  78.8096417  33.4784689  86.1513550  79.6715581  33.8039588  86.4109368
  78.9946761  32.6916185  85.6386616  70.8263832  41.5607029  98.4293739
  70.1327304  41.1460982  97.9163693  71.5736823  41.6027566  97.8327158
  86.9629053  32.3513216  93.2948773  86.3827722  33.0098020  92.9126826
  86.6964986  31.5290560  92.8836191  85.4132619  31.7518274  95.4970094
  85.9132398  31.8634808  94.6884412  86.0568227  31.4479326  96.1370902
  79.4714615  39.6596903 108.3837934  78.9881697  40.4597263 108.5901824
  79.5575554  39.6704848 107.4305378  72.7400575  41.4925283  96.3059754
  72.7171263  41.5912970  95.3541637  73.0501211  42.3390434  96.6276920
  75.3987953  43.5501438 100.4206368  76.3531206  43.5185380 100.3536300
  75.2000476  43.0892062 101.2356594  75.9887335  42.1202554 102.9877166
  76.8080224  42.6146633 103.0112003  76.2624143  41.2034522 102.9594733
  85.7453931  34.5113306  92.3505121  84.8579786  34.7962957  92.1325316
  86.1607920  34.3507070  91.5032398  89.0968467  34.5359827  96.0659461
  89.8728857  35.0256280  96.3384078  88.3716601  34.9617881  96.5231330
  91.5341026  35.2487446  97.1233401  92.1285517  35.0083182  96.4126710
  91.6067609  34.5294577  97.7506938  73.7538181  49.0921057  97.4376566
  73.6192649  48.3321458  96.8714564  73.3370244  49.8161957  96.9705355
  84.8897144  44.2757981  86.4453141  85.5932995  44.4807983  87.0610797
  84.1659793  44.8434743  86.7102225  85.7194955  40.0267842  92.5655412
  85.6630156  40.4836394  91.7263044  86.2723297  39.2658527  92.3878254
  89.5299761  35.8157574  93.3905531  89.2736695  35.4154210  94.2213739
  88.9052629  36.5301368  93.2655670  93.8412099  38.5553647  95.8976823
  93.2811656  38.6246837  96.6708385  93.2355602  38.3794632  95.1776319
  76.9107307  49.9890374  97.6495009  76.7939691  50.9335807  97.5473699
  76.0899754  49.6863936  98.0380808  86.7983842  44.7140510  88.4951601
  87.6329446  44.2821709  88.3129076  86.6368185  44.5422524  89.4228496
  86.4529734  41.2172623  89.8607941  86.3978538  41.0516895  88.9196385
  85.8275789  41.9248656  90.0170131  71.2422249  36.4540688 103.6869363
  71.8881113  35.9439642 104.1756588  71.0339400  37.1909369 104.2612788
  83.7675641  43.5221535 109.1861504  84.6366801  43.6962188 108.8248138
  83.2882393  44.3415952 109.0637233  79.7625860  30.7180732  89.4393259
  79.7504529  31.6622572  89.5961530  80.6549281  30.5350878  89.1452720
  77.9361821  50.6418636 100.8650937  78.8389068  50.6742246 101.1817432
  77.7099192  49.7119087 100.8797273  79.6915423  49.3949623  97.5261016
  78.7411054  49.3951484  97.4125388  79.9947910  48.6482357  97.0097050
  83.5777979  27.3123509  93.6939196  82.8110375  26.7581996  93.8395878
  83.9888684  27.3845378  94.5553348  75.5819740  33.6008305 107.7844377
  76.4451202  33.2445110 107.9947702  75.0085151  33.2622200 108.4719782
  95.4268117  55.2310161  98.5906778  96.0646527  55.1116909  97.8870118
  95.3088960  56.1791005  98.6494730  92.2357823  55.1837589  98.5268303
  91.8976335  55.0678654  97.6388838  93.1047591  54.7828754  98.5069309
  88.0944639  57.0373066  94.5165194  87.5309504  56.9463003  93.7481482
  87.9797034  56.2172970  94.9967686  92.7177606  56.3372441 104.4854508
  92.7066247  55.9425239 103.6135012  92.8798246  55.6038514 105.0788280
  85.6409071  58.5324257  97.3549414  86.4330363  58.1915082  96.9395714
  85.8805721  58.6419232  98.2751568  93.6744198  60.7044033  89.8279659
  93.0232177  61.2898114  89.4413673  94.4688560  61.2350228  89.8874696
  87.5999825  57.7933171  90.2266793  88.3730701  57.2462158  90.0879669
  87.9525224  58.6577420  90.4381255  89.4384867  59.1209553 103.4333692
  89.1474733  60.0255184 103.3180359  90.0741852  59.1626080 104.1477762
  90.3641074  56.4986401 100.0235052  90.9604646  56.2742424  99.3092015
  90.4216046  55.7571147 100.6260500  89.9366103  53.9525837  87.8585243
  90.1891623  53.4307358  87.0968706  88.9990662  53.7891982  87.9611927
  94.9809385  52.9561615  95.6659986  95.7672475  52.5381038  95.3150403
  95.2448090  53.8607707  95.8341635  95.1519463  58.3934465  90.3648643
  94.5165296  58.4669092  91.0769548  94.8216869  58.9828064  89.6867722
 100.3817813  52.8936848  96.5692965 101.1142985  52.3236065  96.8030794
  99.6257168  52.5058449  97.0099470  89.6562391  55.8553943  90.0609618
  89.5398649  55.1798846  90.7290702  89.7664651  55.3686317  89.2441771
  91.9993932  55.3164090  93.7656307  91.6352140  54.7894711  94.4769229
  92.8561048  54.9262559  93.5922793  97.9043233  46.6058422 101.0287573
  97.5726558  47.4753833 100.8048788  97.3088846  46.2894706 101.7081604
  91.6399419  50.3453989  88.7617656  91.8073822  51.2134226  89.1288127
  91.4496588  50.5081271  87.8378945  94.3974752  58.8070968 100.4283486
  94.0975476  59.7096007 100.3199293  94.0525812  58.5403152 101.2804639
  87.8487234  55.2584765  96.4620191  86.9237730  55.1260979  96.6697882
  88.0971647  56.0378984  96.9590133  97.7971896  51.3253509  98.1080923
  96.8888774  51.2568917  97.8139684  97.7459492  51.8025453  98.9362749
  91.6188640  52.8011647  89.7464323  91.4988265  53.2468698  90.5849803
  90.9241229  53.1496965  89.1877861  85.2096045  54.9018039  97.2963980
  85.3388426  55.1552518  98.2103391  84.5293496  55.4945747  96.9768635
  89.3795532  65.5715289  93.3954454  89.3019562  66.5223114  93.4742934
  88.7757176  65.2261161  94.0529380  91.8712762  52.7443154 106.0515821
  91.0946096  53.3037074 106.0418685  92.5103325  53.2299937 106.5730691
  99.6633543  49.5269947  99.8858797  99.0207923  49.8202480  99.2398592
  99.1588471  49.4122867 100.6911994  97.3173706  53.2733120  90.5744657
  98.2291562  53.5060507  90.3992354  96.8083353  53.8570164  90.0119735
  90.1259134  55.5528607 105.6133788  90.8673819  56.0913651 105.3368611
  89.4196120  56.1794896 105.7705340  95.6014474  57.6957748 104.2105949
  96.0097830  57.2540158 103.4660582  94.8791735  57.1210375 104.4640142
  91.9545544  52.6330355 101.5839506  92.8006739  53.0569768 101.7274155
  91.8944182  51.9763979 102.2778069  95.9243289  58.2558939  97.9658238
  95.2952151  58.4204653  97.2634306  95.5368951  58.6700548  98.7369202
  99.8032521  59.1913376  95.3202602  99.1183559  59.5712278  94.7699635
  99.8876370  59.8008703  96.0534550  95.1044989  50.2934723 103.2420680
  94.8605921  51.0476784 102.7054955  95.3804920  50.6720071 104.0767927
  97.0583452  56.8373335 101.9197945  97.2700347  57.4805095 101.2432326
  97.0113200  56.0035652 101.4519875  94.6609681  49.4491156  98.8234518
  93.7994160  49.7472410  99.1151255  94.6872116  49.6661555  97.8915550
  91.4771251  57.9933347  95.2308323  91.9409596  58.2721050  94.4412946
  91.2128049  57.0916791  95.0481414  88.3695332  57.5404828  98.1688086
  88.9396689  57.9692097  97.5305571  88.9603443  57.2587413  98.8672272
  90.4140137  54.1156499  92.0397888  91.1164180  54.5677543  92.5071815
  90.0820765  53.4740318  92.6677781  88.8620498  52.7068256 106.4149098
  88.2319159  53.3884536 106.6484495  88.7556586  52.5951337 105.4702236
  84.1565471  52.3740052  97.3415022  83.3664525  52.6297580  96.8655133
  84.6476718  53.1888390  97.4467062  98.1729280  59.7145291 100.0920303
  98.9946724  59.3125478  99.8102984  98.1691683  59.6113525 101.0436419
  86.1080216  52.7384631  94.2998499  85.3111379  52.8503325  94.8181994
  85.8805808  53.0771283  93.4339389  91.9385884  59.2629334 102.2481013
  92.0030316  59.7249741 103.0839185  91.2296807  58.6326699 102.3763323
  82.4403174  52.6270542  99.7730013  82.6911212  53.5117552 100.0387589
  82.9762722  52.4475144  99.0005105 106.2635273  56.0584039  96.4405274
 105.5098982  55.4891437  96.2849279 106.3982814  56.0246704  97.3875909
  91.6533901  60.9297442  92.1159994  91.5179576  61.7748977  92.5444841
  92.1943714  61.1316719  91.3525927  88.1401241  47.0089021 108.7774349
  87.7468186  46.4555220 109.4521993  88.9567381  47.3199600 109.1680866
  85.1063299  58.4472880  92.6887919  85.6187819  59.2416130  92.8393483
  85.7586011  57.7499170  92.6221520  86.9158183  61.5638636  94.7710672
  87.0924812  62.4856601  94.5831656  87.7115017  61.2497055  95.2005052
  91.0569202  48.4246901 106.3694605  91.7978915  49.0254054 106.2899068
  91.2887125  47.6824538 105.8112648  86.2010540  53.6103268 104.6472835
  86.0864055  52.7088525 104.9479934  85.3455058  53.8566965 104.2957652
  93.2802378  61.5521008 106.2460336  92.8366232  60.7657387 105.9281240
  93.9419591  61.7400159 105.5804226  88.0389499  63.0816810 100.7721014
  88.5896924  62.9533873  99.9998008  87.2000975  63.3811699 100.4215907
  95.3783616  61.8323808 104.2741737  95.3602091  62.6532689 103.7822006
  96.3003536  61.7077883 104.4991878  91.8356670  59.3467938 105.1165245
  92.3685007  58.5856226 104.8864553  91.3070751  59.0541589 105.8589400
  95.0026365  44.4528003 100.6458887  94.6590634  45.3429645 100.5697998
  95.3705327  44.2629661  99.7828472  83.0712215  56.7761534  93.4647489
  83.9087437  57.1858542  93.2481197  83.2490483  55.8360976  93.4347683
  94.9676647  54.4436615  89.1531322  94.4523271  55.2141219  89.3919710
  94.6953956  53.7701751  89.7764384  92.5523759  49.2886315  94.2116561
  91.6965355  48.8993166  94.0322199  92.9650710  49.3678276  93.3516346
  94.0822905  46.8232659  98.6108120  93.5787701  46.7862794  97.7975926
  94.3753512  47.7325401  98.6704777  90.3265791  46.9071388  97.6174302
  91.1918788  46.7114197  97.2580191  90.3943300  46.6781740  98.5443659
  99.9410922  57.1968969  91.0884496  99.1640364  56.8580129  90.6439658
 100.6202403  57.2021592  90.4139461  94.7562951  52.3163707  90.9791103
  94.4513086  52.6309856  91.8301247  95.7093393  52.3945127  91.0218436
  93.2009382  58.4753930  92.6284057  92.6730744  57.7406690  92.3157295
  92.6996885  59.2528606  92.3824026  98.1802229  56.6702951  97.7451104
  97.5225903  57.3602212  97.8331232  98.9842628  57.0599382  98.0885090
  87.9328110  49.1373596  94.9890669  88.5071862  48.9148778  94.2563862
  88.5199093  49.2062291  95.7419270  96.9907687  55.0247323  95.7955045
  97.5039569  55.6577315  96.2976755  97.6408911  54.4248519  95.4298405
  88.2597697  51.1678057  89.0086554  87.4235009  51.5052744  89.3295829
  88.1202467  51.0327037  88.0713691  90.2350778  46.0114845  93.7165738
  89.5815190  45.6963862  93.0922353  90.1931252  45.3890586  94.4425561
  91.3461983  56.2934140  85.6319030  90.4389044  56.0623394  85.8310179
  91.8433015  55.4971760  85.8193012  94.2530062  65.0031647  88.5515716
  93.5791760  65.3063344  89.1600674  94.6395884  65.8060728  88.2021174
  93.4688518  52.4996779  98.0413386  92.5511080  52.7211726  97.8835074
  93.8848662  52.5743089  97.1825093  94.2523566  53.8988194  93.1716066
  94.9995385  54.4109592  92.8623188  94.5215155  53.5772247  94.0320460
  92.5250216  56.3946735  90.1543020  91.6161435  56.1105768  90.2515490
  92.5545300  56.8145814  89.2946327  97.7569484  60.0053325  93.9234188
  97.3031811  59.1644235  93.9799378  97.1263450  60.6414723  94.2608968
  96.7002403  50.9345311  95.1534855  95.9625160  50.4222697  95.4845098
  96.9529177  50.4945692  94.3418132  96.2002423  61.8429821  94.8584006
  96.4925397  62.4034878  94.1396372  96.7101043  62.1358382  95.6137165
  96.8014030  43.7121563  95.7476625  97.1072907  42.8518926  95.4602540
  97.5266635  44.3039183  95.5475619  83.0938386  54.1152249  94.1358223
  82.8962786  53.5221610  93.4109289  82.5385050  53.8104459  94.8534161
  91.0735110  54.0075356  96.2552816  91.1283720  53.0549192  96.1795292
  90.2626312  54.1634795  96.7394114  92.2226304  57.9355479  87.4931099
  91.7845734  57.2191338  87.0336736  92.9636745  58.1631594  86.9316190
  89.0127470  52.6252415  94.0143195  88.1995336  52.9246586  94.4208387
  89.5086464  52.2308104  94.7317677  91.1636048  62.6210172  95.9477459
  91.1212227  62.8471019  95.0185991  92.0798747  62.3873547  96.0963260
  94.6101682  53.0894240 102.8458089  94.9651069  53.3165713 103.7052554
  95.2573813  53.4212617 102.2235344 100.3399419  56.2112676  93.5507418
 100.2017317  56.4014272  92.6228607  99.9835638  56.9732059  94.0075469
  88.5041545  50.1970771  99.6304430  89.1440924  50.0559530  98.9327393
  87.6719075  49.9105284  99.2543032 100.3668798  58.2789203  98.5618689
 100.8005305  58.1864492  99.4101743 101.0800379  58.2546703  97.9238705
  89.2801849  59.4973201  95.7439422  90.0742447  59.0023522  95.5421997
  88.5693541  58.9691065  95.3807128  94.0996693  61.8791297 100.0951790
  94.1533715  62.4482233 100.8629506  93.2311475  62.0493182  99.7305827
  85.5884612  53.6416283  91.8199175  84.6582200  53.5800739  92.0369137
  85.6842084  53.1192236  91.0235816  85.5070161  50.1671096  94.4077416
  85.7676979  51.0816429  94.2986577  86.3287334  49.6995539  94.5574029
  86.9795087  51.5808853 101.5776241  87.6518140  51.3726215 100.9288890
  86.1524873  51.3830939 101.1381473 101.2284348  58.3212904 101.0951574
 101.4220238  59.2258714 101.3410849 101.1284966  57.8620323 101.9290159
  92.8820659  48.2070794 103.5941902  92.2348574  48.9060744 103.5006378
  93.6521674  48.6406938 103.9618150  96.2899457  58.4719646 106.6692455
  96.1384963  58.2430198 105.7522539  96.2804136  59.4290248 106.6823800
  93.0584793  56.0451559 101.6538722  93.9876853  56.1962719 101.4807689
  92.6375823  56.1335580 100.7987368  91.8573125  60.0702223  99.4237259
  91.7184210  59.7021008 100.2963197  91.0687721  60.5849863  99.2521217
  93.4078340  59.4483826  96.8126097  93.0728172  59.4084596  97.7083747
  92.9082286  58.7828542  96.3396507  87.3822584  54.8551456 102.3378678
  87.2442382  54.1231695 102.9390217  88.2927507  54.7660356 102.0562866
  96.3437532  56.7939860  87.0863157  95.7266702  56.0686689  86.9896209
  95.8754020  57.5549221  86.7430231  90.0104884  54.5671415 101.8262358
  90.7204503  53.9264608 101.7848976  89.9674193  54.8184310 102.7488539
  97.9991663  61.5038769 104.7468937  97.9404209  60.8197989 104.0799520
  98.4011182  62.2457759 104.2949563  88.7233818  51.5536633 103.6457997
  88.1871175  51.1027372 104.2979594  88.1350527  51.6882542 102.9028462
  87.0182362  68.3200683  97.5402656  87.2578960  68.9519207  98.2181674
  86.1751558  67.9688723  97.8268015  88.1336077  51.0125285  86.2084461
  87.2565544  50.8914086  85.8446708  88.6093830  50.2211363  85.9563350
  98.0009070  59.4678353 102.9782917  97.1135849  59.1304275 103.1009315
  98.5707622  58.7361384 103.2151682  84.4572940  50.6892641 100.7310992
  84.3731128  50.0818311  99.9961402  83.6355646  51.1801659 100.7320488
  91.5310224  64.1279805  99.9444160  91.4580395  64.9334777 100.4563464
  91.0887617  64.3271771  99.1192181  91.3200003  63.3651575  93.4546981
  90.5367525  63.9073255  93.5485206  92.0192749  63.8825555  93.8541223
  94.6296654  49.1746205  96.0981187  95.1265353  48.4216167  95.7782257
  93.8583635  49.2110521  95.5324396 102.4826411  54.8786570  97.7399478
 102.4716287  55.7611286  97.3693411 101.6143790  54.5258121  97.5454015
  93.9908907  64.0266639 102.1002318  94.7036880  64.6614104 102.0278220
  93.4998936  64.1230505 101.2842320  95.7126434  57.9317892  93.6719610
  94.7782713  58.0519354  93.5024314  95.8903103  57.0290359  93.4079620
  91.2131622  51.3163588  95.8252871  90.8429410  50.7634628  96.5133777
  91.7090715  50.7121721  95.2727871  99.0998986  53.7735211  94.2069644
  99.5659438  54.6063203  94.1329947  99.5506486  53.3080193  94.9114903
  89.0420821  61.7761083 102.9207889  89.7430280  62.4097566 103.0737284
  88.5715936  62.1175814 102.1603529  97.1675217  60.1179032  91.2055796
  97.4435061  60.0035627  92.1149670  96.2979715  59.7196517  91.1667969
  97.0715648  46.1415798  98.2460546  96.1578728  46.3720025  98.4142753
  97.5008750  46.2254242  99.0974578  96.8422107  54.3305690 100.7460440
  96.1893557  54.5781597 100.0912892  97.2202487  53.5169828 100.4122917
  93.8029281  64.3665383  94.8488610  93.9851675  63.5487039  95.3116362
  94.6262267  64.5833075  94.4113500  94.1371446  63.2933568  92.1103658
  94.6659213  62.7826023  91.4973821  94.3999666  62.9776099  92.9749191
  92.8909680  55.0725501 107.2326477  92.2150317  54.9719630 107.9028852
  93.7137314  54.9164715 107.6962474  84.6388539  61.3097438  99.8538992
  85.2241976  60.5641126  99.9866896  84.4413377  61.6201394 100.7375656
  87.4927194  64.3448685  94.8701434  86.8237569  64.8294813  94.3865474
  87.3540064  64.5917905  95.7844813  79.2306194  53.8803038  98.5743435
  79.2690293  53.3466629  99.3680553  78.7246487  53.3538243  97.9554412
  91.6332463  66.3792429 101.4684093  92.1850771  66.5424050 102.2333178
  91.9738656  66.9696866 100.7964118  86.6096956  48.7267578 102.0705977
  86.6738282  49.5882409 101.6583375  86.5464076  48.1141580 101.3378336
  86.0849229  50.7990711 105.7179012  86.7121267  50.4167788 106.3316536
  85.2277147  50.5804913 106.0834704  96.4843337  61.2053686 107.3232747
  97.0283241  61.8183644 106.8287702  95.9030182  61.7633264 107.8399760
  82.8614771  52.6067140  91.6497367  83.1568212  51.6977818  91.5964420
  81.9602807  52.5854879  91.3278369  94.7700850  64.3274404  98.4547775
  94.6451989  63.5264144  97.9458720  95.4279941  64.8220597  97.9661745
  86.3909018  50.6823137  97.6324915  85.6695604  51.2959104  97.4932388
  87.1802274  51.2180901  97.5541561  96.8335758  62.1283424 100.0827325
  95.8866094  62.0088775 100.0105652  97.1818532  61.2405922 100.1653586
  89.1935332  48.0177563 103.9065567  89.7169734  48.2639860 104.6691876
  88.9747665  48.8497598 103.4868704  84.5902613  50.2881238  91.7736692
  84.2615319  49.4078617  91.5911798  84.9441984  50.2328906  92.6613081
  93.8382192  61.9236140  96.2831677  93.6907154  60.9952848  96.4639247
  94.6635685  61.9456231  95.7988752  87.7044436  50.5754207  92.1412169
  88.0440509  51.1040129  91.4190778  88.1516556  50.9134614  92.9170736
  97.4416314  62.7464699  97.3696550  98.3662861  62.5407560  97.2321001
  97.2731617  62.4981100  98.2785891  90.3987877  48.9591258 101.5915237
  90.0584697  48.1599071 101.9935917  89.6926883  49.2592969 101.0192071
  91.0504349  46.0440571 100.0442560  91.8730418  45.5701049  99.9221451
  91.2942412  46.8231054 100.5441247  89.6912583  49.0728829  90.3405462
  90.4120946  49.4510082  89.8369179  89.0677887  49.7917706  90.4440440
  93.8343706  49.7773978  91.2763794  94.0507320  50.6598616  90.9752623
  93.3537773  49.3860191  90.5469436  88.5742927  52.7359691  97.8534539
  88.4287508  53.0499994  98.7458821  88.0968131  53.3544592  97.3005438
  90.4339310  49.7262239  97.9015429  90.4200879  48.8303333  97.5647727
  91.1511738  49.7332903  98.5353715  92.2865441  50.1599579  99.9468556
  92.0283219  51.0816650  99.9452886  91.7550481  49.7630014 100.6369020
  97.2311630  63.2650367  92.7258641  97.4048507  62.6996789  91.9732494
  97.7240521  64.0651261  92.5438131  83.0488590  55.2765036 100.7922200
  82.5042058  56.0524844 100.9242475  83.9267939  55.6235840 100.6341322
  89.8376206  48.6076620  93.1702999  89.9592117  47.6793266  93.3693886
  89.5478249  48.6215305  92.2581314  92.7067397  46.2931530  96.3069719
  92.7289093  46.3570863  95.3521698  93.1235456  45.4536039  96.5010225
 103.0851021  56.0286790  94.3448941 103.5282167  55.2794115  93.9468064
 102.2077531  56.0196926  93.9622673  98.2186802  62.5817131  89.8255540
  98.9137707  63.2023824  90.0442854  98.5609952  61.7312482  90.1007918
  83.8354611  54.4034932 103.6852357  83.0936347  54.5517567 104.2716988
  83.5147356  54.6643198 102.8219106 100.1178225  60.0316836  91.3542870
 100.6429549  60.3704109  90.6292190 100.0300578  59.0963852  91.1706005
  91.7798274  63.9450910 103.4832747  92.0885401  63.7000057 104.3555447
  92.5773756  64.1497549 102.9951617  91.8018886  66.0988820  95.7138124
  91.3623876  65.6065198  96.4070980  92.5527003  65.5561787  95.4730199
  89.2492758  61.6426829  97.7860425  88.6272768  60.9797534  97.4862653
  89.9197625  61.6687961  97.1034073  89.3217286  50.1208617 107.3792931
  89.3705441  50.9970740 106.9970701  89.8639800  49.5786010 106.8064575
  99.8072131  60.6649740 106.6594068  99.0167675  60.6473879 106.1198568
  99.5705486  61.2038034 107.4143105  99.9270007  57.5142207 103.9726797
  99.9768011  57.3492214 104.9142320  99.8183930  56.6469466 103.5824678
  88.8106265  60.1930752  91.2618886  88.9594386  60.8766217  90.6085559
  89.6172709  60.1735842  91.7768342  97.2173769  53.4973135 105.2886104
  98.1183632  53.3579599 104.9970101  97.2921743  53.6627589 106.2284281
  91.5516574  50.8739989 104.1339290  90.6819884  51.1673555 103.8621879
  91.7876055  51.4580434 104.8546554 101.4288203  59.9339148 104.2168818
 101.1373012  60.2969129 105.0532279 100.8160335  59.2206156 104.0382151
 102.6283886  57.4992028  96.7371389 103.4630777  57.9381832  96.9008949
 102.7643014  57.0230681  95.9179634  99.6775392  55.0571763 102.6848876
 100.1529513  55.2499409 101.8767728  98.7540957  55.1130948 102.4392260
  86.5658898  56.2195930  92.2679955  86.3204940  55.3158260  92.4660165
  86.7354813  56.2213080  91.3259433  94.2555608  47.0919606 101.6504710
  94.7737552  47.8280633 101.3251199  93.9010741  47.3983600 102.4851469
  85.8354546  51.9524287  89.7666116  85.1423791  52.0268642  89.1106152
  85.5906298  51.1884631  90.2887633  94.5068202  43.5119889  97.1705607
  94.7869956  42.8443078  97.7966034  95.2918809  43.7048984  96.6580271
  92.3101671  62.6878883  88.7330633  91.7375638  63.3069070  88.2801105
  92.8834464  63.2378244  89.2670555  98.3777061  51.9337523 100.9177182
  99.3294483  52.0335620 100.9389406  98.2080511  51.1415791 101.4275266
  96.3991440  49.0193106 101.1036583  95.8041372  49.2998119 100.4083072
  96.1141137  49.5087007 101.8753324  95.5298931  62.9716033  89.8639216
  96.4629604  62.9061594  90.0672091  95.4422143  63.8072300  89.4053748
 100.8565138  55.1543642 100.0319482 100.8241458  54.2159643 100.2179166
 101.4665762  55.2327679  99.2985307  92.6948469  54.0239695  86.0746686
  93.6407574  53.8945904  86.1435104  92.3162714  53.2854357  86.5516114
 101.0059627  51.9454686 100.0777765 100.4898675  51.1613142  99.8907694
 101.8899575  51.6173402 100.2424284  98.6670354  45.6895701  96.0373578
  98.4695175  45.3810790  96.9216910  99.2770059  46.4157340  96.1671507
 106.6741688  56.2159649  99.1725519 107.4045077  55.9544937  99.7333222
 106.0648634  55.4788371  99.2127587 104.7556985  54.3567512  99.7699970
 104.0290149  54.2223477  99.1616461 104.3404272  54.6644340 100.5756688
  92.5787162  58.0757442 107.5347343  93.4990171  58.2536041 107.7287389
  92.5436745  57.1313487 107.3827042  90.8791386  51.9489672  86.0101571
  89.9722842  51.6522785  86.0864285  91.1567367  51.6519490  85.1435857
  81.7969327  53.2696035  96.4600617  81.4772111  52.4161343  96.1674991
  81.2502755  53.4844613  97.2158585  85.5749234  55.9858476 100.1770124
  85.7935244  56.9175584 100.1958158  85.9875008  55.6266451 100.9624928
  92.4953452  46.4926562  92.1645812  91.6854180  46.1473646  92.5401058
  93.1837869  46.1834105  92.7533424  94.4244000  45.5704608  93.7870109
  94.9775039  45.9900062  94.4460132  94.6614087  44.6440356  93.8293065
  90.4477100  51.5591682 109.5672873  90.3473827  52.5086039 109.4984964
  90.2298642  51.2309921 108.6948943  89.6490171  48.8076607  86.1513550
  90.5109335  49.1331505  86.4109368  89.8340515  48.0208103  85.6386616
  97.8022807  47.6805133  93.2948773  97.2221477  48.3389938  92.9126826
  97.5358740  46.8582478  92.8836191  96.2526374  47.0810191  95.4970094
  96.7526152  47.1926726  94.6884412  96.8961982  46.7771244  96.1370902
  90.3108370  54.9888821 108.3837934  89.8275451  55.7889181 108.5901824
  90.3969309  54.9996766 107.4305378  83.5794329  56.8217200  96.3059754
  83.5565017  56.9204888  95.3541637  83.8894966  57.6682351  96.6276920
  86.2381707  58.8793355 100.4206368  87.1924961  58.8477298 100.3536300
  86.0394231  58.4183979 101.2356594  86.8281089  57.4494472 102.9877166
  87.6473978  57.9438550 103.0112003  87.1017897  56.5326440 102.9594733
  96.5847685  49.8405224  92.3505121  95.6973541  50.1254874  92.1325316
  97.0001675  49.6798987  91.5032398  99.9362222  49.8651745  96.0659461
 100.7122612  50.3548197  96.3384078  99.2110356  50.2909799  96.5231330
 102.3734780  50.5779364  97.1233401 102.9679271  50.3375100  96.4126710
 102.4461364  49.8586495  97.7506938  96.5588709  55.3559760  92.5655412
  96.5023911  55.8128311  91.7263044  97.1117052  54.5950444  92.3878254
 100.3693515  51.1449492  93.3905531 100.1130449  50.7446127  94.2213739
  99.7446383  51.8593286  93.2655670 104.6805853  53.8845565  95.8976823
 104.1205411  53.9538754  96.6708385 104.0749356  53.7086550  95.1776319
  87.7501062  65.3182292  97.6495009  87.6333446  66.2627724  97.5473699
  86.9293508  65.0155854  98.0380808  97.6377596  60.0432428  88.4951601
  98.4723200  59.6113626  88.3129076  97.4761939  59.8714441  89.4228496
  97.2923489  56.5464541  89.8607941  97.2372292  56.3808812  88.9196385
  96.6669544  57.2540574  90.0170131  82.0816004  51.7832605 103.6869363
  82.7274867  51.2731559 104.1756588  81.8733155  52.5201287 104.2612788
  94.6069396  58.8513453 109.1861504  95.4760555  59.0254105 108.8248138
  94.1276147  59.6707870 109.0637233  90.6019614  46.0472650  89.4393259
  90.5898284  46.9914490  89.5961530  91.4943036  45.8642795  89.1452720
  88.7755576  65.9710554 100.8650937  89.6782823  66.0034164 101.1817432
  88.5492946  65.0411005 100.8797273  90.5309178  64.7241540  97.5261016
  89.5804809  64.7243402  97.4125388  90.8341664  63.9774275  97.0097050
  94.4171733  42.6415427  93.6939196  93.6504129  42.0873913  93.8395878
  94.8282438  42.7137295  94.5553348  86.4213495  48.9300222 107.7844377
  87.2844956  48.5737027 107.9947702  85.8478905  48.5914117 108.4719782
 106.2661871  70.5602079  98.5906778 106.9040281  70.4408826  97.8870118
 106.1482714  71.5082923  98.6494730 103.0751578  70.5129507  98.5268303
 102.7370089  70.3970572  97.6388838 103.9441346  70.1120672  98.5069309
  98.9338393  72.3664983  94.5165194  98.3703259  72.2754920  93.7481482
  98.8190788  71.5464888  94.9967686 103.5571361  71.6664359 104.4854508
 103.5460001  71.2717157 103.6135012 103.7192000  70.9330431 105.0788280
  96.4802825  73.8616175  97.3549414  97.2724117  73.5207000  96.9395714
  96.7199476  73.9711150  98.2751568 104.5137952  76.0335951  89.8279659
 103.8625932  76.6190031  89.4413673 105.3082315  76.5642146  89.8874696
  98.4393579  73.1225088  90.2266793  99.2124455  72.5754075  90.0879669
  98.7918978  73.9869338  90.4381255 100.2778622  74.4501470 103.4333692
  99.9868488  75.3547101 103.3180359 100.9135606  74.4917998 104.1477762
 101.2034829  71.8278319 100.0235052 101.7998401  71.6034341  99.3092015
 101.2609800  71.0863064 100.6260500 100.7759857  69.2817754  87.8585243
 101.0285378  68.7599276  87.0968706  99.8384416  69.1183900  87.9611927
 105.8203140  68.2853533  95.6659986 106.6066229  67.8672956  95.3150403
 106.0841844  69.1899625  95.8341635 105.9913217  73.7226383  90.3648643
 105.3559050  73.7961010  91.0769548 105.6610624  74.3119982  89.6867722
 111.2211567  68.2228766  96.5692965 111.9536739  67.6527983  96.8030794
 110.4650923  67.8350366  97.0099470 100.4956146  71.1845860  90.0609618
 100.3792404  70.5090764  90.7290702 100.6058406  70.6978234  89.2441771
 102.8387687  70.6456007  93.7656307 102.4745894  70.1186628  94.4769229
 103.6954803  70.2554476  93.5922793 108.7436987  61.9350340 101.0287573
 108.4120312  62.8045751 100.8048788 108.1482601  61.6186624 101.7081604
 102.4793174  65.6745907  88.7617656 102.6467576  66.5426143  89.1288127
 102.2890343  65.8373189  87.8378945 105.2368507  74.1362886 100.4283486
 104.9369230  75.0387925 100.3199293 104.8919566  73.8695069 101.2804639
  98.6880988  70.5876683  96.4620191  97.7631485  70.4552897  96.6697882
  98.9365402  71.3670902  96.9590133 108.6365651  66.6545426  98.1080923
 107.7282528  66.5860835  97.8139684 108.5853247  67.1317371  98.9362749
 102.4582395  68.1303565  89.7464323 102.3382020  68.5760615  90.5849803
 101.7634983  68.4788882  89.1877861  96.0489799  70.2309956  97.2963980
  96.1782181  70.4844435  98.2103391  95.3687251  70.8237664  96.9768635
 100.2189287  80.9007206  93.3954454 100.1413316  81.8515031  93.4742934
  99.6150930  80.5553079  94.0529380 102.7106517  68.0735072 106.0515821
 101.9339851  68.6328992 106.0418685 103.3497080  68.5591855 106.5730691
 110.5027297  64.8561865  99.8858797 109.8601677  65.1494398  99.2398592
 109.9982226  64.7414785 100.6911994 108.1567461  68.6025038  90.5744657
 109.0685317  68.8352425  90.3992354 107.6477108  69.1862082  90.0119735
 100.9652889  70.8820525 105.6133788 101.7067573  71.4205569 105.3368611
 100.2589874  71.5086814 105.7705340 106.4408228  73.0249666 104.2105949
 106.8491585  72.5832076 103.4660582 105.7185490  72.4502293 104.4640142
 102.7939299  67.9622272 101.5839506 103.6400494  68.3861686 101.7274155
 102.7337936  67.3055897 102.2778069 106.7637043  73.5850856  97.9658238
 106.1345906  73.7496570  97.2634306 106.3762705  73.9992466  98.7369202
 110.6426275  74.5205294  95.3202602 109.9577313  74.9004195  94.7699635
 110.7270124  75.1300621  96.0534550 105.9438744  65.6226641 103.2420680
 105.6999676  66.3768701 102.7054955 106.2198674  66.0011988 104.0767927
 107.8977207  72.1665253 101.9197945 108.1094102  72.8097013 101.2432326
 107.8506955  71.3327570 101.4519875 105.5003436  64.7783074  98.8234518
 104.6387915  65.0764327  99.1151255 105.5265870  64.9953473  97.8915550
 102.3165005  73.3225264  95.2308323 102.7803351  73.6012967  94.4412946
 102.0521803  72.4208709  95.0481414  99.2089086  72.8696746  98.1688086
  99.7790443  73.2984014  97.5305571  99.7997198  72.5879331  98.8672272
 101.2533891  69.4448417  92.0397888 101.9557934  69.8969460  92.5071815
 100.9214520  68.8032236  92.6677781  99.7014253  68.0360173 106.4149098
  99.0712913  68.7176454 106.6484495  99.5950340  67.9243255 105.4702236
  94.9959225  67.7031969  97.3415022  94.2058279  67.9589498  96.8655133
  95.4870472  68.5180307  97.4467062 109.0123035  75.0437209 100.0920303
 109.8340478  74.6417396  99.8102984 109.0085437  74.9405443 101.0436419
  96.9473970  68.0676549  94.2998499  96.1505134  68.1795243  94.8181994
  96.7199563  68.4063201  93.4339389 102.7779638  74.5921252 102.2481013
 102.8424071  75.0541659 103.0839185 102.0690562  73.9618617 102.3763323
  93.2796928  67.9562460  99.7730013  93.5304966  68.8409470 100.0387589
  93.8156476  67.7767061  99.0005105 117.1029028  71.3875957  96.4405274
 116.3492736  70.8183355  96.2849279 117.2376569  71.3538621  97.3875909
 102.4927656  76.2589359  92.1159994 102.3573330  77.1040895  92.5444841
 103.0337468  76.4608637  91.3525927  98.9794995  62.3380939 108.7774349
  98.5861941  61.7847138 109.4521993  99.7961136  62.6491518 109.1680866
  95.9457053  73.7764797  92.6887919  96.4581574  74.5708048  92.8393483
  96.5979766  73.0791088  92.6221520  97.7551938  76.8930554  94.7710672
  97.9318566  77.8148518  94.5831656  98.5508771  76.5788973  95.2005052
 101.8962956  63.7538818 106.3694605 102.6372670  64.3545971 106.2899068
 102.1280879  63.0116456 105.8112648  97.0404294  68.9395185 104.6472835
  96.9257809  68.0380443 104.9479934  96.1848812  69.1858882 104.2957652
 104.1196132  76.8812926 106.2460336 103.6759986  76.0949304 105.9281240
 104.7813346  77.0692076 105.5804226  98.8783253  78.4108727 100.7721014
  99.4290678  78.2825791  99.9998008  98.0394729  78.7103616 100.4215907
 106.2177370  77.1615726 104.2741737 106.1995845  77.9824607 103.7822006
 107.1397290  77.0369801 104.4991878 102.6750424  74.6759855 105.1165245
 103.2078761  73.9148143 104.8864553 102.1464505  74.3833507 105.8589400
 105.8420119  59.7819921 100.6458887 105.4984389  60.6721563 100.5697998
 106.2099082  59.5921579  99.7828472  93.9105970  72.1053452  93.4647489
  94.7481192  72.5150460  93.2481197  94.0884238  71.1652894  93.4347683
 105.8070402  69.7728532  89.1531322 105.2917025  70.5433137  89.3919710
 105.5347710  69.0993668  89.7764384 103.3917513  64.6178233  94.2116561
 102.5359109  64.2285083  94.0322199 103.8044465  64.6970194  93.3516346
 104.9216660  62.1524576  98.6108120 104.4181455  62.1154711  97.7975926
 105.2147266  63.0617319  98.6704777 101.1659546  62.2363306  97.6174302
 102.0312542  62.0406115  97.2580191 101.2337054  62.0073658  98.5443659
 110.7804676  72.5260887  91.0884496 110.0034119  72.1872046  90.6439658
 111.4596157  72.5313510  90.4139461 105.5956705  67.6455624  90.9791103
 105.2906841  67.9601774  91.8301247 106.5487147  67.7237044  91.0218436
 104.0403137  73.8045848  92.6284057 103.5124499  73.0698607  92.3157295
 103.5390640  74.5820524  92.3824026 109.0195983  71.9994868  97.7451104
 108.3619657  72.6894130  97.8331232 109.8236382  72.3891300  98.0885090
  98.7721865  64.4665514  94.9890669  99.3465616  64.2440695  94.2563862
  99.3592847  64.5354208  95.7419270 107.8301442  70.3539241  95.7955045
 108.3433324  70.9869233  96.2976755 108.4802666  69.7540436  95.4298405
  99.0991452  66.4969975  89.0086554  98.2628764  66.8344662  89.3295829
  98.9596221  66.3618955  88.0713691 101.0744532  61.3406763  93.7165738
 100.4208945  61.0255780  93.0922353 101.0325006  60.7182503  94.4425561
 102.1855737  71.6226058  85.6319030 101.2782799  71.3915311  85.8310179
 102.6826769  70.8263677  85.8193012 105.0923816  80.3323565  88.5515716
 104.4185515  80.6355262  89.1600674 105.4789638  81.1352645  88.2021174
 104.3082273  67.8288696  98.0413386 103.3904834  68.0503643  97.8835074
 104.7242416  67.9035007  97.1825093 105.0917320  69.2280112  93.1716066
 105.8389139  69.7401509  92.8623188 105.3608910  68.9064165  94.0320460
 103.3643971  71.7238653  90.1543020 102.4555190  71.4397686  90.2515490
 103.3939054  72.1437731  89.2946327 108.5963238  75.3345242  93.9234188
 108.1425565  74.4936152  93.9799378 107.9657205  75.9706641  94.2608968
 107.5396158  66.2637228  95.1534855 106.8018914  65.7514615  95.4845098
 107.7922931  65.8237610  94.3418132 107.0396177  77.1721739  94.8584006
 107.3319152  77.7326796  94.1396372 107.5494798  77.4650300  95.6137165
 107.6407785  59.0413480  95.7476625 107.9466662  58.1810844  95.4602540
 108.3660390  59.6331101  95.5475619  93.9332141  69.4444167  94.1358223
  93.7356541  68.8513528  93.4109289  93.3778805  69.1396377  94.8534161
 101.9128865  69.3367273  96.2552816 101.9677474  68.3841110  96.1795292
 101.1020067  69.4926713  96.7394114 103.0620058  73.2647396  87.4931099
 102.6239488  72.5483255  87.0336736 103.8030499  73.4923511  86.9316190
  99.8521225  67.9544333  94.0143195  99.0389090  68.2538504  94.4208387
 100.3480219  67.5600022  94.7317677 102.0029802  77.9502090  95.9477459
 101.9605981  78.1762936  95.0185991 102.9192501  77.7165465  96.0963260
 105.4495436  68.4186158 102.8458089 105.8044824  68.6457631 103.7052554
 106.0967567  68.7504534 102.2235344 111.1793173  71.5404594  93.5507418
 111.0411072  71.7306190  92.6228607 110.8229392  72.3023976  94.0075469
  99.3435299  65.5262689  99.6304430  99.9834679  65.3851448  98.9327393
  98.5112830  65.2397202  99.2543032 111.2062553  73.6081121  98.5618689
 111.6399059  73.5156410  99.4101743 111.9194133  73.5838621  97.9238705
 100.1195603  74.8265119  95.7439422 100.9136202  74.3315439  95.5421997
  99.4087296  74.2982982  95.3807128 104.9390448  77.2083215 100.0951790
 104.9927470  77.7774151 100.8629506 104.0705229  77.3785100  99.7305827
  96.4278367  68.9708201  91.8199175  95.4975955  68.9092656  92.0369137
  96.5235839  68.4484154  91.0235816  96.3463916  65.4963014  94.4077416
  96.6070733  66.4108347  94.2986577  97.1681088  65.0287456  94.5574029
  97.8188841  66.9100771 101.5776241  98.4911894  66.7018133 100.9288890
  96.9918628  66.7122857 101.1381473 112.0678102  73.6504821 101.0951574
 112.2613992  74.5550632 101.3410849 111.9678721  73.1912240 101.9290159
 103.7214413  63.5362712 103.5941902 103.0742328  64.2352661 103.5006378
 104.4915428  63.9698856 103.9618150 107.1293211  73.8011564 106.6692455
 106.9778717  73.5722116 105.7522539 107.1197890  74.7582165 106.6823800
 103.8978547  71.3743477 101.6538722 104.8270607  71.5254636 101.4807689
 103.4769577  71.4627497 100.7987368 102.6966879  75.3994141  99.4237259
 102.5577965  75.0312925 100.2963197 101.9081475  75.9141781  99.2521217
 103.2915031  80.5003238  90.7662796 103.4666787  80.0291281  91.5808418
 102.6047819  81.1269004  90.9944056 104.2472094  74.7775744  96.8126097
 103.9121927  74.7376514  97.7083747 103.7476040  74.1120460  96.3396507
  98.2216338  70.1843374 102.3378678  98.0836136  69.4523613 102.9390217
  99.1321262  70.0952274 102.0562866 107.1831286  72.1231778  87.0863157
 106.5660457  71.3978606  86.9896209 106.7147774  72.8841138  86.7430231
 100.8498639  69.8963333 101.8262358 101.5598258  69.2556525 101.7848976
 100.8067947  70.1476228 102.7488539 108.8385418  76.8330686 104.7468937
 108.7797964  76.1489907 104.0799520 109.2404936  77.5749676 104.2949563
  99.5627573  66.8828551 103.6457997  99.0264930  66.4319289 104.2979594
  98.9744281  67.0174460 102.9028462  97.8576116  83.6492600  97.5402656
  98.0972715  84.2811124  98.2181674  97.0145313  83.2980640  97.8268015
  98.9729832  66.3417202  86.2084461  98.0959298  66.2206003  85.8446708
  99.4487585  65.5503281  85.9563350 108.8402825  74.7970270 102.9782917
 107.9529604  74.4596192 103.1009315 109.4101376  74.0653302 103.2151682
  90.4931972  71.1294362  96.3025968  91.1803012  70.8156092  95.7146983
  90.3380101  72.0335727  96.0293219  95.2966694  66.0184559 100.7310992
  95.2124883  65.4110228  99.9961402  94.4749401  66.5093577 100.7320488
 102.3703978  79.4571723  99.9444160 102.2974150  80.2626694 100.4563464
 101.9281371  79.6563689  99.1192181 102.1593758  78.6943493  93.4546981
 101.3761280  79.2365173  93.5485206 102.8586503  79.2117472  93.8541223
 105.4690408  64.5038122  96.0981187 105.9659108  63.7508085  95.7782257
 104.6977390  64.5402439  95.5324396 113.3220165  70.2078488  97.7399478
 113.3110042  71.0903203  97.3693411 112.4537545  69.8550039  97.5454015
 104.8302662  79.3558557 102.1002318 105.5430634  79.9906022 102.0278220
 104.3392690  79.4522423 101.2842320 106.5520189  73.2609809  93.6719610
 105.6176467  73.3811272  93.5024314 106.7296857  72.3582276  93.4079620
 102.0525377  66.6455505  95.8252871 101.6823164  66.0926546  96.5133777
 102.5484469  66.0413639  95.2727871 109.9392740  69.1027129  94.2069644
 110.4053192  69.9355120  94.1329947 110.3900241  68.6372110  94.9114903
  99.8814575  77.1053000 102.9207889 100.5824035  77.7389483 103.0737284
  99.4109690  77.4467732 102.1603529 108.0068971  75.4470950  91.2055796
 108.2828815  75.3327545  92.1149670 107.1373470  75.0488435  91.1667969
 107.9109403  61.4707716  98.2460546 106.9972483  61.7011943  98.4142753
 108.3402504  61.5546160  99.0974578 107.6815861  69.6597608 100.7460440
 107.0287312  69.9073515 100.0912892 108.0596241  68.8461746 100.4122917
 104.6423035  79.6957301  94.8488610 104.8245430  78.8778957  95.3116362
 105.4656021  79.9124993  94.4113500 104.9765201  78.6225486  92.1103658
 105.5052967  78.1117941  91.4973821 105.2393420  78.3068016  92.9749191
 103.7303434  70.4017419 107.2326477 103.0544071  70.3011548 107.9028852
 104.5531068  70.2456633 107.6962474  95.4782293  76.6389355  99.8538992
  96.0635730  75.8933043  99.9866896  95.2807132  76.9493312 100.7375656
  98.3320949  79.6740603  94.8701434  97.6631324  80.1586730  94.3865474
  98.1933818  79.9209823  95.7844813  90.0699948  69.2094956  98.5743435
  90.1084048  68.6758546  99.3680553  89.5640241  68.6830161  97.9554412
 102.4726217  81.7084346 101.4684093 103.0244525  81.8715968 102.2333178
 102.8132411  82.2988784 100.7964118  97.4490710  64.0559496 102.0705977
  97.5132037  64.9174327 101.6583375  97.3857831  63.4433498 101.3378336
  96.9242983  66.1282629 105.7179012  97.5515022  65.7459706 106.3316536
  96.0670902  65.9096831 106.0834704 107.3237092  76.5345604 107.3232747
 107.8676996  77.1475562 106.8287702 106.7423936  77.0925182 107.8399760
  93.7008526  67.9359058  91.6497367  93.9961967  67.0269736  91.5964420
  92.7996562  67.9146797  91.3278369 105.6094605  79.6566322  98.4547775
 105.4845744  78.8556062  97.9458720 106.2673696  80.1512515  97.9661745
  97.2302773  66.0115054  97.6324915  96.5089359  66.6251022  97.4932388
  98.0196029  66.5472819  97.5541561 107.6729513  77.4575342 100.0827325
 106.7259848  77.3380693 100.0105652 108.0212286  76.5697840 100.1653586
 100.0329086  63.3469481 103.9065567 100.5563488  63.5931777 104.6691876
  99.8141420  64.1789516 103.4868704  95.4296367  65.6173155  91.7736692
  95.1009074  64.7370534  91.5911798  95.7835738  65.5620824  92.6613081
 104.6775946  77.2528058  96.2831677 104.5300909  76.3244765  96.4639247
 105.5029440  77.2748149  95.7988752  98.5438191  65.9046125  92.1412169
  98.8834263  66.4332046  91.4190778  98.9910311  66.2426531  92.9170736
 108.2810068  78.0756617  97.3696550 109.2056616  77.8699478  97.2321001
 108.1125371  77.8273018  98.2785891 101.2381631  64.2883176 101.5915237
 100.8978452  63.4890989 101.9935917 100.5320638  64.5884887 101.0192071
 101.8898103  61.3732488 100.0442560 102.7124172  60.8992966  99.9221451
 102.1336167  62.1522972 100.5441247 100.5306338  64.4020747  90.3405462
 101.2514700  64.7802000  89.8369179  99.9071642  65.1209624  90.4440440
 104.6737461  65.1065896  91.2763794 104.8901075  65.9890534  90.9752623
 104.1931528  64.7152109  90.5469436  99.4136682  68.0651609  97.8534539
  99.2681263  68.3791912  98.7458821  98.9361886  68.6836509  97.3005438
 101.2733065  65.0554157  97.9015429 101.2594634  64.1595250  97.5647727
 101.9905493  65.0624821  98.5353715 103.1259196  65.4891497  99.9468556
 102.8676973  66.4108568  99.9452886 102.5944236  65.0921932 100.6369020
 108.0705384  78.5942284  92.7258641 108.2442262  78.0288707  91.9732494
 108.5634276  79.3943179  92.5438131  93.8882344  70.6056953 100.7922200
  93.3435812  71.3816761 100.9242475  94.7661694  70.9527758 100.6341322
 100.6769961  63.9368537  93.1702999 100.7985872  63.0085183  93.3693886
 100.3872003  63.9507223  92.2581314 103.5461151  61.6223448  96.3069719
 103.5682848  61.6862781  95.3521698 103.9629210  60.7827956  96.5010225
 113.9244775  71.3578707  94.3448941 114.3675921  70.6086032  93.9468064
 113.0471286  71.3488844  93.9622673 109.0580557  77.9109049  89.8255540
 109.7531461  78.5315741  90.0442854 109.4003707  77.0604400  90.1007918
  94.6748366  69.7326850 103.6852357  93.9330102  69.8809485 104.2716988
  94.3541110  69.9935115 102.8219106 110.9571980  75.3608754  91.3542870
 111.4823304  75.6996027  90.6292190 110.8694332  74.4255769  91.1706005
 102.6192029  79.2742828 103.4832747 102.9279155  79.0291975 104.3555447
 103.4167511  79.4789466 102.9951617 102.6412641  81.4280737  95.7138124
 102.2017631  80.9357116  96.4070980 103.3920758  80.8853705  95.4730199
  95.1204980  77.6192278  95.7162752  95.9463000  77.3196050  95.3361395
  94.7699032  76.8499901  96.1652540 100.0886513  76.9718747  97.7860425
  99.4666522  76.3089452  97.4862653 100.7591380  76.9979878  97.1034073
  93.3213585  75.5378605  96.6751685  92.4845493  75.1100779  96.4935687
  93.2937230  75.7311048  97.6122477 100.1611040  65.4500535 107.3792931
 100.2099196  66.3262657 106.9970701 100.7033554  64.9077928 106.8064575
 110.6465886  75.9941658 106.6594068 109.8561430  75.9765797 106.1198568
 110.4099241  76.5329952 107.4143105 110.7663761  72.8434124 103.9726797
 110.8161766  72.6784132 104.9142320 110.6577684  71.9761383 103.5824678
  99.6500020  75.5222670  91.2618886  99.7988140  76.2058134  90.6085559
 100.4566463  75.5027760  91.7768342 108.0567523  68.8265052 105.2886104
 108.9577386  68.6871517 104.9970101 108.1315498  68.9919507 106.2284281
 102.3910329  66.2031907 104.1339290 101.5213638  66.4965473 103.8621879
 102.6269809  66.7872352 104.8546554 112.2681958  75.2631066 104.2168818
 111.9766766  75.6261046 105.0532279 111.6554089  74.5498074 104.0382151
 113.4677640  72.8283945  96.7371389 114.3024532  73.2673750  96.9008949
 113.6036769  72.3522599  95.9179634 110.5169146  70.3863680 102.6848876
 110.9923268  70.5791327 101.8767728 109.5934711  70.4422866 102.4392260
  97.4052653  71.5487848  92.2679955  97.1598695  70.6450178  92.4660165
  97.5748567  71.5504998  91.3259433 105.0949363  62.4211524 101.6504710
 105.6131306  63.1572551 101.3251199 104.7404495  62.7275517 102.4851469
  96.6748300  67.2816205  89.7666116  95.9817545  67.3560560  89.1106152
  96.4300052  66.5176549  90.2887633 105.3461957  58.8411806  97.1705607
 105.6263710  58.1734995  97.7966034 106.1312564  59.0340902  96.6580271
 103.1495425  78.0170800  88.7330633 102.5769392  78.6360987  88.2801105
 103.7228219  78.5670162  89.2670555 109.2170815  67.2629440 100.9177182
 110.1688238  67.3627538 100.9389406 109.0474265  66.4707709 101.4275266
 107.2385195  64.3485024 101.1036583 106.6435127  64.6290036 100.4083072
 106.9534891  64.8378925 101.8753324 106.3692685  78.3007950  89.8639216
 107.3023358  78.2353512  90.0672091 106.2815898  79.1364217  89.4053748
 108.9980702  77.6173821  86.8243163 108.9194333  77.2833684  87.7178921
 109.8190368  78.1095589  86.8234635 111.6958893  70.4835560 100.0319482
 111.6635213  69.5451561 100.2179166 112.3059517  70.5619597  99.2985307
 103.5342224  69.3531613  86.0746686 104.4801328  69.2237821  86.1435104
 103.1556469  68.6146275  86.5516114 111.8453381  67.2746604 100.0777765
 111.3292430  66.4905060  99.8907694 112.7293330  66.9465320 100.2424284
 109.5064108  61.0187619  96.0373578 109.3088929  60.7102707  96.9216910
 110.1163814  61.7449258  96.1671507 117.5135443  71.5451567  99.1725519
 118.2438831  71.2836855  99.7333222 116.9042388  70.8080289  99.2127587
 115.5950740  69.6859430  99.7699970 114.8683903  69.5515394  99.1616461
 115.1798027  69.9936258 100.5756688 103.4180916  73.4049359 107.5347343
 104.3383926  73.5827958 107.7287389 103.3830499  72.4605405 107.3827042
 101.7185141  67.2781589  86.0101571 100.8116596  66.9814702  86.0864285
 101.9961122  66.9811408  85.1435857  92.6363081  68.5987953  96.4600617
  92.3165866  67.7453261  96.1674991  92.0896509  68.8136531  97.2158585
  96.4142989  71.3150394 100.1770124  96.6328999  72.2467502 100.1958158
  96.8268763  70.9558368 100.9624928 103.3347207  61.8218479  92.1645812
 102.5247935  61.4765564  92.5401058 104.0231624  61.5126023  92.7533424
 105.2637755  60.8996526  93.7870109 105.8168793  61.3191979  94.4460132
 105.5007841  59.9732274  93.8293065 101.2870854  66.8883600 109.5672873
 101.1867581  67.8377957 109.4984964 101.0692396  66.5601839 108.6948943
 100.4883925  64.1368525  86.1513550 101.3503089  64.4623423  86.4109368
 100.6734270  63.3500021  85.6386616  92.5051341  72.2190864  98.4293739
  91.8114813  71.8044817  97.9163693  93.2524332  72.2611401  97.8327158
 108.6416562  63.0097051  93.2948773 108.0615231  63.6681855  92.9126826
 108.3752495  62.1874396  92.8836191 107.0920128  62.4102109  95.4970094
 107.5919907  62.5218643  94.6884412 107.7355736  62.1063162  96.1370902
 101.1502124  70.3180738 108.3837934 100.6669206  71.1181099 108.5901824
 101.2363063  70.3288683 107.4305378  94.4188084  72.1509118  96.3059754
  94.3958772  72.2496805  95.3541637  94.7288720  72.9974269  96.6276920
  97.0775462  74.2085273 100.4206368  98.0318715  74.1769216 100.3536300
  96.8787985  73.7475897 101.2356594  97.6674844  72.7786389 102.9877166
  98.4867733  73.2730468 103.0112003  97.9411651  71.8618357 102.9594733
 107.4241440  65.1697142  92.3505121 106.5367295  65.4546792  92.1325316
 107.8395429  65.0090905  91.5032398 110.7755976  65.1943663  96.0659461
 111.5516366  65.6840115  96.3384078 110.0504110  65.6201717  96.5231330
 113.2128535  65.9071282  97.1233401 113.8073026  65.6667018  96.4126710
 113.2855118  65.1878412  97.7506938  95.4325690  79.7504893  97.4376566
  95.2980158  78.9905294  96.8714564  95.0157753  80.4745793  96.9705355
 106.5684653  74.9341816  86.4453141 107.2720504  75.1391819  87.0610797
 105.8447302  75.5018578  86.7102225 107.3982464  70.6851677  92.5655412
 107.3417665  71.1420229  91.7263044 107.9510806  69.9242362  92.3878254
 111.2087270  66.4741409  93.3905531 110.9524204  66.0738045  94.2213739
 110.5840138  67.1885203  93.2655670 115.5199607  69.2137483  95.8976823
 114.9599165  69.2830672  96.6708385 114.9143111  69.0378467  95.1776319
  98.5894816  80.6474210  97.6495009  98.4727200  81.5919642  97.5473699
  97.7687263  80.3447771  98.0380808 108.4771351  75.3724345  88.4951601
 109.3116955  74.9405544  88.3129076 108.3155694  75.2006359  89.4228496
 108.1317243  71.8756459  89.8607941 108.0766047  71.7100730  88.9196385
 107.5063298  72.5832492  90.0170131  92.9209758  67.1124523 103.6869363
  93.5668622  66.6023477 104.1756588  92.7126909  67.8493205 104.2612788
 105.4463150  74.1805371 109.1861504 106.3154310  74.3546023 108.8248138
 104.9669902  74.9999787 109.0637233 101.4413369  61.3764568  89.4393259
 101.4292038  62.3206408  89.5961530 102.3336790  61.1934713  89.1452720
  99.6149330  81.3002472 100.8650937 100.5176577  81.3326082 101.1817432
  99.3886701  80.3702923 100.8797273 101.3702932  80.0533458  97.5261016
 100.4198563  80.0535320  97.4125388 101.6735419  79.3066193  97.0097050
 105.2565488  57.9707344  93.6939196 104.4897884  57.4165831  93.8395878
 105.6676193  58.0429213  94.5553348  97.2607249  64.2592140 107.7844377
  98.1238711  63.9028945 107.9947702  96.6872660  63.9206035 108.4719782
 117.1055626  85.8893997  98.5906778 117.7434036  85.7700744  97.8870118
 116.9876469  86.8374840  98.6494730 113.9145332  85.8421425  98.5268303
 113.5763844  85.7262489  97.6388838 114.7835100  85.4412590  98.5069309
 109.7732148  87.6956901  94.5165194 109.2097013  87.6046838  93.7481482
 109.6584543  86.8756805  94.9967686 114.3965115  86.9956276 104.4854508
 114.3853756  86.6009075 103.6135012 114.5585755  86.2622349 105.0788280
 107.3196580  89.1908093  97.3549414 108.1117872  88.8498917  96.9395714
 107.5593230  89.3003068  98.2751568 115.3531707  91.3627869  89.8279659
 114.7019686  91.9481949  89.4413673 116.1476069  91.8934064  89.8874696
 109.2787334  88.4517006  90.2266793 110.0518210  87.9045993  90.0879669
 109.6312733  89.3161255  90.4381255 111.1172376  89.7793388 103.4333692
 110.8262242  90.6839019 103.3180359 111.7529361  89.8209916 104.1477762
 112.0428583  87.1570237 100.0235052 112.6392155  86.9326259  99.3092015
 112.1003555  86.4154982 100.6260500 111.6153612  84.6109672  87.8585243
 111.8679132  84.0891193  87.0968706 110.6778171  84.4475817  87.9611927
 116.6596894  83.6145450  95.6659986 117.4459984  83.1964874  95.3150403
 116.9235599  84.5191543  95.8341635 116.8306972  89.0518301  90.3648643
 116.1952805  89.1252927  91.0769548 116.5004378  89.6411900  89.6867722
 122.0605322  83.5520684  96.5692965 122.7930494  82.9819900  96.8030794
 121.3044677  83.1642284  97.0099470 111.3349900  86.5137778  90.0609618
 111.2186158  85.8382681  90.7290702 111.4452160  86.0270152  89.2441771
 113.6781441  85.9747925  93.7656307 113.3139649  85.4478546  94.4769229
 114.5348557  85.5846394  93.5922793 119.5830742  77.2642258 101.0287573
 119.2514067  78.1337669 100.8048788 118.9876355  76.9478542 101.7081604
 113.3186928  81.0037825  88.7617656 113.4861331  81.8718061  89.1288127
 113.1284097  81.1665106  87.8378945 116.0762261  89.4654804 100.4283486
 115.7762985  90.3679842 100.3199293 115.7313321  89.1986987 101.2804639
 109.5274743  85.9168601  96.4620191 108.6025239  85.7844815  96.6697882
 109.7759156  86.6962820  96.9590133 119.4759405  81.9837344  98.1080923
 118.5676283  81.9152752  97.8139684 119.4247001  82.4609289  98.9362749
 113.2976149  83.4595482  89.7464323 113.1775774  83.9052533  90.5849803
 112.6028738  83.8080800  89.1877861 106.8883554  85.5601874  97.2963980
 107.0175935  85.8136353  98.2103391 106.2081005  86.1529582  96.9768635
 111.0583041  96.2299124  93.3954454 110.9807071  97.1806949  93.4742934
 110.4544685  95.8844997  94.0529380 113.5500271  83.4026989 106.0515821
 112.7733605  83.9620910 106.0418685 114.1890834  83.8883772 106.5730691
 121.3421052  80.1853782  99.8858797 120.6995432  80.4786315  99.2398592
 120.8375980  80.0706703 100.6911994 118.9961215  83.9316955  90.5744657
 119.9079071  84.1644342  90.3992354 118.4870862  84.5154000  90.0119735
 111.8046643  86.2112443 105.6133788 112.5461328  86.7497487 105.3368611
 111.0983629  86.8378732 105.7705340 117.2801983  88.3541583 104.2105949
 117.6885339  87.9123994 103.4660582 116.5579244  87.7794211 104.4640142
 113.6333053  83.2914190 101.5839506 114.4794248  83.7153604 101.7274155
 113.5731691  82.6347814 102.2778069 117.6030798  88.9142774  97.9658238
 116.9739660  89.0788488  97.2634306 117.2156460  89.3284383  98.7369202
 121.4820030  89.8497212  95.3202602 120.7971068  90.2296113  94.7699635
 121.5663879  90.4592538  96.0534550 116.7832498  80.9518558 103.2420680
 116.5393430  81.7060619 102.7054955 117.0592429  81.3303906 104.0767927
 118.7370961  87.4957171 101.9197945 118.9487856  88.1388931 101.2432326
 118.6900709  86.6619487 101.4519875 116.3397190  80.1074991  98.8234518
 115.4781669  80.4056245  99.1151255 116.3659625  80.3245390  97.8915550
 113.1558759  88.6517182  95.2308323 113.6197105  88.9304885  94.4412946
 112.8915558  87.7500627  95.0481414 110.0482841  88.1988664  98.1688086
 110.6184198  88.6275932  97.5305571 110.6390952  87.9171248  98.8672272
 112.0927646  84.7740334  92.0397888 112.7951689  85.2261378  92.5071815
 111.7608274  84.1324153  92.6677781 110.5408007  83.3652091 106.4149098
 109.9106668  84.0468372 106.6484495 110.4344095  83.2535173 105.4702236
 105.8352979  83.0323887  97.3415022 105.0452033  83.2881416  96.8655133
 106.3264227  83.8472225  97.4467062 119.8516789  90.3729126 100.0920303
 120.6734233  89.9709313  99.8102984 119.8479192  90.2697360 101.0436419
 107.7867725  83.3968466  94.2998499 106.9898888  83.5087161  94.8181994
 107.5593317  83.7355118  93.4339389 113.6173393  89.9213169 102.2481013
 113.6817825  90.3833577 103.0839185 112.9084316  89.2910534 102.3763323
 104.1190682  83.2854377  99.7730013 104.3698721  84.1701387 100.0387589
 104.6550231  83.1058979  99.0005105 127.9422782  86.7167875  96.4405274
 127.1886490  86.1475273  96.2849279 128.0770323  86.6830539  97.3875909
 113.3321410  91.5881277  92.1159994 113.1967085  92.4332813  92.5444841
 113.8731223  91.7900555  91.3525927 109.8188750  77.6672857 108.7774349
 109.4255695  77.1139055 109.4521993 110.6354890  77.9783435 109.1680866
 106.7850808  89.1056715  92.6887919 107.2975328  89.8999965  92.8393483
 107.4373520  88.4083005  92.6221520 108.5945692  92.2222471  94.7710672
 108.7712321  93.1440436  94.5831656 109.3902526  91.9080890  95.2005052
 112.7356711  79.0830736 106.3694605 113.4766424  79.6837889 106.2899068
 112.9674634  78.3408374 105.8112648 107.8798049  84.2687103 104.6472835
 107.7651564  83.3672360 104.9479934 107.0242567  84.5150800 104.2957652
 114.9589887  92.2104843 106.2460336 114.5153741  91.4241222 105.9281240
 115.6207100  92.3983994 105.5804226 109.7177008  93.7400645 100.7721014
 110.2684433  93.6117708  99.9998008 108.8788484  94.0395534 100.4215907
 117.0571125  92.4907643 104.2741737 117.0389600  93.3116524 103.7822006
 117.9791045  92.3661719 104.4991878 113.5144179  90.0051773 105.1165245
 114.0472516  89.2440061 104.8864553 112.9858260  89.7125425 105.8589400
 116.6813874  75.1111839 100.6458887 116.3378143  76.0013481 100.5697998
 117.0492836  74.9213496  99.7828472 104.7499724  87.4345369  93.4647489
 105.5874946  87.8442378  93.2481197 104.9277992  86.4944811  93.4347683
 116.6464156  85.1020450  89.1531322 116.1310780  85.8725055  89.3919710
 116.3741465  84.4285586  89.7764384 114.2311267  79.9470151  94.2116561
 113.3752864  79.5577001  94.0322199 114.6438219  80.0262112  93.3516346
 115.7610414  77.4816494  98.6108120 115.2575210  77.4446629  97.7975926
 116.0541021  78.3909237  98.6704777 112.0053300  77.5655224  97.6174302
 112.8706297  77.3698032  97.2580191 112.0730809  77.3365575  98.5443659
 121.6198431  87.8552805  91.0884496 120.8427873  87.5163964  90.6439658
 122.2989912  87.8605428  90.4139461 116.4350460  82.9747542  90.9791103
 116.1300595  83.2893691  91.8301247 117.3880902  83.0528962  91.0218436
 114.8796891  89.1337765  92.6284057 114.3518253  88.3990525  92.3157295
 114.3784394  89.9112442  92.3824026 119.8589737  87.3286786  97.7451104
 119.2013412  88.0186047  97.8331232 120.6630137  87.7183218  98.0885090
 109.6115619  79.7957432  94.9890669 110.1859371  79.5732613  94.2563862
 110.1986602  79.8646126  95.7419270 118.6695196  85.6831159  95.7955045
 119.1827078  86.3161150  96.2976755 119.3196420  85.0832354  95.4298405
 109.9385206  81.8261893  89.0086554 109.1022518  82.1636579  89.3295829
 109.7989976  81.6910872  88.0713691 111.9138287  76.6698681  93.7165738
 111.2602699  76.3547698  93.0922353 111.8718761  76.0474421  94.4425561
 113.0249492  86.9517976  85.6319030 112.1176553  86.7207229  85.8310179
 113.5220524  86.1555595  85.8193012 115.9317571  95.6615483  88.5515716
 115.2579269  95.9647180  89.1600674 116.3183392  96.4644563  88.2021174
 115.1476027  83.1580614  98.0413386 114.2298589  83.3795561  97.8835074
 115.5636171  83.2326925  97.1825093 115.9311075  84.5572030  93.1716066
 116.6782894  85.0693427  92.8623188 116.2002664  84.2356083  94.0320460
 114.2037725  87.0530571  90.1543020 113.2948944  86.7689603  90.2515490
 114.2332809  87.4729649  89.2946327 119.4356993  90.6637160  93.9234188
 118.9819320  89.8228070  93.9799378 118.8050959  91.2998558  94.2608968
 118.3789912  81.5929146  95.1534855 117.6412669  81.0806532  95.4845098
 118.6316686  81.1529528  94.3418132 117.8789932  92.5013657  94.8584006
 118.1712906  93.0618714  94.1396372 118.3888552  92.7942218  95.6137165
 118.4801539  74.3705398  95.7476625 118.7860416  73.5102761  95.4602540
 119.2054144  74.9623018  95.5475619 104.7725895  84.7736085  94.1358223
 104.5750295  84.1805445  93.4109289 104.2172559  84.4688295  94.8534161
 112.7522619  84.6659191  96.2552816 112.8071229  83.7133028  96.1795292
 111.9413821  84.8218630  96.7394114 113.9013813  88.5939314  87.4931099
 113.4633243  87.8775173  87.0336736 114.6424254  88.8215429  86.9316190
 110.6914979  83.2836251  94.0143195 109.8782845  83.5830421  94.4208387
 111.1873973  82.8891940  94.7317677 112.8423557  93.2794008  95.9477459
 112.7999736  93.5054854  95.0185991 113.7586256  93.0457382  96.0963260
 116.2889191  83.7478075 102.8458089 116.6438578  83.9749548 103.7052554
 116.9361322  84.0796452 102.2235344 122.0186928  86.8696511  93.5507418
 121.8804826  87.0598107  92.6228607 121.6623146  87.6315894  94.0075469
 110.1829054  80.8554606  99.6304430 110.8228433  80.7143365  98.9327393
 109.3506584  80.5689120  99.2543032 122.0456307  88.9373038  98.5618689
 122.4792814  88.8448327  99.4101743 122.7587888  88.9130539  97.9238705
 110.9589358  90.1557037  95.7439422 111.7529956  89.6607357  95.5421997
 110.2481050  89.6274900  95.3807128 115.7784202  92.5375132 100.0951790
 115.8321224  93.1066069 100.8629506 114.9098984  92.7077017  99.7305827
 107.2672121  84.3000119  91.8199175 106.3369709  84.2384574  92.0369137
 107.3629593  83.7776071  91.0235816 107.1857670  80.8254931  94.4077416
 107.4464488  81.7400265  94.2986577 108.0074843  80.3579374  94.5574029
 108.6582596  82.2392689 101.5776241 109.3305649  82.0310051 100.9288890
 107.8312382  82.0414775 101.1381473 122.9071857  88.9796739 101.0951574
 123.1007747  89.8842549 101.3410849 122.8072475  88.5204158 101.9290159
 114.5608168  78.8654629 103.5941902 113.9136083  79.5644579 103.5006378
 115.3309183  79.2990773 103.9618150 117.9686966  89.1303482 106.6692455
 117.8172472  88.9014033 105.7522539 117.9591645  90.0874083 106.6823800
 114.7372302  86.7035394 101.6538722 115.6664362  86.8546554 101.4807689
 114.3163332  86.7919415 100.7987368 113.5360634  90.7286059  99.4237259
 113.3971719  90.3604843 100.2963197 112.7475230  91.2433698  99.2521217
 114.1308786  95.8295155  90.7662796 114.3060541  95.3583198  91.5808418
 113.4441574  96.4560921  90.9944056 115.0865849  90.1067661  96.8126097
 114.7515681  90.0668431  97.7083747 114.5869795  89.4412377  96.3396507
 109.0610093  85.5135291 102.3378678 108.9229891  84.7815530 102.9390217
 109.9715016  85.4244192 102.0562866 118.0225041  87.4523696  87.0863157
 117.4054211  86.7270524  86.9896209 117.5541529  88.2133056  86.7430231
 111.6892393  85.2255251 101.8262358 112.3992012  84.5848443 101.7848976
 111.6461702  85.4768146 102.7488539 119.6779172  92.1622604 104.7468937
 119.6191718  91.4781824 104.0799520 120.0798691  92.9041594 104.2949563
 110.4021327  82.2120469 103.6457997 109.8658684  81.7611207 104.2979594
 109.8138036  82.3466378 102.9028462 108.6969871  98.9784518  97.5402656
 108.9366469  99.6103042  98.2181674 107.8539067  98.6272558  97.8268015
 109.8123586  81.6709120  86.2084461 108.9353053  81.5497921  85.8446708
 110.2881339  80.8795198  85.9563350 119.6796579  90.1262188 102.9782917
 118.7923358  89.7888110 103.1009315 120.2495130  89.3945219 103.2151682
 101.3325727  86.4586280  96.3025968 102.0196766  86.1448010  95.7146983
 101.1773855  87.3627644  96.0293219 106.1360449  81.3476476 100.7310992
 106.0518637  80.7402146  99.9961402 105.3143155  81.8385495 100.7320488
 113.2097733  94.7863640  99.9444160 113.1367904  95.5918612 100.4563464
 112.7675126  94.9855606  99.1192181 112.9987512  94.0235410  93.4546981
 112.2155034  94.5657091  93.5485206 113.6980258  94.5409390  93.8541223
 116.3084163  79.8330040  96.0981187 116.8052862  79.0800002  95.7782257
 115.5371144  79.8694357  95.5324396 124.1613920  85.5370405  97.7399478
 124.1503796  86.4195121  97.3693411 123.2931299  85.1841956  97.5454015
 115.6696416  94.6850474 102.1002318 116.3824389  95.3197939 102.0278220
 115.1786445  94.7814340 101.2842320 117.3913943  88.5901727  93.6719610
 116.4570222  88.7103190  93.5024314 117.5690612  87.6874194  93.4079620
 112.8919131  81.9747423  95.8252871 112.5216919  81.4218463  96.5133777
 113.3878224  81.3705556  95.2727871 120.7786495  84.4319046  94.2069644
 121.2446947  85.2647038  94.1329947 121.2293995  83.9664028  94.9114903
 110.7208330  92.4344918 102.9207889 111.4217789  93.0681401 103.0737284
 110.2503445  92.7759649 102.1603529 118.8462726  90.7762868  91.2055796
 119.1222570  90.6619462  92.1149670 117.9767224  90.3780353  91.1667969
 118.7503157  76.7999633  98.2460546 117.8366237  77.0303860  98.4142753
 119.1796259  76.8838077  99.0974578 118.5209616  84.9889525 100.7460440
 117.8681066  85.2365433 100.0912892 118.8989996  84.1753664 100.4122917
 115.4816790  95.0249219  94.8488610 115.6639184  94.2070875  95.3116362
 116.3049776  95.2416911  94.4113500 115.8158955  93.9517404  92.1103658
 116.3446722  93.4409858  91.4973821 116.0787175  93.6359934  92.9749191
 114.5697189  85.7309336 107.2326477 113.8937826  85.6303466 107.9028852
 115.3924823  85.5748550 107.6962474 106.3176048  91.9681273  99.8538992
 106.9029485  91.2224961  99.9866896 106.1200886  92.2785230 100.7375656
 109.1714703  95.0032520  94.8701434 108.5025078  95.4878648  94.3865474
 109.0327573  95.2501741  95.7844813 100.9093703  84.5386873  98.5743435
 100.9477802  84.0050464  99.3680553 100.4033995  84.0122079  97.9554412
 113.3119972  97.0376264 101.4684093 113.8638280  97.2007885 102.2333178
 113.6526165  97.6280702 100.7964118 108.2884465  79.3851414 102.0705977
 108.3525791  80.2466245 101.6583375 108.2251585  78.7725415 101.3378336
 107.7636738  81.4574546 105.7179012 108.3908776  81.0751624 106.3316536
 106.9064656  81.2388748 106.0834704 118.1630846  91.8637521 107.3232747
 118.7070750  92.4767480 106.8287702 117.5817691  92.4217100 107.8399760
 104.5402280  83.2650975  91.6497367 104.8355721  82.3561654  91.5964420
 103.6390316  83.2438715  91.3278369 116.4488359  94.9858239  98.4547775
 116.3239498  94.1847979  97.9458720 117.1067450  95.4804433  97.9661745
 108.0696527  81.3406972  97.6324915 107.3483113  81.9542940  97.4932388
 108.8589783  81.8764737  97.5541561 118.5123267  92.7867260 100.0827325
 117.5653603  92.6672611 100.0105652 118.8606041  91.8989758 100.1653586
 110.8722841  78.6761398 103.9065567 111.3957243  78.9223695 104.6691876
 110.6535174  79.5081433 103.4868704 106.2690122  80.9465073  91.7736692
 105.9402828  80.0662452  91.5911798 106.6229493  80.8912742  92.6613081
 115.5169701  92.5819976  96.2831677 115.3694663  91.6536683  96.4639247
 116.3423194  92.6040066  95.7988752 109.3831945  81.2338043  92.1412169
 109.7228018  81.7623964  91.4190778 109.8304065  81.5718449  92.9170736
 119.1203823  93.4048534  97.3696550 120.0450370  93.1991396  97.2321001
 118.9519126  93.1564936  98.2785891 112.0775386  79.6175094 101.5915237
 111.7372206  78.8182907 101.9935917 111.3714392  79.9176804 101.0192071
 112.7291858  76.7024406 100.0442560 113.5517927  76.2284884  99.9221451
 112.9729921  77.4814890 100.5441247 111.3700092  79.7312664  90.3405462
 112.0908455  80.1093917  89.8369179 110.7465396  80.4501541  90.4440440
 115.5131215  80.4357813  91.2763794 115.7294829  81.3182451  90.9752623
 115.0325282  80.0444027  90.5469436 110.2530436  83.3943527  97.8534539
 110.1075017  83.7083830  98.7458821 109.7755640  84.0128427  97.3005438
 112.1126819  80.3846075  97.9015429 112.0988388  79.4887168  97.5647727
 112.8299247  80.3916738  98.5353715 113.9652950  80.8183415  99.9468556
 113.7070728  81.7400485  99.9452886 113.4337990  80.4213849 100.6369020
 118.9099139  93.9234202  92.7258641 119.0836016  93.3580624  91.9732494
 119.4028030  94.7235097  92.5438131 104.7276099  85.9348871 100.7922200
 104.1829567  86.7108679 100.9242475 105.6055448  86.2819675 100.6341322
 111.5163715  79.2660455  93.1702999 111.6379626  78.3377101  93.3693886
 111.2265758  79.2799141  92.2581314 114.3854906  76.9515365  96.3069719
 114.4076602  77.0154698  95.3521698 114.8022965  76.1119874  96.5010225
 124.7638530  86.6870625  94.3448941 125.2069676  85.9377950  93.9468064
 123.8865040  86.6780761  93.9622673 119.8974311  93.2400966  89.8255540
 120.5925216  93.8607659  90.0442854 120.2397461  92.3896318  90.1007918
 105.5142120  85.0618767 103.6852357 104.7723856  85.2101403 104.2716988
 105.1934865  85.3227033 102.8219106 121.7965734  90.6900672  91.3542870
 122.3217058  91.0287945  90.6292190 121.7088087  89.7547687  91.1706005
 113.4585783  94.6034745 103.4832747 113.7672910  94.3583892 104.3555447
 114.2561265  94.8081384 102.9951617 113.4806395  96.7572655  95.7138124
 113.0411385  96.2649034  96.4070980 114.2314512  96.2145623  95.4730199
 105.9598734  92.9484196  95.7162752 106.7856754  92.6487968  95.3361395
 105.6092786  92.1791818  96.1652540 110.9280267  92.3010664  97.7860425
 110.3060277  91.6381369  97.4862653 111.5985134  92.3271796  97.1034073
 104.1607339  90.8670522  96.6751685 103.3239247  90.4392697  96.4935687
 104.1330985  91.0602966  97.6122477 111.0004795  80.7792452 107.3792931
 111.0492950  81.6554575 106.9970701 111.5427309  80.2369845 106.8064575
 121.4859640  91.3233575 106.6594068 120.6955184  91.3057714 106.1198568
 121.2492995  91.8621869 107.4143105 121.6057515  88.1726042 103.9726797
 121.6555520  88.0076049 104.9142320 121.4971439  87.3053301 103.5824678
 110.4893774  90.8514588  91.2618886 110.6381895  91.5350052  90.6085559
 111.2960218  90.8319678  91.7768342 118.8961278  84.1556970 105.2886104
 119.7971141  84.0163435 104.9970101 118.9709252  84.3211425 106.2284281
 113.2304083  81.5323825 104.1339290 112.3607393  81.8257391 103.8621879
 113.4663564  82.1164270 104.8546554 123.1075712  90.5922983 104.2168818
 122.8160521  90.9552964 105.0532279 122.4947844  89.8789992 104.0382151
 124.3071395  88.1575863  96.7371389 125.1418286  88.5965667  96.9008949
 124.4430523  87.6814516  95.9179634 121.3562901  85.7155598 102.6848876
 121.8317022  85.9083244 101.8767728 120.4328466  85.7714784 102.4392260
 108.2446407  86.8779765  92.2679955 107.9992449  85.9742095  92.4660165
 108.4142322  86.8796916  91.3259433 115.9343117  77.7503442 101.6504710
 116.4525061  78.4864468 101.3251199 115.5798250  78.0567435 102.4851469
 107.5142055  82.6108123  89.7666116 106.8211300  82.6852478  89.1106152
 107.2693807  81.8468466  90.2887633 116.1855711  74.1703724  97.1705607
 116.4657465  73.5026913  97.7966034 116.9706318  74.3632820  96.6580271
 113.9889180  93.3462718  88.7330633 113.4163147  93.9652905  88.2801105
 114.5621973  93.8962080  89.2670555 120.0564570  82.5921358 100.9177182
 121.0081992  82.6919456 100.9389406 119.8868020  81.7999627 101.4275266
 118.0778949  79.6776941 101.1036583 117.4828881  79.9581954 100.4083072
 117.7928646  80.1670842 101.8753324 117.2086439  93.6299868  89.8639216
 118.1417113  93.5645430  90.0672091 117.1209652  94.4656135  89.4053748
 119.8374456  92.9465738  86.8243163 119.7588088  92.6125602  87.7178921
 120.6584123  93.4387506  86.8234635 122.5352647  85.8127478 100.0319482
 122.5028967  84.8743479 100.2179166 123.1453271  85.8911514  99.2985307
 114.3735978  84.6823531  86.0746686 115.3195083  84.5529739  86.1435104
 113.9950223  83.9438193  86.5516114 122.6847136  82.6038521 100.0777765
 122.1686184  81.8196978  99.8907694 123.5687084  82.2757238 100.2424284
 120.3457863  76.3479537  96.0373578 120.1482684  76.0394625  96.9216910
 120.9557568  77.0741176  96.1671507 128.3529197  86.8743485  99.1725519
 129.0832586  86.6128773  99.7333222 127.7436143  86.1372207  99.2127587
 126.4344494  85.0151347  99.7699970 125.7077658  84.8807312  99.1616461
 126.0191781  85.3228176 100.5756688 114.2574671  88.7341277 107.5347343
 115.1777680  88.9119876 107.7287389 114.2224254  87.7897322 107.3827042
 112.5578895  82.6073507  86.0101571 111.6510351  82.3106620  86.0864285
 112.8354876  82.3103325  85.1435857 103.4756836  83.9279871  96.4600617
 103.1559620  83.0745179  96.1674991 102.9290264  84.1428449  97.2158585
 107.2536743  86.6442312 100.1770124 107.4722753  87.5759419 100.1958158
 107.6662517  86.2850286 100.9624928 114.1740961  77.1510397  92.1645812
 113.3641689  76.8057482  92.5401058 114.8625378  76.8417941  92.7533424
 116.1031509  76.2288444  93.7870109 116.6562548  76.6483897  94.4460132
 116.3401596  75.3024192  93.8293065 112.1264609  82.2175517 109.5672873
 112.0261335  83.1669874 109.4984964 111.9086151  81.8893756 108.6948943
 111.3277680  79.4660442  86.1513550 112.1896844  79.7915341  86.4109368
 111.5128024  78.6791938  85.6386616 103.3445096  87.5482782  98.4293739
 102.6508567  87.1336735  97.9163693 104.0918087  87.5903319  97.8327158
 119.4810316  78.3388969  93.2948773 118.9008986  78.9973773  92.9126826
 119.2146249  77.5166313  92.8836191 117.9313883  77.7394027  95.4970094
 118.4313661  77.8510561  94.6884412 118.5749491  77.4355079  96.1370902
 111.9895879  85.6472656 108.3837934 111.5062960  86.4473016 108.5901824
 112.0756818  85.6580601 107.4305378 105.2581838  87.4801036  96.3059754
 105.2352526  87.5788723  95.3541637 105.5682475  88.3266187  96.6276920
 107.9169216  89.5377191 100.4206368 108.8712470  89.5061133 100.3536300
 107.7181740  89.0767815 101.2356594 108.5068598  88.1078307 102.9877166
 109.3261487  88.6022386 103.0112003 108.7805406  87.1910275 102.9594733
 118.2635194  80.4989059  92.3505121 117.3761050  80.7838710  92.1325316
 118.6789184  80.3382823  91.5032398 121.6149731  80.5235580  96.0659461
 122.3910121  81.0132033  96.3384078 120.8897865  80.9493634  96.5231330
 124.0522289  81.2363199  97.1233401 124.6466780  80.9958935  96.4126710
 124.1248873  80.5170330  97.7506938 106.2719445  95.0796810  97.4376566
 106.1373913  94.3197211  96.8714564 105.8551507  95.8037710  96.9705355
 117.4078408  90.2633734  86.4453141 118.1114258  90.4683736  87.0610797
 116.6841057  90.8310496  86.7102225 118.2376218  86.0143595  92.5655412
 118.1811420  86.4712147  91.7263044 118.7904561  85.2534280  92.3878254
 122.0481024  81.8033327  93.3905531 121.7917958  81.4029963  94.2213739
 121.4233892  82.5177121  93.2655670 126.3593362  84.5429400  95.8976823
 125.7992920  84.6122590  96.6708385 125.7536865  84.3670385  95.1776319
 109.4288571  95.9766127  97.6495009 109.3120955  96.9211560  97.5473699
 108.6081017  95.6739689  98.0380808 119.3165105  90.7016263  88.4951601
 120.1510709  90.2697462  88.3129076 119.1549448  90.5298277  89.4228496
 118.9710998  87.2048376  89.8607941 118.9159801  87.0392648  88.9196385
 118.3457053  87.9124409  90.0170131 103.7603513  82.4416441 103.6869363
 104.4062376  81.9315395 104.1756588 103.5520664  83.1785122 104.2612788
 116.2856905  89.5097288 109.1861504 117.1548064  89.6837941 108.8248138
 115.8063656  90.3291705 109.0637233 112.2807123  76.7056485  89.4393259
 112.2685793  77.6498325  89.5961530 113.1730545  76.5226631  89.1452720
 110.4543085  96.6294389 100.8650937 111.3570332  96.6618000 101.1817432
 110.2280455  95.6994840 100.8797273 112.2096687  95.3825376  97.5261016
 111.2592318  95.3827237  97.4125388 112.5129173  94.6358110  97.0097050
 116.0959242  73.2999262  93.6939196 115.3291638  72.7457749  93.8395878
 116.5069947  73.3721131  94.5553348 108.1001004  79.5884058 107.7844377
 108.9632465  79.2320863 107.9947702 107.5266414  79.2497953 108.4719782
 127.9449380 101.2185914  98.5906778 128.5827790 101.0992662  97.8870118
 127.8270223 102.1666758  98.6494730 124.7539087 101.1713342  98.5268303
 124.4157598 101.0554407  97.6388838 125.6228855 100.7704507  98.5069309
 120.6125902 103.0248819  94.5165194 120.0490768 102.9338756  93.7481482
 120.4978297 102.2048723  94.9967686 125.2358870 102.3248194 104.4854508
 125.2247510 101.9300992 103.6135012 125.3979509 101.5914267 105.0788280
 118.1590334 104.5200010  97.3549414 118.9511626 104.1790835  96.9395714
 118.3986985 104.6294985  98.2751568 126.1925461 106.6919786  89.8279659
 125.5413441 107.2773867  89.4413673 126.9869824 107.2225981  89.8874696
 120.1181088 103.7808924  90.2266793 120.8911964 103.2337911  90.0879669
 120.4706487 104.6453173  90.4381255 121.9566131 105.1085306 103.4333692
 121.6655997 106.0130937 103.3180359 122.5923115 105.1501833 104.1477762
 122.8822338 102.4862154 100.0235052 123.4785910 102.2618177  99.3092015
 122.9397309 101.7446900 100.6260500 122.4547366  99.9401590  87.8585243
 122.7072887  99.4183111  87.0968706 121.5171925  99.7767735  87.9611927
 127.4990649  98.9437368  95.6659986 128.2853738  98.5256791  95.3150403
 127.7629353  99.8483460  95.8341635 127.6700726 104.3810218  90.3648643
 127.0346559 104.4544845  91.0769548 127.3398133 104.9703817  89.6867722
 132.8999076  98.8812601  96.5692965 133.6324248  98.3111818  96.8030794
 132.1438432  98.4934202  97.0099470 122.1743655 101.8429696  90.0609618
 122.0579913 101.1674599  90.7290702 122.2845915 101.3562070  89.2441771
 124.5175196 101.3039843  93.7656307 124.1533403 100.7770464  94.4769229
 125.3742312 100.9138312  93.5922793 130.4224496  92.5934175 101.0287573
 130.0907821  93.4629586 100.8048788 129.8270110  92.2770459 101.7081604
 124.1580683  96.3329742  88.7617656 124.3255085  97.2009979  89.1288127
 123.9677852  96.4957024  87.8378945 126.9156016 104.7946721 100.4283486
 126.6156739 105.6971760 100.3199293 126.5707075 104.5278905 101.2804639
 120.3668497 101.2460518  96.4620191 119.4418994 101.1136732  96.6697882
 120.6152911 102.0254737  96.9590133 130.3153160  97.3129262  98.1080923
 129.4070037  97.2444670  97.8139684 130.2640756  97.7901206  98.9362749
 124.1369904  98.7887400  89.7464323 124.0169529  99.2344451  90.5849803
 123.4422492  99.1372718  89.1877861 117.7277308 100.8893792  97.2963980
 117.8569690 101.1428271  98.2103391 117.0474760 101.4821500  96.9768635
 121.8976796 111.5591042  93.3954454 121.8200825 112.5098867  93.4742934
 121.2938439 111.2136914  94.0529380 124.3894026  98.7318907 106.0515821
 123.6127360  99.2912827 106.0418685 125.0284589  99.2175690 106.5730691
 132.1814806  95.5145700  99.8858797 131.5389186  95.8078233  99.2398592
 131.6769735  95.3998620 100.6911994 129.8354970  99.2608873  90.5744657
 130.7472826  99.4936260  90.3992354 129.3264617  99.8445917  90.0119735
 122.6440398 101.5404360 105.6133788 123.3855082 102.0789404 105.3368611
 121.9377383 102.1670649 105.7705340 128.1195737 103.6833501 104.2105949
 128.5279093 103.2415911 103.4660582 127.3972999 103.1086128 104.4640142
 124.4726807  98.6206108 101.5839506 125.3188003  99.0445521 101.7274155
 124.4125445  97.9639732 102.2778069 128.4424552 104.2434692  97.9658238
 127.8133415 104.4080406  97.2634306 128.0550214 104.6576301  98.7369202
 132.3213784 105.1789129  95.3202602 131.6364822 105.5588031  94.7699635
 132.4057633 105.7884456  96.0534550 127.6226253  96.2810476 103.2420680
 127.3787185  97.0352537 102.7054955 127.8986183  96.6595824 104.0767927
 129.5764716 102.8249088 101.9197945 129.7881611 103.4680848 101.2432326
 129.5294464 101.9911405 101.4519875 127.1790945  95.4366909  98.8234518
 126.3175424  95.7348163  99.1151255 127.2053379  95.6537308  97.8915550
 123.9952514 103.9809100  95.2308323 124.4590860 104.2596803  94.4412946
 123.7309312 103.0792544  95.0481414 120.8876595 103.5280581  98.1688086
 121.4577952 103.9567850  97.5305571 121.4784707 103.2463166  98.8672272
 122.9321400 100.1032252  92.0397888 123.6345443 100.5553296  92.5071815
 122.6002029  99.4616071  92.6677781 121.3801762  98.6944009 106.4149098
 120.7500422  99.3760290 106.6484495 121.2737849  98.5827090 105.4702236
 116.6746734  98.3615805  97.3415022 115.8845788  98.6173333  96.8655133
 117.1657981  99.1764143  97.4467062 130.6910544 105.7021044 100.0920303
 131.5127987 105.3001231  99.8102984 130.6872946 105.5989278 101.0436419
 118.6261479  98.7260384  94.2998499 117.8292643  98.8379078  94.8181994
 118.3987072  99.0647036  93.4339389 124.4567147 105.2505087 102.2481013
 124.5211580 105.7125494 103.0839185 123.7478071 104.6202452 102.3763323
 114.9584437  98.6146295  99.7730013 115.2092475  99.4993305 100.0387589
 115.4943985  98.4350897  99.0005105 138.7816537 102.0459792  96.4405274
 138.0280245 101.4767190  96.2849279 138.9164078 102.0122457  97.3875909
 124.1715165 106.9173195  92.1159994 124.0360839 107.7624730  92.5444841
 124.7124977 107.1192472  91.3525927 120.6582504  92.9964774 108.7774349
 120.2649450  92.4430973 109.4521993 121.4748645  93.3075353 109.1680866
 117.6244562 104.4348633  92.6887919 118.1369083 105.2291883  92.8393483
 118.2767275 103.7374923  92.6221520 119.4339447 107.5514389  94.7710672
 119.6106075 108.4732354  94.5831656 120.2296280 107.2372808  95.2005052
 123.5750465  94.4122654 106.3694605 124.3160179  95.0129807 106.2899068
 123.8068388  93.6700291 105.8112648 118.7191803  99.5979021 104.6472835
 118.6045318  98.6964278 104.9479934 117.8636321  99.8442718 104.2957652
 125.7983641 107.5396761 106.2460336 125.3547495 106.7533140 105.9281240
 126.4600855 107.7275912 105.5804226 120.5570762 109.0692563 100.7721014
 121.1078187 108.9409626  99.9998008 119.7182238 109.3687452 100.4215907
 127.8964879 107.8199561 104.2741737 127.8783354 108.6408442 103.7822006
 128.8184799 107.6953636 104.4991878 124.3537933 105.3343691 105.1165245
 124.8866270 104.5731979 104.8864553 123.8252014 105.0417342 105.8589400
 127.5207628  90.4403757 100.6458887 127.1771898  91.3305398 100.5697998
 127.8886591  90.2505414  99.7828472 115.5893479 102.7637287  93.4647489
 116.4268701 103.1734295  93.2481197 115.7671747 101.8236729  93.4347683
 127.4857911 100.4312368  89.1531322 126.9704534 101.2016972  89.3919710
 127.2135219  99.7577504  89.7764384 125.0705022  95.2762068  94.2116561
 124.2146618  94.8868919  94.0322199 125.4831974  95.3554029  93.3516346
 126.6004169  92.8108412  98.6108120 126.0968964  92.7738547  97.7975926
 126.8934775  93.7201154  98.6704777 122.8447054  92.8947141  97.6174302
 123.7100051  92.6989950  97.2580191 122.9124563  92.6657493  98.5443659
 132.4592185 103.1844722  91.0884496 131.6821628 102.8455882  90.6439658
 133.1383666 103.1897345  90.4139461 127.2744214  98.3039460  90.9791103
 126.9694350  98.6185609  91.8301247 128.2274656  98.3820880  91.0218436
 125.7190646 104.4629683  92.6284057 125.1912008 103.7282443  92.3157295
 125.2178149 105.2404359  92.3824026 130.6983492 102.6578704  97.7451104
 130.0407166 103.3477965  97.8331232 131.5023891 103.0475135  98.0885090
 120.4509374  95.1249349  94.9890669 121.0253125  94.9024531  94.2563862
 121.0380356  95.1938044  95.7419270 129.5088951 101.0123076  95.7955045
 130.0220833 101.6453068  96.2976755 130.1590175 100.4124272  95.4298405
 120.7778961  97.1553810  89.0086554 119.9416273  97.4928497  89.3295829
 120.6383730  97.0202790  88.0713691 122.7532041  91.9990598  93.7165738
 122.0996454  91.6839615  93.0922353 122.7112515  91.3766339  94.4425561
 123.8643246 102.2809893  85.6319030 122.9570308 102.0499147  85.8310179
 124.3614278 101.4847513  85.8193012 126.7711325 110.9907400  88.5515716
 126.0973024 111.2939097  89.1600674 127.1577147 111.7936481  88.2021174
 125.9869782  98.4872532  98.0413386 125.0692343  98.7087479  97.8835074
 126.4029925  98.5618842  97.1825093 126.7704829  99.8863947  93.1716066
 127.5176648 100.3985345  92.8623188 127.0396419  99.5648000  94.0320460
 125.0431480 102.3822488  90.1543020 124.1342699 102.0981521  90.2515490
 125.0726563 102.8021567  89.2946327 130.2750747 105.9929078  93.9234188
 129.8213074 105.1519988  93.9799378 129.6444714 106.6290476  94.2608968
 129.2183667  96.9221064  95.1534855 128.4806423  96.4098450  95.4845098
 129.4710440  96.4821445  94.3418132 128.7183686 107.8305574  94.8584006
 129.0106661 108.3910631  94.1396372 129.2282307 108.1234135  95.6137165
 129.3195294  89.6997316  95.7476625 129.6254171  88.8394679  95.4602540
 130.0447899  90.2914936  95.5475619 115.6119650 100.1028002  94.1358223
 115.4144050  99.5097363  93.4109289 115.0566314  99.7980212  94.8534161
 123.5916374  99.9951109  96.2552816 123.6464983  99.0424945  96.1795292
 122.7807576 100.1510548  96.7394114 124.7407567 103.9231232  87.4931099
 124.3026997 103.2067091  87.0336736 125.4818008 104.1507347  86.9316190
 121.5308734  98.6128169  94.0143195 120.7176599  98.9122339  94.4208387
 122.0267728  98.2183857  94.7317677 123.6817311 108.6085925  95.9477459
 123.6393490 108.8346772  95.0185991 124.5980010 108.3749300  96.0963260
 127.1282945  99.0769993 102.8458089 127.4832333  99.3041466 103.7052554
 127.7755076  99.4088370 102.2235344 132.8580682 102.1988429  93.5507418
 132.7198581 102.3890025  92.6228607 132.5016901 102.9607812  94.0075469
 121.0222808  96.1846524  99.6304430 121.6622188  96.0435283  98.9327393
 120.1900339  95.8981037  99.2543032 132.8850062 104.2664956  98.5618689
 133.3186568 104.1740245  99.4101743 133.5981642 104.2422456  97.9238705
 121.7983112 105.4848954  95.7439422 122.5923711 104.9899275  95.5421997
 121.0874805 104.9566818  95.3807128 126.6177957 107.8667050 100.0951790
 126.6714979 108.4357986 100.8629506 125.7492738 108.0368935  99.7305827
 118.1065876  99.6292036  91.8199175 117.1763464  99.5676492  92.0369137
 118.2023348  99.1067989  91.0235816 118.0251425  96.1546849  94.4077416
 118.2858242  97.0692182  94.2986577 118.8468597  95.6871292  94.5574029
 119.4976350  97.5684606 101.5776241 120.1699403  97.3601968 100.9288890
 118.6706137  97.3706692 101.1381473 133.7465611 104.3088657 101.0951574
 133.9401501 105.2134467 101.3410849 133.6466229 103.8496076 101.9290159
 125.4001922  94.1946547 103.5941902 124.7529837  94.8936497 103.5006378
 126.1702937  94.6282691 103.9618150 128.8080720 104.4595399 106.6692455
 128.6566226 104.2305951 105.7522539 128.7985399 105.4166001 106.6823800
 125.5766056 102.0327312 101.6538722 126.5058116 102.1838472 101.4807689
 125.1557086 102.1211333 100.7987368 124.3754388 106.0577976  99.4237259
 124.2365474 105.6896761 100.2963197 123.5868984 106.5725616  99.2521217
 124.9702540 111.1587073  90.7662796 125.1454296 110.6875116  91.5808418
 124.2835328 111.7852839  90.9944056 125.9259603 105.4359579  96.8126097
 125.5909436 105.3960349  97.7083747 125.4263549 104.7704295  96.3396507
 119.9003847 100.8427209 102.3378678 119.7623645 100.1107448 102.9390217
 120.8108771 100.7536109 102.0562866 128.8618795 102.7815613  87.0863157
 128.2447966 102.0562442  86.9896209 128.3935283 103.5424974  86.7430231
 122.5286148 100.5547169 101.8262358 123.2385766  99.9140361 101.7848976
 122.4855456 100.8060063 102.7488539 130.5172927 107.4914522 104.7468937
 130.4585473 106.8073742 104.0799520 130.9192445 108.2333512 104.2949563
 121.2415082  97.5412386 103.6457997 120.7052439  97.0903125 104.2979594
 120.6531790  97.6758295 102.9028462 119.5363625 114.3076436  97.5402656
 119.7760224 114.9394960  98.2181674 118.6932822 113.9564476  97.8268015
 120.6517341  97.0001038  86.2084461 119.7746807  96.8789839  85.8446708
 121.1275094  96.2087116  85.9563350 130.5190334 105.4554106 102.9782917
 129.6317113 105.1180028 103.1009315 131.0888885 104.7237137 103.2151682
 112.1719481 101.7878198  96.3025968 112.8590521 101.4739928  95.7146983
 112.0167610 102.6919562  96.0293219 116.9754203  96.6768394 100.7310992
 116.8912392  96.0694064  99.9961402 116.1536910  97.1677412 100.7320488
 124.0491487 110.1155558  99.9444160 123.9761659 110.9210530 100.4563464
 123.6068880 110.3147524  99.1192181 123.8381267 109.3527328  93.4546981
 123.0548789 109.8949008  93.5485206 124.5374012 109.8701308  93.8541223
 127.1477917  95.1621958  96.0981187 127.6446617  94.4091920  95.7782257
 126.3764899  95.1986274  95.5324396 135.0007674 100.8662323  97.7399478
 134.9897551 101.7487039  97.3693411 134.1325054 100.5133874  97.5454015
 126.5090171 110.0142392 102.1002318 127.2218143 110.6489857 102.0278220
 126.0180199 110.1106258 101.2842320 128.2307698 103.9193645  93.6719610
 127.2963976 104.0395107  93.5024314 128.4084366 103.0166112  93.4079620
 123.7312886  97.3039341  95.8252871 123.3610673  96.7510381  96.5133777
 124.2271978  96.6997474  95.2727871 131.6180249  99.7610964  94.2069644
 132.0840701 100.5938956  94.1329947 132.0687750  99.2955946  94.9114903
 121.5602084 107.7636836 102.9207889 122.2611544 108.3973319 103.0737284
 121.0897199 108.1051567 102.1603529 129.6856480 106.1054785  91.2055796
 129.9616324 105.9911380  92.1149670 128.8160979 105.7072270  91.1667969
 129.5896912  92.1291551  98.2460546 128.6759992  92.3595778  98.4142753
 130.0190013  92.2129995  99.0974578 129.3603370 100.3181443 100.7460440
 128.7074821 100.5657351 100.0912892 129.7383750  99.5045581 100.4122917
 126.3210544 110.3541136  94.8488610 126.5032939 109.5362792  95.3116362
 127.1443530 110.5708829  94.4113500 126.6552710 109.2809321  92.1103658
 127.1840476 108.7701776  91.4973821 126.9180929 108.9651852  92.9749191
 125.4090943 101.0601254 107.2326477 124.7331580 100.9595383 107.9028852
 126.2318577 100.9040468 107.6962474 117.1569802 107.2973191  99.8538992
 117.7423239 106.5516879  99.9866896 116.9594641 107.6077147 100.7375656
 120.0108458 110.3324438  94.8701434 119.3418833 110.8170566  94.3865474
 119.8721327 110.5793659  95.7844813 111.7487457  99.8678791  98.5743435
 111.7871557  99.3342382  99.3680553 111.2427750  99.3413996  97.9554412
 124.1513726 112.3668182 101.4684093 124.7032034 112.5299803 102.2333178
 124.4919920 112.9572619 100.7964118 119.1278219  94.7143331 102.0705977
 119.1919546  95.5758162 101.6583375 119.0645340  94.1017333 101.3378336
 118.6030492  96.7866464 105.7179012 119.2302531  96.4043541 106.3316536
 117.7458411  96.5680666 106.0834704 129.0024601 107.1929439 107.3232747
 129.5464505 107.8059397 106.8287702 128.4211445 107.7509018 107.8399760
 115.3796035  98.5942893  91.6497367 115.6749476  97.6853571  91.5964420
 114.4784071  98.5730632  91.3278369 127.2882114 110.3150157  98.4547775
 127.1633253 109.5139897  97.9458720 127.9461205 110.8096350  97.9661745
 118.9090282  96.6698890  97.6324915 118.1876868  97.2834857  97.4932388
 119.6983538  97.2056654  97.5541561 129.3517022 108.1159177 100.0827325
 128.4047357 107.9964528 100.0105652 129.6999795 107.2281675 100.1653586
 121.7116595  94.0053316 103.9065567 122.2350997  94.2515613 104.6691876
 121.4928929  94.8373351 103.4868704 117.1083876  96.2756991  91.7736692
 116.7796582  95.3954370  91.5911798 117.4623247  96.2204659  92.6613081
 126.3563455 107.9111893  96.2831677 126.2088418 106.9828601  96.4639247
 127.1816949 107.9331984  95.7988752 120.2225699  96.5629960  92.1412169
 120.5621772  97.0915882  91.4190778 120.6697820  96.9010367  92.9170736
 129.9597577 108.7340452  97.3696550 130.8844125 108.5283313  97.2321001
 129.7912880 108.4856853  98.2785891 122.9169140  94.9467011 101.5915237
 122.5765961  94.1474824 101.9935917 122.2108147  95.2468722 101.0192071
 123.5685612  92.0316324 100.0442560 124.3911681  91.5576802  99.9221451
 123.8123676  92.8106807 100.5441247 122.2093847  95.0604582  90.3405462
 122.9302209  95.4385835  89.8369179 121.5859151  95.7793459  90.4440440
 126.3524970  95.7649731  91.2763794 126.5688584  96.6474369  90.9752623
 125.8719037  95.3735944  90.5469436 121.0924191  98.7235444  97.8534539
 120.9468772  99.0375747  98.7458821 120.6149395  99.3420345  97.3005438
 122.9520574  95.7137992  97.9015429 122.9382143  94.8179086  97.5647727
 123.6693002  95.7208656  98.5353715 124.8046704  96.1475332  99.9468556
 124.5464482  97.0692403  99.9452886 124.2731745  95.7505767 100.6369020
 129.7492893 109.2526120  92.7258641 129.9229771 108.6872542  91.9732494
 130.2421784 110.0527014  92.5438131 115.5669853 101.2640789 100.7922200
 115.0223321 102.0400597 100.9242475 116.4449203 101.6111593 100.6341322
 122.3557470  94.5952373  93.1702999 122.4773381  93.6669019  93.3693886
 122.0659512  94.6091059  92.2581314 125.2248660  92.2807283  96.3069719
 125.2470357  92.3446616  95.3521698 125.6416719  91.4411792  96.5010225
 135.6032284 102.0162543  94.3448941 136.0463430 101.2669868  93.9468064
 134.7258795 102.0072679  93.9622673 130.7368066 108.5692884  89.8255540
 131.4318970 109.1899577  90.0442854 131.0791216 107.7188235  90.1007918
 116.3535875 100.3910685 103.6852357 115.6117611 100.5393320 104.2716988
 116.0328619 100.6518951 102.8219106 132.6359489 106.0192590  91.3542870
 133.1610813 106.3579862  90.6292190 132.5481841 105.0839605  91.1706005
 124.2979538 109.9326663 103.4832747 124.6066664 109.6875810 104.3555447
 125.0955020 110.1373302 102.9951617 124.3200150 112.0864573  95.7138124
 123.8805140 111.5940951  96.4070980 125.0708267 111.5437540  95.4730199
 116.7992489 108.2776114  95.7162752 117.6250509 107.9779886  95.3361395
 116.4486541 107.5083736  96.1652540 121.7674022 107.6302582  97.7860425
 121.1454031 106.9673287  97.4862653 122.4378889 107.6563714  97.1034073
 115.0001094 106.1962440  96.6751685 114.1633002 105.7684614  96.4935687
 114.9724739 106.3894883  97.6122477 121.8398549  96.1084370 107.3792931
 121.8886705  96.9846493 106.9970701 122.3821063  95.5661763 106.8064575
 132.3253395 106.6525493 106.6594068 131.5348939 106.6349632 106.1198568
 132.0886749 107.1913787 107.4143105 132.4451270 103.5017960 103.9726797
 132.4949275 103.3367967 104.9142320 132.3365193 102.6345219 103.5824678
 121.3287529 106.1806505  91.2618886 121.4775649 106.8641970  90.6085559
 122.1353972 106.1611595  91.7768342 129.7355032  99.4848888 105.2886104
 130.6364895  99.3455352 104.9970101 129.8103007  99.6503342 106.2284281
 124.0697838  96.8615742 104.1339290 123.2001147  97.1549308 103.8621879
 124.3057318  97.4456187 104.8546554 133.9469467 105.9214901 104.2168818
 133.6554275 106.2844882 105.0532279 133.3341598 105.2081909 104.0382151
 135.1465149 103.4867781  96.7371389 135.9812041 103.9257585  96.9008949
 135.2824278 103.0106434  95.9179634 132.1956655 101.0447516 102.6848876
 132.6710777 101.2375162 101.8767728 131.2722220 101.1006702 102.4392260
 119.0840162 102.2071683  92.2679955 118.8386204 101.3034013  92.4660165
 119.2536076 102.2088833  91.3259433 126.7736872  93.0795359 101.6504710
 127.2918815  93.8156386 101.3251199 126.4192004  93.3859353 102.4851469
 118.3535809  97.9400040  89.7666116 117.6605054  98.0144395  89.1106152
 118.1087561  97.1760384  90.2887633 127.0249466  89.4995642  97.1705607
 127.3051219  88.8318831  97.7966034 127.8100073  89.6924737  96.6580271
 124.8282934 108.6754636  88.7330633 124.2556901 109.2944823  88.2801105
 125.4015728 109.2253997  89.2670555 130.8958324  97.9213276 100.9177182
 131.8475747  98.0211373 100.9389406 130.7261774  97.1291544 101.4275266
 128.9172704  95.0068859 101.1036583 128.3222636  95.2873872 100.4083072
 128.6322400  95.4962760 101.8753324 128.0480194 108.9591786  89.8639216
 128.9810867 108.8937347  90.0672091 127.9603407 109.7948053  89.4053748
 130.6768211 108.2757656  86.8243163 130.5981842 107.9417520  87.7178921
 131.4977877 108.7679424  86.8234635 133.3746402 101.1419395 100.0319482
 133.3422722 100.2035396 100.2179166 133.9847025 101.2203432  99.2985307
 125.2129733 100.0115448  86.0746686 126.1588837  99.8821657  86.1435104
 124.8343978  99.2730110  86.5516114 133.5240890  97.9330439 100.0777765
 133.0079939  97.1488896  99.8907694 134.4080839  97.6049156 100.2424284
 131.1851617  91.6771454  96.0373578 130.9876438  91.3686543  96.9216910
 131.7951323  92.4033093  96.1671507 139.1922952 102.2035402  99.1725519
 139.9226340 101.9420690  99.7333222 138.5829897 101.4664124  99.2127587
 137.2738249 100.3443265  99.7699970 136.5471412 100.2099230  99.1616461
 136.8585536 100.6520093 100.5756688 125.0968425 104.0633195 107.5347343
 126.0171435 104.2411794 107.7287389 125.0618008 103.1189240 107.3827042
 123.3972650  97.9365425  86.0101571 122.4904105  97.6398538  86.0864285
 123.6748631  97.6395243  85.1435857 114.3150590  99.2571788  96.4600617
 113.9953375  98.4037096  96.1674991 113.7684018  99.4720366  97.2158585
 118.0930498 101.9734229 100.1770124 118.3116508 102.9051337 100.1958158
 118.5056272 101.6142204 100.9624928 125.0134716  92.4802315  92.1645812
 124.2035444  92.1349400  92.5401058 125.7019133  92.1709858  92.7533424
 126.9425264  91.5580361  93.7870109 127.4956302  91.9775815  94.4460132
 127.1795350  90.6316109  93.8293065 122.9658363  97.5467435 109.5672873
 122.8655090  98.4961792 109.4984964 122.7479905  97.2185674 108.6948943
 122.1671434  94.7952360  86.1513550 123.0290598  95.1207258  86.4109368
 122.3521779  94.0083856  85.6386616 114.1838850 102.8774700  98.4293739
 113.4902322 102.4628653  97.9163693 114.9311841 102.9195236  97.8327158
 130.3204071  93.6680886  93.2948773 129.7402740  94.3265691  92.9126826
 130.0540004  92.8458231  92.8836191 128.7707637  93.0685944  95.4970094
 129.2707416  93.1802479  94.6884412 129.4143245  92.7646997  96.1370902
 122.8289633 100.9764574 108.3837934 122.3456715 101.7764934 108.5901824
 122.9150572 100.9872519 107.4305378 116.0975593 102.8092954  96.3059754
 116.0746281 102.9080641  95.3541637 116.4076229 103.6558104  96.6276920
 118.7562971 104.8669109 100.4206368 119.7106224 104.8353051 100.3536300
 118.5575494 104.4059732 101.2356594 119.3462353 103.4370225 102.9877166
 120.1655242 103.9314303 103.0112003 119.6199160 102.5202193 102.9594733
 129.1028949  95.8280977  92.3505121 128.2154804  96.1130628  92.1325316
 129.5182938  95.6674740  91.5032398 132.4543485  95.8527498  96.0659461
 133.2303875  96.3423950  96.3384078 131.7291619  96.2785552  96.5231330
 134.8916044  96.5655117  97.1233401 135.4860535  96.3250853  96.4126710
 134.9642627  95.8462248  97.7506938 117.1113199 110.4088728  97.4376566
 116.9767667 109.6489129  96.8714564 116.6945262 111.1329628  96.9705355
 128.2472162 105.5925652  86.4453141 128.9508013 105.7975654  87.0610797
 127.5234811 106.1602413  86.7102225 129.0769973 101.3435513  92.5655412
 129.0205174 101.8004064  91.7263044 129.6298315 100.5826197  92.3878254
 132.8874779  97.1325245  93.3905531 132.6311713  96.7321880  94.2213739
 132.2627647  97.8469039  93.2655670 137.1987116  99.8721318  95.8976823
 136.6386674  99.9414507  96.6708385 136.5930620  99.6962303  95.1776319
 120.2682325 111.3058045  97.6495009 120.1514709 112.2503478  97.5473699
 119.4474772 111.0031607  98.0380808 130.1558860 106.0308181  88.4951601
 130.9904464 105.5989379  88.3129076 129.9943203 105.8590194  89.4228496
 129.8104752 102.5340294  89.8607941 129.7553556 102.3684565  88.9196385
 129.1850807 103.2416327  90.0170131 114.5997267  97.7708358 103.6869363
 115.2456131  97.2607312 104.1756588 114.3914418  98.5077040 104.2612788
 127.1250659 104.8389206 109.1861504 127.9941819 105.0129858 108.8248138
 126.6457411 105.6583623 109.0637233 123.1200877  92.0348403  89.4393259
 123.1079547  92.9790243  89.5961530 124.0124299  91.8518548  89.1452720
 121.2936839 111.9586307 100.8650937 122.1964086 111.9909917 101.1817432
 121.0674209 111.0286758 100.8797273 123.0490441 110.7117293  97.5261016
 122.0986072 110.7119155  97.4125388 123.3522928 109.9650028  97.0097050
 126.9352997  88.6291180  93.6939196 126.1685393  88.0749666  93.8395878
 127.3463702  88.7013048  94.5553348 118.9394758  94.9175976 107.7844377
 119.8026220  94.5612780 107.9947702 118.3660169  94.5789870 108.4719782
 138.7843135 116.5477832  98.5906778 139.4221545 116.4284579  97.8870118
 138.6663978 117.4958676  98.6494730 135.5932841 116.5005260  98.5268303
 135.2551353 116.3846325  97.6388838 136.4622609 116.0996425  98.5069309
 131.4519657 118.3540736  94.5165194 130.8884522 118.2630673  93.7481482
 131.3372052 117.5340641  94.9967686 128.9984089 119.8491928  97.3549414
 129.7905381 119.5082753  96.9395714 129.2380739 119.9586903  98.2751568
 137.0319216 122.0211704  89.8279659 136.3807195 122.6065784  89.4413673
 137.8263578 122.5517899  89.8874696 130.9574843 119.1100841  90.2266793
 131.7305719 118.5629828  90.0879669 131.3100242 119.9745091  90.4381255
 133.7216092 117.8154072 100.0235052 134.3179664 117.5910094  99.3092015
 133.7791064 117.0738817 100.6260500 133.2941121 115.2693507  87.8585243
 133.5466641 114.7475029  87.0968706 132.3565680 115.1059653  87.9611927
 138.3384403 114.2729286  95.6659986 139.1247493 113.8548709  95.3150403
 138.6023108 115.1775378  95.8341635 138.5094481 119.7102136  90.3648643
 137.8740314 119.7836763  91.0769548 138.1791887 120.2995735  89.6867722
 133.0137409 117.1721613  90.0609618 132.8973667 116.4966517  90.7290702
 133.1239669 116.6853987  89.2441771 135.3568950 116.6331760  93.7656307
 134.9927157 116.1062381  94.4769229 136.2136066 116.2430229  93.5922793
 134.9974437 111.6621660  88.7617656 135.1648840 112.5301897  89.1288127
 134.8071606 111.8248942  87.8378945 131.2062252 116.5752436  96.4620191
 130.2812748 116.4428650  96.6697882 131.4546665 117.3546655  96.9590133
 141.1546914 112.6421179  98.1080923 140.2463792 112.5736588  97.8139684
 141.1034510 113.1193124  98.9362749 134.9763658 114.1179318  89.7464323
 134.8563283 114.5636368  90.5849803 134.2816246 114.4664635  89.1877861
 128.5671063 116.2185709  97.2963980 128.6963444 116.4720188  98.2103391
 127.8868514 116.8113417  96.9768635 135.3120562 113.9498025 101.5839506
 136.1581757 114.3737439 101.7274155 135.2519200 113.2931650 102.2778069
 139.2818307 119.5726609  97.9658238 138.6527169 119.7372323  97.2634306
 138.8943969 119.9868219  98.7369202 138.4620007 111.6102394 103.2420680
 138.2180939 112.3644454 102.7054955 138.7379938 111.9887741 104.0767927
 138.0184699 110.7658827  98.8234518 137.1569178 111.0640080  99.1151255
 138.0447134 110.9829226  97.8915550 134.8346268 119.3101017  95.2308323
 135.2984614 119.5888720  94.4412946 134.5703067 118.4084462  95.0481414
 131.7270350 118.8572499  98.1688086 132.2971707 119.2859767  97.5305571
 132.3178461 118.5755084  98.8672272 133.7715155 115.4324170  92.0397888
 134.4739198 115.8845213  92.5071815 133.4395783 114.7907989  92.6677781
 127.5140488 113.6907722  97.3415022 126.7239542 113.9465251  96.8655133
 128.0051736 114.5056060  97.4467062 129.4655234 114.0552302  94.2998499
 128.6686397 114.1670996  94.8181994 129.2380826 114.3938954  93.4339389
 125.7978191 113.9438213  99.7730013 126.0486230 114.8285223 100.0387589
 126.3337740 113.7642814  99.0005105 135.0108919 122.2465112  92.1159994
 134.8754594 123.0916648  92.5444841 135.5518732 122.4484390  91.3525927
 131.4976259 108.3256692 108.7774349 131.1043204 107.7722891 109.4521993
 132.3142399 108.6367271 109.1680866 128.4638317 119.7640550  92.6887919
 128.9762837 120.5583801  92.8393483 129.1161029 119.0666841  92.6221520
 130.2733201 122.8806307  94.7710672 130.4499830 123.8024271  94.5831656
 131.0690035 122.5664726  95.2005052 134.4144220 109.7414571 106.3694605
 135.1553933 110.3421724 106.2899068 134.6462143 108.9992209 105.8112648
 129.5585558 114.9270939 104.6472835 129.4439073 114.0256196 104.9479934
 128.7030076 115.1734635 104.2957652 131.3964517 124.3984480 100.7721014
 131.9471942 124.2701544  99.9998008 130.5575993 124.6979369 100.4215907
 138.3601383 105.7695674 100.6458887 138.0165652 106.6597316 100.5697998
 138.7280345 105.5797332  99.7828472 126.4287233 118.0929205  93.4647489
 127.2662455 118.5026213  93.2481197 126.6065501 117.1528647  93.4347683
 138.3251665 115.7604285  89.1531322 137.8098289 116.5308890  89.3919710
 138.0528974 115.0869421  89.7764384 135.9098776 110.6053986  94.2116561
 135.0540373 110.2160836  94.0322199 136.3225728 110.6845947  93.3516346
 137.4397923 108.1400329  98.6108120 136.9362719 108.1030465  97.7975926
 137.7328530 109.0493072  98.6704777 133.6840809 108.2239059  97.6174302
 134.5493806 108.0281868  97.2580191 133.7518318 107.9949411  98.5443659
 138.1137969 113.6331377  90.9791103 137.8088104 113.9477527  91.8301247
 139.0668411 113.7112797  91.0218436 136.5584400 119.7921601  92.6284057
 136.0305762 119.0574360  92.3157295 136.0571903 120.5696277  92.3824026
 131.2903128 110.4541267  94.9890669 131.8646880 110.2316448  94.2563862
 131.8774110 110.5229962  95.7419270 140.3482705 116.3414994  95.7955045
 140.8614587 116.9744986  96.2976755 140.9983929 115.7416189  95.4298405
 131.6172715 112.4845728  89.0086554 130.7810027 112.8220415  89.3295829
 131.4777485 112.3494708  88.0713691 133.5925796 107.3282516  93.7165738
 132.9390208 107.0131533  93.0922353 133.5506270 106.7058256  94.4425561
 134.7037001 117.6101811  85.6319030 133.7964062 117.3791064  85.8310179
 135.2008033 116.8139430  85.8193012 136.8263536 113.8164449  98.0413386
 135.9086098 114.0379396  97.8835074 137.2423680 113.8910760  97.1825093
 137.6098584 115.2155865  93.1716066 138.3570403 115.7277262  92.8623188
 137.8790173 114.8939918  94.0320460 135.8825234 117.7114406  90.1543020
 134.9736453 117.4273439  90.2515490 135.9120318 118.1313484  89.2946327
 140.0577421 112.2512981  95.1534855 139.3200178 111.7390368  95.4845098
 140.3104195 111.8113363  94.3418132 140.1589048 105.0289233  95.7476625
 140.4647925 104.1686597  95.4602540 140.8841653 105.6206854  95.5475619
 126.4513404 115.4319920  94.1358223 126.2537804 114.8389281  93.4109289
 125.8960068 115.1272130  94.8534161 134.4310128 115.3243026  96.2552816
 134.4858738 114.3716863  96.1795292 133.6201330 115.4802466  96.7394114
 135.5801322 119.2523150  87.4931099 135.1420752 118.5359008  87.0336736
 136.3211763 119.4799264  86.9316190 132.3702488 113.9420086  94.0143195
 131.5570354 114.2414257  94.4208387 132.8661482 113.5475775  94.7317677
 134.5211066 123.9377843  95.9477459 134.4787245 124.1638689  95.0185991
 135.4373765 123.7041218  96.0963260 137.9676700 114.4061911 102.8458089
 138.3226087 114.6333384 103.7052554 138.6148831 114.7380287 102.2235344
 131.8616563 111.5138442  99.6304430 132.5015942 111.3727201  98.9327393
 131.0294093 111.2272955  99.2543032 132.6376867 120.8140872  95.7439422
 133.4317465 120.3191192  95.5421997 131.9268559 120.2858735  95.3807128
 128.9459630 114.9583954  91.8199175 128.0157218 114.8968409  92.0369137
 129.0417102 114.4359907  91.0235816 128.8645179 111.4838767  94.4077416
 129.1251997 112.3984100  94.2986577 129.6862352 111.0163209  94.5574029
 130.3370105 112.8976524 101.5776241 131.0093158 112.6893886 100.9288890
 129.5099891 112.6998610 101.1381473 136.2395677 109.5238465 103.5941902
 135.5923592 110.2228414 103.5006378 137.0096692 109.9574609 103.9618150
 136.4159811 117.3619230 101.6538722 137.3451871 117.5130389 101.4807689
 135.9950841 117.4503251 100.7987368 135.2148143 121.3869894  99.4237259
 135.0759228 121.0188679 100.2963197 134.4262739 121.9017534  99.2521217
 136.7653358 120.7651497  96.8126097 136.4303190 120.7252267  97.7083747
 136.2657304 120.0996213  96.3396507 130.7397602 116.1719127 102.3378678
 130.6017400 115.4399366 102.9390217 131.6502525 116.0828027 102.0562866
 139.7012549 118.1107531  87.0863157 139.0841720 117.3854359  86.9896209
 139.2329038 118.8716891  86.7430231 133.3679902 115.8839086 101.8262358
 134.0779521 115.2432278 101.7848976 133.3249211 116.1351981 102.7488539
 132.0808836 112.8704304 103.6457997 131.5446193 112.4195043 104.2979594
 131.4925545 113.0050213 102.9028462 131.4911095 112.3292955  86.2084461
 130.6140562 112.2081756  85.8446708 131.9668848 111.5379034  85.9563350
 123.0113236 117.1170115  96.3025968 123.6984275 116.8031845  95.7146983
 122.8561364 118.0211480  96.0293219 127.8147958 112.0060312 100.7310992
 127.7306146 111.3985981  99.9961402 126.9930664 112.4969330 100.7320488
 137.9871672 110.4913875  96.0981187 138.4840371 109.7383838  95.7782257
 137.2158653 110.5278192  95.5324396 139.0701452 119.2485563  93.6719610
 138.1357731 119.3687025  93.5024314 139.2478121 118.3458029  93.4079620
 134.5706640 112.6331258  95.8252871 134.2004428 112.0802299  96.5133777
 135.0665733 112.0289392  95.2727871 140.4290666 107.4583469  98.2460546
 139.5153746 107.6887696  98.4142753 140.8583768 107.5421913  99.0974578
 140.1997125 115.6473361 100.7460440 139.5468575 115.8949268 100.0912892
 140.5777505 114.8337499 100.4122917 127.9963557 122.6265108  99.8538992
 128.5816994 121.8808796  99.9866896 127.7988395 122.9369065 100.7375656
 130.8502212 125.6616356  94.8701434 130.1812587 126.1462483  94.3865474
 130.7115082 125.9085576  95.7844813 122.5881212 115.1970709  98.5743435
 122.6265311 114.6634299  99.3680553 122.0821504 114.6705914  97.9554412
 129.9671974 110.0435249 102.0705977 130.0313300 110.9050080 101.6583375
 129.9039094 109.4309251 101.3378336 129.4424246 112.1158382 105.7179012
 130.0696285 111.7335459 106.3316536 128.5852165 111.8972584 106.0834704
 126.2189789 113.9234811  91.6497367 126.5143230 113.0145489  91.5964420
 125.3177825 113.9022550  91.3278369 129.7484036 111.9990807  97.6324915
 129.0270622 112.6126775  97.4932388 130.5377292 112.5348572  97.5541561
 132.5510350 109.3345234 103.9065567 133.0744752 109.5807530 104.6691876
 132.3322683 110.1665269 103.4868704 127.9477631 111.6048908  91.7736692
 127.6190337 110.7246287  91.5911798 128.3017002 111.5496577  92.6613081
 131.0619454 111.8921878  92.1412169 131.4015526 112.4207799  91.4190778
 131.5091574 112.2302284  92.9170736 133.7562895 110.2758929 101.5915237
 133.4159715 109.4766742 101.9935917 133.0501901 110.5760640 101.0192071
 134.4079367 107.3608241 100.0442560 135.2305436 106.8868720  99.9221451
 134.6517430 108.1398725 100.5441247 133.0487601 110.3896500  90.3405462
 133.7695964 110.7677753  89.8369179 132.4252905 111.1085377  90.4440440
 137.1918724 111.0941649  91.2763794 137.4082338 111.9766287  90.9752623
 136.7112791 110.7027862  90.5469436 131.9317945 114.0527362  97.8534539
 131.7862526 114.3667665  98.7458821 131.4543149 114.6712262  97.3005438
 133.7914328 111.0429910  97.9015429 133.7775897 110.1471003  97.5647727
 134.5086756 111.0500574  98.5353715 135.6440459 111.4767250  99.9468556
 135.3858237 112.3984321  99.9452886 135.1125499 111.0797685 100.6369020
 126.4063608 116.5932706 100.7922200 125.8617076 117.3692514 100.9242475
 127.2842957 116.9403511 100.6341322 133.1951224 109.9244290  93.1702999
 133.3167135 108.9960936  93.3693886 132.9053267 109.9382976  92.2581314
 136.0642415 107.6099201  96.3069719 136.0864111 107.6738534  95.3521698
 136.4810474 106.7703709  96.5010225 127.1929629 115.7202603 103.6852357
 126.4511365 115.8685238 104.2716988 126.8722374 115.9810868 102.8219106
 127.6386243 123.6068031  95.7162752 128.4644263 123.3071803  95.3361395
 127.2880295 122.8375654  96.1652540 132.6067776 122.9594500  97.7860425
 131.9847786 122.2965205  97.4862653 133.2772643 122.9855631  97.1034073
 125.8394848 121.5254358  96.6751685 125.0026756 121.0976532  96.4935687
 125.8118494 121.7186801  97.6122477 132.6792304 111.4376288 107.3792931
 132.7280459 112.3138410 106.9970701 133.2214818 110.8953681 106.8064575
 132.1681283 121.5098423  91.2618886 132.3169404 122.1933887  90.6085559
 132.9747727 121.4903513  91.7768342 134.9091592 112.1907660 104.1339290
 134.0394902 112.4841226 103.8621879 135.1451073 112.7748105 104.8546554
 129.9233916 117.5363601  92.2679955 129.6779958 116.6325931  92.4660165
 130.0929831 117.5380751  91.3259433 137.6130626 108.4087277 101.6504710
 138.1312570 109.1448304 101.3251199 137.2585759 108.7151270 102.4851469
 129.1929564 113.2691958  89.7666116 128.4998809 113.3436313  89.1106152
 128.9481316 112.5052302  90.2887633 137.8643220 104.8287559  97.1705607
 138.1444974 104.1610749  97.7966034 138.6493827 105.0216655  96.6580271
 139.7566458 110.3360777 101.1036583 139.1616390 110.6165789 100.4083072
 139.4716155 110.8254678 101.8753324 136.0523487 115.3407366  86.0746686
 136.9982592 115.2113574  86.1435104 135.6737732 114.6022028  86.5516114
 134.2366404 113.2657342  86.0101571 133.3297860 112.9690455  86.0864285
 134.5142385 112.9687161  85.1435857 125.1544345 114.5863706  96.4600617
 124.8347129 113.7329014  96.1674991 124.6077773 114.8012284  97.2158585
 128.9324252 117.3026147 100.1770124 129.1510262 118.2343255 100.1958158
 129.3450026 116.9434121 100.9624928 135.8528470 107.8094232  92.1645812
 135.0429198 107.4641317  92.5401058 136.5412887 107.5001776  92.7533424
 137.7819018 106.8872279  93.7870109 138.3350057 107.3067732  94.4460132
 138.0189105 105.9608027  93.8293065 133.0065189 110.1244278  86.1513550
 133.8684353 110.4499176  86.4109368 133.1915533 109.3375774  85.6386616
 125.0232605 118.2066617  98.4293739 124.3296076 117.7920570  97.9163693
 125.7705596 118.2487154  97.8327158 139.6101392 108.3977862  95.4970094
 140.1101170 108.5094396  94.6884412 140.2537000 108.0938915  96.1370902
 126.9369347 118.1384871  96.3059754 126.9140035 118.2372558  95.3541637
 127.2469984 118.9850022  96.6276920 129.5956725 120.1961026 100.4206368
 130.5499979 120.1644969 100.3536300 129.3969249 119.7351650 101.2356594
 130.1856107 118.7662142 102.9877166 131.0048996 119.2606221 103.0112003
 130.4592915 117.8494110 102.9594733 139.9422703 111.1572895  92.3505121
 139.0548558 111.4422545  92.1325316 140.3576693 110.9966658  91.5032398
 127.9506954 125.7380646  97.4376566 127.8161422 124.9781047  96.8714564
 127.5339016 126.4621546  96.9705355 139.0865917 120.9217569  86.4453141
 139.7901767 121.1267572  87.0610797 138.3628566 121.4894331  86.7102225
 139.9163727 116.6727430  92.5655412 139.8598929 117.1295982  91.7263044
 140.4692070 115.9118115  92.3878254 131.1076080 126.6349963  97.6495009
 130.9908464 127.5795395  97.5473699 130.2868526 126.3323524  98.0380808
 140.6498507 117.8632212  89.8607941 140.5947310 117.6976483  88.9196385
 140.0244562 118.5708245  90.0170131 125.4391021 113.1000276 103.6869363
 126.0849885 112.5899230 104.1756588 125.2308173 113.8368958 104.2612788
 133.9594632 107.3640321  89.4393259 133.9473302 108.3082161  89.5961530
 134.8518054 107.1810466  89.1452720 137.7746751 103.9583097  93.6939196
 137.0079147 103.4041584  93.8395878 138.1857456 104.0304966  94.5553348
 129.7788512 110.2467893 107.7844377 130.6419974 109.8904698 107.9947702
 129.2053923 109.9081788 108.4719782  56.8614270  -3.4098342  80.1199760
  56.7838300  -2.4590517  80.1988241  56.2575914  -3.7552469  80.7774687
  59.1352639  -8.0516189  78.8405300  58.9998314  -7.2064653  79.2690148
  59.6762451  -7.8496911  78.0771234  54.3976921  -7.4174995  81.4955978
  54.5743549  -6.4957030  81.3076962  55.1933755  -7.7316575  81.9250358
  55.5208237  -5.8996821  87.4966321  56.0715662  -6.0279757  86.7243315
  54.6819712  -5.6001932  87.1461214  61.7348799  -3.9781983  75.2761023
  61.0610498  -3.6750286  75.8845981  62.1214621  -3.1752903  74.9266480
  58.6454786  -6.3603458  82.6722766  58.6030965  -6.1342612  81.7431298
  59.5617485  -6.5940083  82.8208567  61.5815431  -7.1022333  86.8197096
  61.6352453  -6.5331397  87.5874812  60.7130212  -6.9320448  86.4551133
  59.9340014  -3.8102311  77.4908102  60.1091770  -4.2814267  78.3053725
  59.2472803  -3.1836544  77.7189363  54.5001100  -0.6612948  84.2647962
  54.7397698  -0.0294424  84.9426981  53.6570296  -1.0124908  84.5513322
  59.0128962  -4.8533825  86.6689466  58.9399133  -4.0478854  87.1808771
  58.5706355  -4.6541860  85.8437488  58.8018741  -5.6162055  80.1792288
  58.0186263  -5.0740375  80.2730513  59.5011486  -5.0988076  80.5786529
  61.4727645  -4.9546991  88.8247625  62.1855617  -4.3199526  88.7523527
  60.9817674  -4.8583125  88.0087627  56.5239559  -7.2052548  89.6453196
  57.2249018  -6.5716065  89.7982590  56.0534674  -6.8637816  88.8848835
  61.2848019  -4.6148247  81.5733917  61.4670413  -5.4326591  82.0361669
  62.1081005  -4.3980555  81.1358807  61.6190184  -5.6880062  78.8348965
  62.1477950  -6.1987607  78.2219127  61.8818404  -6.0037532  79.6994498
  52.1207277  -7.6716193  86.5784299  52.7060714  -8.4172505  86.7112203
  51.9232115  -7.3612236  87.4620963  54.9745932  -4.6364945  81.5946741
  54.3056307  -4.1518818  81.1110781  54.8358802  -4.3895725  82.5090120
  59.1151201  -2.6021202  88.1929399  59.6669509  -2.4389580  88.9578485
  59.4557394  -2.0116764  87.5209424  62.2519588  -4.6539226  85.1793082
  62.1270727  -5.4549487  84.6704027  62.9098679  -4.1593033  84.6907052
  59.2617012  -5.0362720  90.2078054  59.5704138  -5.2813574  91.0800753
  60.0592494  -4.8316082  89.7196924  59.2837624  -2.8824811  82.4383430
  58.8442614  -3.3748432  83.1316287  60.0345741  -3.4251843  82.1975506
  51.7629963  -6.6913270  82.4408058  52.5887983  -6.9909498  82.0606702
  51.4124015  -7.4605647  82.8897847  56.7311496  -7.3386802  84.5105732
  56.1091505  -8.0016097  84.2107960  57.4016363  -7.3125670  83.8279380
  49.9638568  -8.7726943  83.3996992  49.1270476  -9.2004769  83.2180993
  49.9362213  -8.5794500  84.3367783  59.7920409  -6.2934748  75.4575940
  59.2194376  -5.6744561  75.0046412  60.3653202  -5.7435386  75.9915862
  63.0117668  -6.0097598  76.5884522  63.9448341  -6.0752036  76.7917398
  62.9240881  -5.1741331  76.1299055  52.0750674  -4.5600655  84.1621873
  51.9405142  -5.3200255  83.5959871  51.6582736  -3.8359756  83.6950662
  55.2319800  -3.6631338  84.3740315  55.1152184  -2.7185906  84.2719006
  54.4112246  -3.9657777  84.7626115  56.2574314  -3.0103077  87.5896244
  57.1601560  -2.9779466  87.9062739  56.0311684  -3.9402626  87.6042580
  58.0127916  -4.2572090  84.2506322  57.0623547  -4.2570228  84.1370695
  58.3160402  -5.0039355  83.7342357  73.7480609   1.5788448  85.3152085
  74.3859019   1.4595196  84.6115425  73.6301452   2.5269292  85.3740037
  70.5570316   1.5315877  85.2513610  70.2188827   1.4156941  84.3634144
  71.4260084   1.1307042  85.2314616  66.4157131   3.3851353  81.2410501
  65.8521996   3.2941290  80.4726788  66.3009526   2.5651257  81.7212993
  71.0390099   2.6850728  91.2099815  71.0278739   2.2903527  90.3380319
  71.2010738   1.9516801  91.8033587  63.9621563   4.8802545  84.0794721
  64.7542855   4.5393369  83.6641020  64.2018213   4.9897520  84.9996874
  71.9956690   7.0522321  76.5524965  71.3444670   7.6376401  76.1658979
  72.7901053   7.5828516  76.6120003  65.9212317   4.1411458  76.9512100
  66.6943193   3.5940445  76.8124976  66.2737716   5.0055707  77.1626561
  67.7597360   5.4687840  90.1578999  67.4687226   6.3733471  90.0425665
  68.3954344   5.5104368  90.8723069  68.6853567   2.8464689  86.7480359
  69.2817139   2.6220711  86.0337322  68.7428538   2.1049434  87.3505807
  68.2578595   0.3004124  74.5830550  68.5104116  -0.2214355  73.8214013
  67.3203154   0.1370269  74.6857233  73.3021878  -0.6960098  82.3905293
  74.0884967  -1.1140675  82.0395710  73.5660582   0.2085994  82.5586941
  73.4731955   4.7412753  77.0893950  72.8377788   4.8147379  77.8014854
  73.1429361   5.3306351  76.4113029  67.9774884   2.2032230  76.7854925
  67.8611142   1.5277133  77.4536009  68.0877144   1.7164604  75.9687078
  70.3206425   1.6642377  80.4901614  69.9564632   1.1372998  81.2014535
  71.1773540   1.2740846  80.3168099  69.9611912  -3.3067723  75.4862962
  70.1286314  -2.4387487  75.8533433  69.7709081  -3.1440442  74.5624252
  72.7187245   5.1549256  87.1528793  72.4187968   6.0574294  87.0444600
  72.3738304   4.8881439  88.0049946  66.1699726   1.6063052  83.1865497
  65.2450223   1.4739267  83.3943189  66.4184139   2.3857272  83.6835440
  69.9401132  -0.8510066  76.4709629  69.8200758  -0.4053015  77.3095110
  69.2453721  -0.5024748  75.9123167  63.5308537   1.2496326  84.0209286
  63.6600918   1.5030805  84.9348698  62.8505989   1.8424034  83.7013941
  67.7008025  11.9193576  80.1199760  67.6232054  12.8701401  80.1988241
  67.0969668  11.5739448  80.7774687  70.1925254  -0.9078559  92.7761127
  69.4158588  -0.3484639  92.7663992  70.8315817  -0.4221776  93.2975997
  75.6386199  -0.3788593  77.2989963  76.5504055  -0.1461206  77.1237661
  75.1295846   0.2048452  76.7365042  68.4471627   1.9006895  92.3379094
  69.1886311   2.4391939  92.0613918  67.7408612   2.5273183  92.4950646
  73.9226966   4.0436035  90.9351256  74.3310322   3.6018446  90.1905888
  73.2004228   3.4688663  91.1885449  70.2758036  -1.0191358  88.3084813
  71.1219232  -0.5951945  88.4519462  70.2156674  -1.6757734  89.0023376
  74.2455781   4.6037226  84.6903545  73.6164643   4.7682940  83.9879613
  73.8581443   5.0178835  85.4614509  78.1245013   5.5391664  82.0447909
  77.4396051   5.9190565  81.4944942  78.2088862   6.1486990  82.7779856
  75.3795944   3.1851623  88.6443252  75.5912840   3.8283383  87.9677633
  75.3325693   2.3513939  88.1765182  69.7983743   4.3411634  81.9553630
  70.2622088   4.6199337  81.1658252  69.5340541   3.4395078  81.7726721
  66.6907824   3.8883115  84.8933393  67.2609181   4.3170384  84.2550878
  67.2815936   3.6065700  85.5917579  68.7352629   0.4634786  78.7643195
  69.4376672   0.9155830  79.2317121  68.4033257  -0.1781395  79.3923088
  67.1832990  -0.9453457  93.1394404  66.5531651  -0.2637176  93.3729801
  67.0769078  -1.0570376  92.1947543  62.4777963  -1.2781661  84.0660329
  61.6877017  -1.0224133  83.5900439  62.9689210  -0.4633323  84.1712369
  76.4941772   6.0623578  86.8165609  77.3159216   5.6603765  86.5348291
  76.4904175   5.9591812  87.7681725  64.4292708  -0.9137082  81.0243805
  63.6323871  -0.8018388  81.5427301  64.2018300  -0.5750430  80.1584696
  70.2598376   5.6107621  88.9726320  70.3242808   6.0728029  89.8084492
  69.5509300   4.9804986  89.1008630  60.7615666  -1.0251171  86.4975319
  61.0123704  -0.1404161  86.7632895  61.2975214  -1.2046569  85.7250411
  84.5847765   2.4062327  83.1650581  83.8311474   1.8369725  83.0094585
  84.7195307   2.3724991  84.1121216  69.9746393   7.2775729  78.8405300
  69.8392068   8.1227265  79.2690148  70.5156206   7.4795007  78.0771234
  63.4275791   4.7951167  79.4133225  63.9400311   5.5894417  79.5638790
  64.0798504   4.0977457  79.3466827  65.2370676   7.9116923  81.4955978
  65.4137304   8.8334888  81.3076962  66.0327509   7.5975342  81.9250358
  64.5223032  -0.0418445  91.3718142  64.4076547  -0.9433188  91.6725241
  63.6667550   0.2045252  91.0202958  71.6014870   7.8999295  92.9705642
  71.1578724   7.1135674  92.6526547  72.2632083   8.0878446  92.3049533
  66.3601991   9.4295097  87.4966321  66.9109416   9.3012160  86.7243315
  65.5213467   9.7289986  87.1461214  73.6996108   8.1802095  90.9987044
  73.6814583   9.0010976  90.5067313  74.6216028   8.0556171  91.2237185
  70.1569162   5.6946225  91.8410552  70.6897499   4.9334513  91.6109860
  69.6283243   5.4019877  92.5834706  61.3924708   3.1239821  80.1892796
  62.2299930   3.5336830  79.9726504  61.5702975   2.1839263  80.1592990
  73.2889140   0.7914902  75.8776629  72.7735763   1.5619506  76.1165016
  73.0166448   0.1180038  76.5009690  78.2623414   3.5447256  77.8129802
  77.4852857   3.2058416  77.3684964  78.9414895   3.5499880  77.1384767
  73.0775443  -1.3358006  77.7036410  72.7725578  -1.0211857  78.5546553
  74.0305885  -1.2576586  77.7463743  71.5221875   4.8232217  79.3529364
  70.9943236   4.0884977  79.0402601  71.0209377   5.6006894  79.1069332
  76.5014721   3.0181238  84.4696410  75.8438395   3.7080499  84.5576539
  77.3055120   3.4077670  84.8130397  66.2540602  -4.5148116  81.7135975
  66.8284354  -4.7372935  80.9809168  66.8411585  -4.4459422  82.4664577
  75.3120180   1.3725610  82.5200352  75.8252061   2.0055602  83.0222062
  75.9621403   0.7726806  82.1543712  66.5810189  -2.4843655  75.7331861
  65.7447502  -2.1468969  76.0541135  66.4414959  -2.6194676  74.7958998
  69.6674475   2.6412428  72.3564337  68.7601537   2.4101681  72.5555486
  70.1645507   1.8450047  72.5438319  72.5742554  11.3509935  75.2761023
  71.9004253  11.6541631  75.8845981  72.9608376  12.1539015  74.9266480
  71.7901010  -1.1524934  84.7658693  70.8723572  -0.9309987  84.6080381
  72.2061154  -1.0778624  83.9070400  72.5736058   0.2466482  79.8961373
  73.3207877   0.7587879  79.5868495  72.8427648  -0.0749466  80.7565766
  70.8462708   2.7425022  76.8788327  69.9373928   2.4584055  76.9760797
  70.8757792   3.1624101  76.0191634  76.0781976   6.3531612  80.6479495
  75.6244303   5.5122522  80.7044685  75.4475943   6.9893010  80.9854275
  74.5214915   8.1908109  81.5829313  74.8137889   8.7513166  80.8641678
  75.0313536   8.4836670  82.3382472  61.4150879   0.4630537  80.8603529
  61.2175279  -0.1300103  80.1354596  60.8597543   0.1582747  81.5779468
  69.3947602   0.3553643  82.9798122  69.4496212  -0.5972521  82.9040599
  68.5838804   0.5113082  83.4639421  70.5438796   4.2833766  74.2176406
  70.1058226   3.5669625  73.7582043  71.2849237   4.5109881  73.6561497
  67.3339962  -1.0269297  80.7388501  66.5207828  -0.7275127  81.1453693
  67.8298957  -1.4213608  81.4562984  69.4848540   8.9688460  82.6722766
  69.4424719   9.1949306  81.7431298  70.4011239   8.7351834  82.8208567
  72.9314174  -0.5627473  89.5703395  73.2863562  -0.3356000  90.4297861
  73.5786305  -0.2309096  88.9480650  78.6611911   2.5590963  80.2752724
  78.5229810   2.7492559  79.3473913  78.3048130   3.3210346  80.7320775
  66.8254037  -3.4550942  86.3549736  67.4653416  -3.5962183  85.6572700
  65.9931568  -3.7416428  85.9788338  78.6881291   4.6267490  85.2863996
  79.1217797   4.5342779  86.1347050  79.4012871   4.6024991  84.6484012
  67.6014341   5.8451489  82.4684729  68.3954940   5.3501809  82.2667304
  66.8906033   5.3169352  82.1052434  72.4209185   8.2269584  86.8197096
  72.4746208   8.7960521  87.5874812  71.5523967   8.3971469  86.4551133
  63.9097104  -0.0105430  78.5444481  62.9794693  -0.0720974  78.7614444
  64.0054576  -0.5329477  77.7481123  63.8282654  -3.4850617  81.1322723
  64.0889471  -2.5705284  81.0231884  64.6499826  -3.9526174  81.2819336
  65.3007579  -2.0712860  88.3021548  65.9730632  -2.2795497  87.6534196
  64.4737365  -2.2690774  87.8626780  79.5496840   4.6691191  87.8196881
  79.7432730   5.5737001  88.0656156  79.4497458   4.2098610  88.6535466
  74.6111949   4.8197934  93.3937762  74.4597455   4.5908485  92.4767845
  74.6016628   5.7768535  93.4069107  71.3797285   2.3929846  88.3784028
  72.3089345   2.5441006  88.2052995  70.9588315   2.4813867  87.5232675
  70.1785617   6.4180511  86.1482566  70.0396703   6.0499295  87.0208504
  69.3900213   6.9328150  85.9766524  70.7733769  11.5189607  77.4908102
  70.9485525  11.0477650  78.3053725  70.0866557  12.1455373  77.7189363
  71.7290832   5.7962113  83.5371404  71.3940665   5.7562883  84.4329053
  71.2294778   5.1306829  83.0641814  65.7035076   1.2029743  89.0623985
  65.5654874   0.4709982  89.6635524  66.6140000   1.1138643  88.7808172
  74.6650024   3.1418148  73.8108463  74.0479194   2.4164976  73.7141516
  74.1966512   3.9027508  73.4675537  68.3317377   0.9149703  88.5507664
  69.0416995   0.2742895  88.5094283  68.2886685   1.1662598  89.4733845
  76.3204155   7.8517056  91.4714244  76.2616702   7.1676276  90.8044827
  76.7223674   8.5936046  91.0194870  67.0446311  -2.0985079  90.3703304
  66.5083668  -2.5494341  91.0224900  66.4563019  -1.9639171  89.6273768
  65.3394854  14.6678970  84.2647962  65.5791452  15.2997494  84.9426981
  64.4964051  14.3167010  84.5513322  66.4548570  -2.6396428  72.9329767
  65.5778036  -2.7607627  72.5692014  66.9306323  -3.4310350  72.6808656
  76.3221563   5.8156640  89.7028223  75.4348341   5.4782562  89.8254622
  76.8920114   5.0839671  89.9396989  57.9750710   2.1480732  83.0271275
  58.6621750   1.8342462  82.4392290  57.8198839   3.0522096  82.7538526
  62.7785432  -2.9629072  87.4556298  62.6943621  -3.5703402  86.7206708
  61.9568138  -2.4720053  87.4565795  69.8522716  10.4758092  86.6689466
  69.7792888  11.2813064  87.1808771  69.4100109  10.6750058  85.8437488
  69.6412496   9.7129862  80.1792288  68.8580018  10.2551543  80.2730513
  70.3405241  10.2303842  80.5786529  80.8038903   1.2264857  84.4644785
  80.7928780   2.1089573  84.0938718  79.9356283   0.8736408  84.2699322
  72.3121400  10.3744926  88.8247625  73.0249372  11.0092391  88.7523527
  71.8211428  10.4708792  88.0087627  74.0338927   4.2796179  80.3964917
  73.0995205   4.3997642  80.2269621  74.2115595   3.3768646  80.1324927
  69.5344115  -2.3358125  82.5498178  69.1641902  -2.8887085  83.2379084
  70.0303207  -2.9399992  81.9973178  77.4211478   0.1213498  80.9314951
  77.8871930   0.9541490  80.8575254  77.8718978  -0.3441520  81.6360209
  67.3633313   8.1239370  89.6453196  68.0642773   8.7575853  89.7982590
  66.8928428   8.4654101  88.8848835  75.4887709   6.4657320  77.9301103
  75.7647553   6.3513914  78.8394977  74.6192208   6.0674804  77.8913276
  75.1634599   0.6783977  87.4705746  74.5106049   0.9259885  86.8158199
  75.5414979  -0.1351885  87.1368224  72.1241773  10.7143670  81.5733917
  72.3064168   9.8965326  82.0361669  72.9474759  10.9311363  81.1358807
  72.4583939   9.6411856  78.8348965  72.9871705   9.1304310  78.2219127
  72.7212158   9.3254386  79.6994498  71.2122172   1.4203788  93.9571783
  70.5362809   1.3197918  94.6274159  72.0349806   1.2643002  94.4207781
  62.9601031   7.6575725  86.5784299  63.5454468   6.9119413  86.7112203
  62.7625870   7.9679682  87.4620963  65.8139686  10.6926972  81.5946741
  65.1450062  11.1773100  81.1110781  65.6752556  10.9396193  82.5090120
  57.5518686   0.2281325  85.2988742  57.5902785  -0.3055084  86.0925860
  57.0458979  -0.2983469  84.6799719  69.9544955  12.7270716  88.1929399
  70.5063263  12.8902337  88.9578485  70.2951148  13.3175154  87.5209424
  64.9309448  -4.9254134  88.7951284  64.9950775  -4.0639303  88.3828682
  64.8676569  -5.5380133  88.0623643  64.4061721  -2.8531002  92.4424318
  65.0333760  -3.2353925  93.0561843  63.5489640  -3.0716800  92.8080011
  74.8055829   7.5531973  94.0478054  75.3495733   8.1661932  93.5533009
  74.2242674   8.1111552  94.5645067  61.1827264  -1.0454573  78.3742673
  61.4780705  -1.9543894  78.3209727  60.2815299  -1.0666833  78.0523676
  73.0913342  10.6752691  85.1793082  72.9664482   9.8742431  84.6704027
  73.7492433  11.1698885  84.6907052  64.7121511  -2.9698576  84.3570222
  63.9908096  -2.3562608  84.2177695  65.5014766  -2.4340811  84.2786868
  75.1548251   8.4761711  86.8072632  74.2078586   8.3567063  86.7350958
  75.5031024   7.5884209  86.8898893  62.9115105  -3.3640475  78.4981998
  62.5827811  -4.2443096  78.3157104  63.2654476  -3.4192806  79.3858388
  72.1594684   8.2714428  83.0076984  72.0119646   7.3431135  83.1884554
  72.9848178   8.2934518  82.5234059  66.0256928  -3.0767505  78.8657476
  66.3653001  -2.5481584  78.1436084  66.4729049  -2.7387099  79.6416043
  75.7628806   9.0942986  84.0941857  76.6875353   8.8885848  83.9566308
  75.5944109   8.8459388  85.0031198  68.0125075  -4.5792884  77.0650769
  68.7333438  -4.2011631  76.5614486  67.3890380  -3.8604007  77.1685747
  66.8955420  -0.9162022  84.5779846  66.7500000  -0.6021718  85.4704127
  66.4180623  -0.2977121  84.0250744  70.6077933  -3.4922133  86.6713863
  70.3495711  -2.5705063  86.6698193  70.0762974  -3.8891699  87.3614327
  75.5524122   9.6128654  79.4503948  75.7261000   9.0475076  78.6977801
  76.0453013  10.4129549  79.2683438  61.3701082   1.6243323  87.5167507
  60.8254550   2.4003131  87.6487781  62.2480432   1.9714127  87.3586628
  81.4063513   2.3765077  81.0694248  81.8494659   1.6272402  80.6713371
  80.5290024   2.3675213  80.6867980  76.5399295   8.9295418  76.5500846
  77.2350199   9.5502111  76.7688161  76.8822445   8.0790769  76.8253224
  62.1567104   0.7513219  90.4097664  61.4148840   0.8995855  90.9962294
  61.8359848   1.0121485  89.5464413  78.4390718   6.3795124  78.0788177
  78.9642042   6.7182396  77.3537497  78.3513070   5.4442139  77.8951312
  70.1010766  10.2929197  90.2078054  70.4097893  10.0478344  91.0800753
  70.8986248  10.4975836  89.7196924  70.1231378  12.4467107  82.4383430
  69.6836369  11.9543486  83.1316287  70.8739495  11.9040075  82.1975506
  62.6023717   8.6378648  82.4408058  63.4281737   8.3382420  82.0606702
  62.2517769   7.8686270  82.8897847  67.5705251   7.9905116  84.5105732
  66.9485260   7.3275821  84.2107960  68.2410117   8.0166248  83.8279380
  60.8032322   6.5564974  83.3996992  59.9664231   6.1287149  83.2180993
  60.7755968   6.7497418  84.3367783  67.6429778  -3.5313096  94.1038238
  67.6917934  -2.6550973  93.7216008  68.1852292  -4.0735703  93.5309881
  78.1284624   7.0128027  93.3839375  77.3380167   6.9952166  92.8443874
  77.8917978   7.5516321  94.1388412  78.2482499   3.8620494  90.6972104
  78.2980504   3.6970501  91.6387626  78.1396422   2.9947753  90.3069984
  67.1318757   6.5409039  77.9864193  67.2806878   7.2244504  77.3330865
  67.9385201   6.5214130  78.5013648  75.5386261  -0.1548578  92.0131410
  76.4396124  -0.2942113  91.7215408  75.6134236   0.0105877  92.9529588
  69.8729066  -2.7781723  90.8584597  69.0032376  -2.4848157  90.5867185
  70.1088547  -2.1941278  91.5791860  79.7500696   6.2817435  90.9414125
  79.4585504   6.6447416  91.7777586  79.1372827   5.5684444  90.7627457
  80.9496378   3.8470315  83.4616695  81.7843269   4.2860119  83.6254256
  81.0855507   3.3708968  82.6424941  77.9987884   1.4050050  89.4094183
  78.4742005   1.5977696  88.6013035  77.0753449   1.4609236  89.1637567
  64.8871390   2.5674217  78.9925261  64.6417432   1.6636547  79.1905472
  65.0567305   2.5691368  78.0504739  64.1567038  -1.6997425  76.4911423
  63.4636283  -1.6253070  75.8351459  63.9118790  -2.4637082  77.0132940
  70.6314163   9.0357170  75.4575940  70.0588130   9.6547357  75.0046412
  71.2046957   9.5856532  75.9915862  73.8511423   9.3194320  76.5884522
  74.7842096   9.2539882  76.7917398  73.7634636  10.1550587  76.1299055
  76.4799439   8.6360190  73.5488470  76.4013071   8.3020054  74.4424228
  77.3009106   9.1281958  73.5479942  79.1777631   1.5021930  86.7564788
  79.1453951   0.5637930  86.9424472  79.7878254   1.5805966  86.0230613
  71.0160961   0.3717983  72.7991992  71.9620066   0.2424191  72.8680410
  70.6375206  -0.3667355  73.2761421  84.9954180   2.5637937  85.8970825
  85.7257569   2.3023225  86.4578529  84.3861126   1.8266658  85.9372893
  83.0769478   0.7045799  86.4945276  82.3502641   0.5701764  85.8861768
  82.6616764   1.0122628  87.3001994  70.8999654   4.4235729  94.2592649
  71.8202663   4.6014328  94.4532696  70.8649237   3.4791774  94.1072349
  69.2003879  -1.7032041  72.7346878  68.2935334  -1.9998928  72.8109591
  69.4779860  -2.0002223  71.8681164  60.1181819  -0.3825678  83.1845924
  59.7984603  -1.2360369  82.8920298  59.5715247  -0.1677099  83.9403891
  63.8961727   2.3336763  86.9015431  64.1147736   3.2653871  86.9203464
  64.3087500   1.9744738  87.6870234  68.7689592  -2.0930031  96.2918179
  68.6686319  -1.1435674  96.2230271  68.5511134  -2.4211792  95.4194250
  59.9870079   3.2377234  85.1539046  59.2933550   2.8231187  84.6409000
  60.7343070   3.2797770  84.5572465  68.6320862   1.3367108  95.1083241
  68.1487944   2.1367468  95.3147130  68.7181801   1.3475053  94.1550685
  61.9006822   3.1695488  83.0305061  61.8777510   3.2683175  82.0786944
  62.2107458   4.0160639  83.3522227  64.5594199   5.2271643  87.1451675
  65.5137453   5.1955585  87.0781606  64.3606723   4.7662266  87.9601901
  65.1493582   3.7972759  89.7122473  65.9686471   4.2916837  89.7357310
  65.4230389   2.8804727  89.6840040  62.9144428  10.7691262  84.1621873
  62.7798896  10.0091663  83.5959871  62.4976490  11.4932162  83.6950662
  74.0503391   5.9528186  73.1698448  74.7539241   6.1578188  73.7856104
  73.3266040   6.5204948  73.4347532  74.8801202   1.7038047  79.2900718
  74.8236403   2.1606598  78.4508351  75.4329544   0.9428732  79.1123561
  66.0713554  11.6660579  84.3740315  65.9545938  12.6106012  84.2719006
  65.2506000  11.3634141  84.7626115  75.9590089   6.3910715  75.2196908
  76.7935693   5.9591913  75.0374383  75.7974432   6.2192729  76.1473803
  75.6135981   2.8942828  76.5853247  75.5584785   2.7287100  75.6441692
  74.9882036   3.6018861  76.7415437  60.4028496  -1.8689107  90.4114670
  61.0487359  -2.3790153  90.9001895  60.1945647  -1.1320426  90.9858095
  72.9281888   5.1991740  95.9106810  73.7973048   5.3732392  95.5493445
  72.4488639   6.0186157  95.7882540  67.0968068  12.3188841  87.5896244
  67.9995315  12.3512451  87.9062739  66.8705438  11.3889292  87.6042580
  68.8521670  11.0719828  84.2506322  67.9017301  11.0721689  84.1370695
  69.1554156  10.3252562  83.7342357  64.7425987  -4.7221490  94.5089684
  65.6057448  -5.0784685  94.7193008  64.1691397  -5.0607595  95.1965088
  84.5874364  16.9080366  85.3152085  85.2252774  16.7887113  84.6115425
  84.4695207  17.8561210  85.3740037  81.3964070  16.8607794  85.2513610
  81.0582582  16.7448859  84.3634144  82.2653838  16.4598959  85.2314616
  77.2550886  18.7143271  81.2410501  76.6915751  18.6233208  80.4726788
  77.1403281  17.8943175  81.7212993  81.8783853  18.0142646  91.2099815
  81.8672494  17.6195444  90.3380319  82.0404492  17.2808719  91.8033587
  74.8015318  20.2094462  84.0794721  75.5936610  19.8685287  83.6641020
  75.0411968  20.3189437  84.9996874  82.8350444  22.3814238  76.5524965
  82.1838424  22.9668319  76.1658979  83.6294807  22.9120433  76.6120003
  76.7606072  19.4703375  76.9512100  77.5336948  18.9232363  76.8124976
  77.1131470  20.3347625  77.1626561  78.5991114  20.7979758  90.1578999
  78.3080980  21.7025389  90.0425665  79.2348099  20.8396285  90.8723069
  79.5247321  18.1756606  86.7480359  80.1210893  17.9512629  86.0337322
  79.5822293  17.4341352  87.3505807  79.0972349  15.6296042  74.5830550
  79.3497870  15.1077563  73.8214013  78.1596908  15.4662187  74.6857233
  84.1415632  14.6331820  82.3905293  84.9278721  14.2151243  82.0395710
  84.4054337  15.5377912  82.5586941  84.3125710  20.0704670  77.0893950
  83.6771543  20.1439297  77.8014854  83.9823116  20.6598269  76.4113029
  89.5424059  14.5707053  83.2938271  90.2749231  14.0006270  83.5276101
  88.7863415  14.1828654  83.7344777  78.8168638  17.5324148  76.7854925
  78.7004896  16.8569051  77.4536009  78.9270898  17.0456521  75.9687078
  81.1600179  16.9934295  80.4901614  80.7958386  16.4664916  81.2014535
  82.0167295  16.6032764  80.3168099  87.0649480   8.2828627  87.7532880
  86.7332804   9.1524038  87.5294095  86.4695093   7.9664911  88.4326910
  80.8005666  12.0224194  75.4862962  80.9680068  12.8904431  75.8533433
  80.6102835  12.1851476  74.5624252  83.5580999  20.4841173  87.1528793
  83.2581722  21.3866212  87.0444600  83.2132059  20.2173356  88.0049946
  77.0093481  16.9354970  83.1865497  76.0843977  16.8031184  83.3943189
  77.2577894  17.7149189  83.6835440  86.9578143  13.0023713  84.8326230
  86.0495020  12.9339122  84.5384991  86.9065739  13.4795658  85.6608056
  80.7794887  14.4781852  76.4709629  80.6594512  14.9238903  77.3095110
  80.0847475  14.8267170  75.9123167  74.3702292  16.5788244  84.0209286
  74.4994673  16.8322723  84.9348698  73.6899743  17.1715952  83.7013941
  78.5401779  27.2485494  80.1199760  78.4625809  28.1993319  80.1988241
  77.9363423  26.9031366  80.7774687  81.0319009  14.4213359  92.7761127
  80.2552343  14.9807279  92.7663992  81.6709572  14.9070142  93.2975997
  88.8239789  11.2040152  86.6104104  88.1814170  11.4972685  85.9643899
  88.3194718  11.0893072  87.4157301  86.4779953  14.9503325  77.2989963
  87.3897809  15.1830712  77.1237661  85.9689600  15.5340369  76.7365042
  79.2865381  17.2298812  92.3379094  80.0280065  17.7683856  92.0613918
  78.5802367  17.8565101  92.4950646  84.7620721  19.3727953  90.9351256
  85.1704077  18.9310363  90.1905888  84.0397982  18.7980580  91.1885449
  81.1151791  14.3100560  88.3084813  81.9612986  14.7339973  88.4519462
  81.0550428  13.6534184  89.0023376  85.0849535  19.9329143  84.6903545
  84.4558398  20.0974858  83.9879613  84.6975197  20.3470753  85.4614509
  88.9638767  20.8683581  82.0447909  88.2789805  21.2482483  81.4944942
  89.0482617  21.4778908  82.7779856  84.2651236  11.9704928  89.9665986
  84.0212168  12.7246988  89.4300262  84.5411167  12.3490276  90.8013234
  86.2189699  18.5143540  88.6443252  86.4306594  19.1575300  87.9677633
  86.1719447  17.6805857  88.1765182  83.8215928  11.1261361  85.5479824
  82.9600407  11.4242615  85.8396562  83.8478363  11.3431760  84.6160857
  80.6377497  19.6703552  81.9553630  81.1015843  19.9491255  81.1658252
  80.3734295  18.7686996  81.7726721  77.5301578  19.2175033  84.8933393
  78.1002935  19.6462301  84.2550878  78.1209690  18.9357618  85.5917579
  79.5746383  15.7926704  78.7643195  80.2770427  16.2447748  79.2317121
  79.2427012  15.1510523  79.3923088  78.0226745  14.3838461  93.1394404
  77.3925405  15.0654741  93.3729801  77.9162833  14.2721542  92.1947543
  73.3171717  14.0510257  84.0660329  72.5270771  14.3067785  83.5900439
  73.8082965  14.8658594  84.1712369  87.3335527  21.3915496  86.8165609
  88.1552971  20.9895683  86.5348291  87.3297930  21.2883730  87.7681725
  75.2686463  14.4154836  81.0243805  74.4717626  14.5273530  81.5427301
  75.0412055  14.7541488  80.1584696  81.0992130  20.9399539  88.9726320
  81.1636563  21.4019946  89.8084492  80.3903054  20.3096904  89.1008630
  71.6009420  14.3040747  86.4975319  71.8517459  15.1887757  86.7632895
  72.1368969  14.1245349  85.7250411  95.4241520  17.7354244  83.1650581
  94.6705228  17.1661642  83.0094585  95.5589061  17.7016909  84.1121216
  80.8140148  22.6067647  78.8405300  80.6785823  23.4519182  79.2690148
  81.3549960  22.8086924  78.0771234  77.3007488   8.6859226  95.5019655
  76.9074433   8.1325425  96.1767300  78.1173628   8.9969805  95.8926173
  74.2669545  20.1243085  79.4133225  74.7794066  20.9186335  79.5638790
  74.9192258  19.4269375  79.3466827  76.0764430  23.2408841  81.4955978
  76.2531058  24.1626806  81.3076962  76.8721264  22.9267260  81.9250358
  80.2175449  10.1017105  93.0939912  80.9585162  10.7024259  93.0144374
  80.4493371   9.3594743  92.5357955  75.3616787  15.2873473  91.3718142
  75.2470302  14.3858730  91.6725241  74.5061304  15.5337170  91.0202958
  82.4408624  23.2291213  92.9705642  81.9972479  22.4427592  92.6526547
  83.1025838  23.4170364  92.3049533  77.1995746  24.7587015  87.4966321
  77.7503171  24.6304078  86.7243315  76.3607221  25.0581904  87.1461214
  84.5389862  23.5094013  90.9987044  84.5208338  24.3302894  90.5067313
  85.4609782  23.3848088  91.2237185  80.9962917  21.0238142  91.8410552
  81.5291253  20.2626431  91.6109860  80.4676998  20.7311794  92.5834706
  84.1632612   6.1298208  87.3704194  83.8196881   7.0199850  87.2943304
  84.5311574   5.9399866  86.5073779  72.2318462  18.4531739  80.1892796
  73.0693684  18.8628747  79.9726504  72.4096730  17.5131181  80.1592990
  84.1282894  16.1206820  75.8776629  83.6129518  16.8911424  76.1165016
  83.8560203  15.4471956  76.5009690  81.7130005  10.9656520  80.9361867
  80.8571602  10.5763371  80.7567506  82.1256957  11.0448481  80.0761653
  83.2429152   8.5002864  85.3353427  82.7393947   8.4632999  84.5221232
  83.5359759   9.4095606  85.3950084  79.4872038   8.5841593  84.3419609
  80.3525035   8.3884402  83.9825498  79.5549547   8.3551945  85.2688965
  89.1017168  18.8739174  77.8129802  88.3246611  18.5350334  77.3684964
  89.7808649  18.8791797  77.1384767  83.9169197  13.9933912  77.7036410
  83.6119333  14.3080061  78.5546553  84.8699640  14.0715332  77.7463743
  82.3615629  20.1524135  79.3529364  81.8336991  19.4176895  79.0402601
  81.8603132  20.9298811  79.1069332  87.3408475  18.3473155  84.4696410
  86.6832150  19.0372417  84.5576539  88.1448874  18.7369587  84.8130397
  77.0934357  10.8143801  81.7135975  77.6678109  10.5918983  80.9809168
  77.6805339  10.8832496  82.4664577  86.1513934  16.7017528  82.5200352
  86.6645816  17.3347520  83.0222062  86.8015158  16.1018724  82.1543712
  77.4203944  12.8448262  75.7331861  76.5841256  13.1822949  76.0541135
  77.2808714  12.7097242  74.7958998  79.3957025   7.6885050  80.4411045
  78.7421437   7.3734067  79.8167660  79.3537499   7.0660791  81.1670868
  80.5068229  17.9704345  72.3564337  79.5995291  17.7393599  72.5555486
  81.0039261  17.1741964  72.5438319  83.4136308  26.6801852  75.2761023
  82.7398007  26.9833549  75.8845981  83.8002130  27.4830933  74.9266480
  82.6294765  14.1766984  84.7658693  81.7117326  14.3981931  84.6080381
  83.0454909  14.2513294  83.9070400  83.4129813  15.5758399  79.8961373
  84.1601632  16.0879797  79.5868495  83.6821402  15.2542452  80.7565766
  81.6856463  18.0716940  76.8788327  80.7767682  17.7875973  76.9760797
  81.7151547  18.4916019  76.0191634  86.9175730  21.6823530  80.6479495
  86.4638057  20.8414439  80.7044685  86.2869697  22.3184928  80.9854275
  85.8608650  12.6115516  81.8780162  85.1231407  12.0992902  82.2090405
  86.1135423  12.1715897  81.0663439  85.3608670  23.5200026  81.5829313
  85.6531644  24.0805083  80.8641678  85.8707290  23.8128587  82.3382472
  85.9620277   5.3891768  82.4721931  86.2679154   4.5289131  82.1847846
  86.6872882   5.9809388  82.2720925  72.2544633  15.7922454  80.8603529
  72.0569033  15.1991815  80.1354596  71.6991297  15.4874664  81.5779468
  80.2341357  15.6845561  82.9798122  80.2889967  14.7319397  82.9040599
  79.4232559  15.8405000  83.4639421  81.3832551  19.6125684  74.2176406
  80.9451981  18.8961543  73.7582043  82.1242992  19.8401799  73.6561497
  78.1733717  14.3022620  80.7388501  77.3601582  14.6016791  81.1453693
  78.6692711  13.9078309  81.4562984  80.3242295  24.2980377  82.6722766
  80.2818474  24.5241224  81.7431298  81.2404994  24.0643752  82.8208567
  83.7707929  14.7664445  89.5703395  84.1257316  14.9935918  90.4297861
  84.4180060  15.0982822  88.9480650  89.5005665  17.8882881  80.2752724
  89.3623564  18.0784477  79.3473913  89.1441884  18.6502264  80.7320775
  77.6647792  11.8740976  86.3549736  78.3047171  11.7329735  85.6572700
  76.8325322  11.5875489  85.9788338  89.5275045  19.9559408  85.2863996
  89.9611552  19.8634697  86.1347050  90.2406626  19.9316908  84.6484012
  78.4408095  21.1743406  82.4684729  79.2348694  20.6793726  82.2667304
  77.7299788  20.6461269  82.1052434  83.2602940  23.5561502  86.8197096
  83.3139962  24.1252438  87.5874812  82.3917721  23.7263387  86.4551133
  74.7490859  15.3186488  78.5444481  73.8188447  15.2570944  78.7614444
  74.8448331  14.7962441  77.7481123  74.6676408  11.8441301  81.1322723
  74.9283225  12.7586634  81.0231884  75.4893580  11.3765743  81.2819336
  76.1401333  13.2579058  88.3021548  76.8124387  13.0496420  87.6534196
  75.3131120  13.0601144  87.8626780  90.3890595  19.9983108  87.8196881
  90.5826485  20.9028919  88.0656156  90.2891213  19.5390528  88.6535466
  82.0426905   9.8840999  90.3187208  81.3954820  10.5830949  90.2251685
  82.8127921  10.3177143  90.6863457  85.4505703  20.1489851  93.3937762
  85.2991210  19.9200403  92.4767845  85.4410383  21.1060453  93.4069107
  82.2191040  17.7221764  88.3784028  83.1483100  17.8732924  88.2052995
  81.7982070  17.8105785  87.5232675  81.0179371  21.7472428  86.1482566
  80.8790457  21.3791213  87.0208504  80.2293968  22.2620068  85.9766524
  81.6127523  26.8481525  77.4908102  81.7879279  26.3769568  78.3053725
  80.9260311  27.4747291  77.7189363  82.5684587  21.1254031  83.5371404
  82.2334419  21.0854801  84.4329053  82.0688532  20.4598747  83.0641814
  76.5428831  16.5321661  89.0623985  76.4048629  15.8001900  89.6635524
  77.4533754  16.4430561  88.7808172  85.5043778  18.4710065  73.8108463
  84.8872949  17.7456894  73.7141516  85.0360267  19.2319426  73.4675537
  79.1711131  16.2441620  88.5507664  79.8810750  15.6034813  88.5094283
  79.1280439  16.4954515  89.4733845  87.1597910  23.1808974  91.4714244
  87.1010456  22.4968194  90.8044827  87.5617428  23.9227964  91.0194870
  77.8840065  13.2306838  90.3703304  77.3477422  12.7797577  91.0224900
  77.2956774  13.3652747  89.6273768  76.1788609  29.9970888  84.2647962
  76.4185207  30.6289412  84.9426981  75.3357805  29.6458928  84.5513322
  77.2942324  12.6895490  72.9329767  76.4171791  12.5684290  72.5692014
  77.7700077  11.8981568  72.6808656  87.1615317  21.1448558  89.7028223
  86.2742096  20.8074479  89.8254622  87.7313868  20.4131589  89.9396989
  68.8144464  17.4772649  83.0271275  69.5015504  17.1634379  82.4392290
  68.6592593  18.3814014  82.7538526  73.6179186  12.3662846  87.4556298
  73.5337375  11.7588516  86.7206708  72.7961893  12.8571864  87.4565795
  80.6916471  25.8050010  86.6689466  80.6186642  26.6104982  87.1808771
  80.2493864  26.0041976  85.8437488  80.4806250  25.0421780  80.1792288
  79.6973772  25.5843460  80.2730513  81.1798995  25.5595760  80.5786529
  83.7902900  10.8516410  82.8226493  84.2871600  10.0986372  82.5027564
  83.0189882  10.8880726  82.2569703  91.6432658  16.5556775  84.4644785
  91.6322534  17.4381490  84.0938718  90.7750037  16.2028326  84.2699322
  83.1515154  25.7036844  88.8247625  83.8643126  26.3384309  88.7523527
  82.6605183  25.8000710  88.0087627  84.8732681  19.6088097  80.3964917
  83.9388960  19.7289559  80.2269621  85.0509350  18.7060564  80.1324927
  80.3737869  12.9933793  82.5498178  80.0035657  12.4404833  83.2379084
  80.8696962  12.3891926  81.9973178  88.2605232  15.4505416  80.9314951
  88.7265685  16.2833408  80.8575254  88.7112733  14.9850398  81.6360209
  78.2027068  23.4531288  89.6453196  78.9036527  24.0867770  89.7982590
  77.7322183  23.7946019  88.8848835  86.3281463  21.7949237  77.9301103
  86.6041307  21.6805832  78.8394977  85.4585962  21.3966722  77.8913276
  86.2321895   7.8186003  84.9705852  85.3184975   8.0490230  85.1388059
  86.6614997   7.9024447  85.8219885  86.0028354  16.0075895  87.4705746
  85.3499804  16.2551802  86.8158199  86.3808734  15.1940033  87.1368224
  82.9635528  26.0435588  81.5733917  83.1457922  25.2257244  82.0361669
  83.7868514  26.2603280  81.1358807  83.2977693  24.9703773  78.8348965
  83.8265459  24.4596228  78.2219127  83.5605913  24.6546303  79.6994498
  82.0515927  16.7495706  93.9571783  81.3756564  16.6489835  94.6274159
  82.8743561  16.5934920  94.4207781  73.7994786  22.9867643  86.5784299
  74.3848223  22.2411330  86.7112203  73.6019624  23.2971599  87.4620963
  76.6533441  26.0218890  81.5946741  75.9843816  26.5065018  81.1110781
  76.5146311  26.2688110  82.5090120  68.3912440  15.5573243  85.2988742
  68.4296540  15.0236833  86.0925860  67.8852733  15.0308448  84.6799719
  80.7938710  28.0562633  88.1929399  81.3457018  28.2194255  88.9578485
  81.1344903  28.6467071  87.5209424  75.7703203  10.4037783  88.7951284
  75.8344529  11.2652614  88.3828682  75.7070323   9.7911785  88.0623643
  75.2455475  12.4760916  92.4424318  75.8727514  12.0937993  93.0561843
  74.3883394  12.2575118  92.8080011  85.6449584  22.8823891  94.0478054
  86.1889488  23.4953849  93.5533009  85.0636429  23.4403469  94.5645067
  72.0221018  14.2837345  78.3742673  72.3174459  13.3748023  78.3209727
  71.1209054  14.2625084  78.0523676  83.9307097  26.0044609  85.1793082
  83.8058236  25.2034349  84.6704027  84.5886188  26.4990802  84.6907052
  75.5515265  12.3593341  84.3570222  74.8301851  12.9729309  84.2177695
  76.3408521  12.8951106  84.2786868  85.9942005  23.8053629  86.8072632
  85.0472341  23.6858980  86.7350958  86.3424778  22.9176127  86.8898893
  78.3541579   9.6947768  90.6310874  78.8775980   9.9410065  91.3937183
  78.1353912  10.5267803  90.2114011  73.7508860  11.9651443  78.4981998
  73.4221566  11.0848822  78.3157104  74.1048230  11.9099111  79.3858388
  82.9988439  23.6006345  83.0076984  82.8513401  22.6723053  83.1884554
  83.8241932  23.6226436  82.5234059  76.8650683  12.2524412  78.8657476
  77.2046755  12.7810334  78.1436084  77.3122803  12.5904819  79.6416043
  86.6022560  24.4234904  84.0941857  87.5269108  24.2177765  83.9566308
  86.4337864  24.1751305  85.0031198  79.5594124  10.6361463  88.3160544
  79.2190944   9.8369276  88.7181224  78.8533130  10.9363174  87.7437377
  80.2110595   7.7210776  86.7687867  81.0336665   7.2471254  86.6466757
  80.4548659   8.5001259  87.2686553  78.8518830  10.7499034  77.0650769
  79.5727192  11.1280287  76.5614486  78.2284134  11.4687911  77.1685747
  82.9949953  11.4544183  78.0009101  83.2113567  12.3368821  77.6997929
  82.5144020  11.0630396  77.2714743  77.7349174  14.4129896  84.5779846
  77.5893755  14.7270199  85.4704127  77.2574378  15.0314797  84.0250744
  79.5945557  11.4032444  84.6260735  79.5807126  10.5073537  84.2893033
  80.3117985  11.4103108  85.2599021  81.4471688  11.8369784  86.6713863
  81.1889466  12.7586855  86.6698193  80.9156728  11.4400219  87.3614327
  86.3917877  24.9420571  79.4503948  86.5654754  24.3766994  78.6977801
  86.8846768  25.7421466  79.2683438  72.2094836  16.9535241  87.5167507
  71.6648304  17.7295049  87.6487781  73.0874186  17.3006045  87.3586628
  78.9982453  10.2846824  79.8948305  79.1198364   9.3563471  80.0939193
  78.7084495  10.2985510  78.9826621  81.8673643   7.9701735  83.0315025
  81.8895340   8.0341068  82.0767005  82.2841702   7.1306244  83.2255531
  92.2457268  17.7056994  81.0694248  92.6888414  16.9564320  80.6713371
  91.3683778  17.6967131  80.6867980  87.3793049  24.2587336  76.5500846
  88.0743954  24.8794029  76.7688161  87.7216199  23.4082687  76.8253224
  72.9960858  16.0805137  90.4097664  72.2542594  16.2287772  90.9962294
  72.6753602  16.3413402  89.5464413  89.2784472  21.7087041  78.0788177
  89.8035796  22.0474314  77.3537497  89.1906825  20.7734057  77.8951312
  80.9404521  25.6221115  90.2078054  81.2491647  25.3770262  91.0800753
  81.7380003  25.8267754  89.7196924  80.9625133  27.7759025  82.4383430
  80.5230123  27.2835403  83.1316287  81.7133250  27.2331992  82.1975506
  73.4417472  23.9670566  82.4408058  74.2675492  23.6674337  82.0606702
  73.0911524  23.1978188  82.8897847  78.4099005  23.3197034  84.5105732
  77.7879014  22.6567739  84.2107960  79.0803872  23.3458166  83.8279380
  71.6426077  21.8856892  83.3996992  70.8057985  21.4579066  83.2180993
  71.6149722  22.0789335  84.3367783  78.4823533  11.7978822  94.1038238
  78.5311688  12.6740945  93.7216008  79.0246047  11.2556215  93.5309881
  88.9678378  22.3419945  93.3839375  88.1773922  22.3244084  92.8443874
  88.7311733  22.8808239  94.1388412  89.0876253  19.1912411  90.6972104
  89.1374258  19.0262419  91.6387626  88.9790177  18.3239670  90.3069984
  77.9712512  21.8700957  77.9864193  78.1200632  22.5536422  77.3330865
  78.7778955  21.8506047  78.5013648  86.3780016  15.1743339  92.0131410
  87.2789878  15.0349804  91.7215408  86.4527990  15.3397794  92.9529588
  80.7122821  12.5510194  90.8584597  79.8426130  12.8443760  90.5867185
  80.9482301  13.1350639  91.5791860  90.5894450  21.6109353  90.9414125
  90.2979258  21.9739333  91.7777586  89.9766581  20.8976361  90.7627457
  91.7890132  19.1762233  83.4616695  92.6237024  19.6152037  83.6254256
  91.9249261  18.7000886  82.6424941  88.8381638  16.7341968  89.4094183
  89.3135760  16.9269614  88.6013035  87.9147204  16.7901153  89.1637567
  75.7265145  17.8966135  78.9925261  75.4811187  16.9928465  79.1905472
  75.8961059  17.8983285  78.0504739  83.4161855   8.7689811  88.3750017
  83.9343799   9.5050838  88.0496506  83.0616988   9.0753804  89.2096776
  74.9960792  13.6294492  76.4911423  74.3030037  13.7038847  75.8351459
  74.7512544  12.8654836  77.0132940  83.6674449   5.1890094  83.8950914
  83.9476203   4.5213283  84.5211340  84.4525056   5.3819189  83.3825577
  81.4707917  24.3649088  75.4575940  80.8981885  24.9839275  75.0046412
  82.0440711  24.9148449  75.9915862  87.5383307  13.6107728  87.6422489
  88.4900730  13.7105825  87.6634713  87.3686758  12.8185996  88.1520573
  85.5597687  10.6963311  87.8281890  84.9647619  10.9768324  87.1328378
  85.2747384  11.1857212  88.5998631  84.6905177  24.6486238  76.5884522
  85.6235850  24.5831799  76.7917398  84.6028390  25.4842505  76.1299055
  87.3193194  23.9652108  73.5488470  87.2406825  23.6311972  74.4424228
  88.1402861  24.4573876  73.5479942  90.0171385  16.8313847  86.7564788
  89.9847705  15.8929848  86.9424472  90.6272009  16.9097884  86.0230613
  81.8554716  15.7009900  72.7991992  82.8013821  15.5716108  72.8680410
  81.4768961  14.9624562  73.2761421  90.1665874  13.6224891  86.8023072
  89.6504922  12.8383347  86.6153000  91.0505822  13.2943607  86.9669591
  87.8276601   7.3665906  82.7618884  87.6301422   7.0580995  83.6462216
  88.4376306   8.0927545  82.8916814  95.8347935  17.8929854  85.8970825
  96.5651323  17.6315142  86.4578529  95.2254880  17.1558576  85.9372893
  93.9163232  16.0337717  86.4945276  93.1896396  15.8993682  85.8861768
  93.5010519  16.3414545  87.3001994  81.7393409  19.7527646  94.2592649
  82.6596418  19.9306245  94.4532696  81.7042992  18.8083692  94.1072349
  80.0397633  13.6259877  72.7346878  79.1329089  13.3292989  72.8109591
  80.3173614  13.3289695  71.8681164  70.9575574  14.9466240  83.1845924
  70.6378358  14.0931548  82.8920298  70.4109002  15.1614818  83.9403891
  74.7355481  17.6628681  86.9015431  74.9541491  18.5945789  86.9203464
  75.1481255  17.3036656  87.6870234  81.6559699   8.1696766  78.8891119
  80.8460427   7.8243851  79.2646365  82.3444116   7.8604310  79.4778731
  83.5850247   7.2474813  80.5115416  84.1381286   7.6670267  81.1705439
  83.8220334   6.3210561  80.5538372  79.6083346  13.2361887  96.2918179
  79.5080073  14.1856244  96.2230271  79.3904888  12.9080126  95.4194250
  78.8096418  10.4846812  72.8758857  79.6715582  10.8101710  73.1354674
  78.9946762   9.6978308  72.3631923  70.8263834  18.5669152  85.1539046
  70.1327305  18.1523104  84.6409000  71.5736825  18.6089688  84.5572465
  86.9629054   9.3575338  80.0194080  86.3827723  10.0160142  79.6372132
  86.6964987   8.5352683  79.6081497  85.4132621   8.7580396  82.2215400
  85.9132399   8.8696931  81.4129719  86.0568229   8.4541449  82.8616209
  79.4714616  16.6659026  95.1083241  78.9881698  17.4659386  95.3147130
  79.5575555  16.6766971  94.1550685  72.7400576  18.4987405  83.0305061
  72.7171264  18.5975093  82.0786944  73.0501213  19.3452556  83.3522227
  75.3987954  20.5563560  87.1451675  76.3531207  20.5247503  87.0781606
  75.2000478  20.0954184  87.9601901  75.9887336  19.1264676  89.7122473
  76.8080225  19.6208755  89.7357310  76.2624144  18.2096645  89.6840040
  85.7453932  11.5175429  79.0750428  84.8579787  11.8025079  78.8570623
  86.1607921  11.3569192  78.2277705  89.0968468  11.5421950  82.7904767
  89.8728859  12.0318402  83.0629384  88.3716603  11.9680004  83.2476637
  91.5341027  12.2549569  83.8478708  92.1285518  12.0145305  83.1372016
  91.6067611  11.5356700  84.4752244  73.7538183  26.0983180  84.1621873
  73.6192651  25.3383581  83.5959871  73.3370245  26.8224080  83.6950662
  84.8897146  21.2820103  73.1698448  85.5932996  21.4870106  73.7856104
  84.1659794  21.8496865  73.4347532  85.7194956  17.0329965  79.2900718
  85.6630157  17.4898516  78.4508351  86.2723298  16.2720649  79.1123561
  89.5299762  12.8219697  80.1150838  89.2736696  12.4216332  80.9459045
  88.9052630  13.5363491  79.9900977  93.8412100  15.5615770  82.6222129
  93.2811658  15.6308959  83.3953691  93.2355603  15.3856754  81.9021625
  76.9107309  26.9952497  84.3740315  76.7939693  27.9397929  84.2719006
  76.0899755  26.6926058  84.7626115  86.7983843  21.7202633  75.2196908
  87.6329447  21.2883831  75.0374383  86.6368186  21.5484646  76.1473803
  86.4529735  18.2234746  76.5853247  86.3978539  18.0579017  75.6441692
  85.8275791  18.9310779  76.7415437  71.2422250  13.4602810  90.4114670
  71.8881114  12.9501764  90.9001895  71.0339401  14.1971492  90.9858095
  83.7675642  20.5283658  95.9106810  84.6366802  20.7024310  95.5493445
  83.2882394  21.3478075  95.7882540  79.7625861   7.7242855  76.1638566
  79.7504531   8.6684695  76.3206837  80.6549283   7.5413000  75.8698027
  77.9361823  27.6480759  87.5896244  78.8389069  27.6804369  87.9062739
  77.7099193  26.7181210  87.6042580  79.6915425  26.4011745  84.2506322
  78.7411056  26.4013607  84.1370695  79.9947911  25.6544480  83.7342357
  83.5777980   4.3185632  80.4184503  82.8110376   3.7644118  80.5641185
  83.9888685   4.3907500  81.2798654  75.5819741  10.6070427  94.5089684
  76.4451203  10.2507232  94.7193008  75.0085152  10.2684322  95.1965088
  95.4268118  32.2372284  85.3152085  96.0646528  32.1179031  84.6115425
  95.3088961  33.1853128  85.3740037  92.2357825  32.1899712  85.2513610
  91.8976336  32.0740777  84.3634144  93.1047593  31.7890877  85.2314616
  88.0944640  34.0435188  81.2410501  87.5309505  33.9525125  80.4726788
  87.9797035  33.2235093  81.7212993  92.7177608  33.3434564  91.2099815
  92.7066248  32.9487362  90.3380319  92.8798247  32.6100636  91.8033587
  85.6409072  35.5386380  84.0794721  86.4330364  35.1977205  83.6641020
  85.8805722  35.6481355  84.9996874  93.6744199  37.7106156  76.5524965
  93.0232179  38.2960236  76.1658979  94.4688562  38.2412351  76.6120003
  87.5999826  34.7995293  76.9512100  88.3730702  34.2524280  76.8124976
  87.9525225  35.6639542  77.1626561  89.4384869  36.1271675  90.1578999
  89.1474735  37.0317306  90.0425665  90.0741853  36.1688203  90.8723069
  90.3641075  33.5048524  86.7480359  90.9604648  33.2804546  86.0337322
  90.4216047  32.7633269  87.3505807  89.9366104  30.9587959  74.5830550
  90.1891625  30.4369481  73.8214013  88.9990663  30.7954105  74.6857233
  94.9809387  29.9623738  82.3905293  95.7672476  29.5443161  82.0395710
  95.2448091  30.8669830  82.5586941  95.1519464  35.3996588  77.0893950
  94.5165297  35.4731214  77.8014854  94.8216870  35.9890187  76.4113029
 100.3817814  29.8998971  83.2938271 101.1142986  29.3298188  83.5276101
  99.6257170  29.5120571  83.7344777  89.6562393  32.8616065  76.7854925
  89.5398651  32.1860969  77.4536009  89.7664653  32.3748439  75.9687078
  91.9993934  32.3226212  80.4901614  91.6352141  31.7956833  81.2014535
  92.8561049  31.9324681  80.3168099  97.9043234  23.6120545  87.7532880
  97.5726559  24.4815956  87.5294095  97.3088848  23.2956829  88.4326910
  91.6399421  27.3516112  75.4862962  91.8073823  28.2196348  75.8533433
  91.4496590  27.5143394  74.5624252  94.3974754  35.8133091  87.1528793
  94.0975477  36.7158130  87.0444600  94.0525813  35.5465274  88.0049946
  87.8487235  32.2646888  83.1865497  86.9237732  32.1323102  83.3943189
  88.0971648  33.0441107  83.6835440  97.7971898  28.3315631  84.8326230
  96.8888775  28.2631040  84.5384991  97.7459493  28.8087576  85.6608056
  91.6188641  29.8073769  76.4709629  91.4988267  30.2530820  77.3095110
  90.9241230  30.1559087  75.9123167  85.2096046  31.9080161  84.0209286
  85.3388427  32.1614640  84.9348698  84.5293498  32.5007869  83.7013941
  89.3795534  42.5777411  80.1199760  89.3019563  43.5285236  80.1988241
  88.7757177  42.2323284  80.7774687  91.8712763  29.7505277  92.7761127
  91.0946097  30.3099197  92.7663992  92.5103326  30.2362060  93.2975997
  99.6633544  26.5332069  86.6104104  99.0207924  26.8264603  85.9643899
  99.1588472  26.4184990  87.4157301  97.3173708  30.2795243  77.2989963
  98.2291564  30.5122629  77.1237661  96.8083355  30.8632287  76.7365042
  90.1259136  32.5590730  92.3379094  90.8673820  33.0975774  92.0613918
  89.4196121  33.1857019  92.4950646  95.6014475  34.7019871  90.9351256
  96.0097831  34.2602281  90.1905888  94.8791737  34.1272498  91.1885449
  91.9545545  29.6392477  88.3084813  92.8006740  30.0631891  88.4519462
  91.8944183  28.9826102  89.0023376  95.9243290  35.2621061  84.6903545
  95.2952152  35.4266775  83.9879613  95.5368952  35.6762671  85.4614509
  99.8032522  36.1975499  82.0447909  99.1183560  36.5774400  81.4944942
  99.8876371  36.8070826  82.7779856  95.1044991  27.2996846  89.9665986
  94.8605922  28.0538906  89.4300262  95.3804921  27.6782193  90.8013234
  97.0583453  33.8435458  88.6443252  97.2700349  34.4867218  87.9677633
  97.0113202  33.0097775  88.1765182  94.6609682  26.4553279  85.5479824
  93.7994161  26.7534532  85.8396562  94.6872117  26.6723678  84.6160857
  91.4771252  34.9995469  81.9553630  91.9409597  35.2783172  81.1658252
  91.2128050  34.0978914  81.7726721  88.3695333  34.5466951  84.8933393
  88.9396690  34.9754219  84.2550878  88.9603445  34.2649535  85.5917579
  90.4140138  31.1218622  78.7643195  91.1164181  31.5739665  79.2317121
  90.0820766  30.4802440  79.3923088  88.8620499  29.7130378  93.1394404
  88.2319160  30.3946659  93.3729801  88.7556587  29.6013460  92.1947543
  84.1565472  29.3802174  84.0660329  83.3664526  29.6359703  83.5900439
  84.6476719  30.1950512  84.1712369  98.1729281  36.7207413  86.8165609
  98.9946725  36.3187601  86.5348291  98.1691684  36.6175648  87.7681725
  86.1080217  29.7446754  81.0243805  85.3111380  29.8565448  81.5427301
  85.8805809  30.0833406  80.1584696  91.9385885  36.2691457  88.9726320
  92.0030317  36.7311864  89.8084492  91.2296809  35.6388822  89.1008630
  82.4403175  29.6332665  86.4975319  82.6911213  30.5179675  86.7632895
  82.9762723  29.4537266  85.7250411 106.2635274  33.0646162  83.1650581
 105.5098983  32.4953560  83.0094585 106.3982816  33.0308826  84.1121216
  91.6533902  37.9359564  78.8405300  91.5179577  38.7811100  79.2690148
  92.1943715  38.1378842  78.0771234  88.1401242  24.0151144  95.5019655
  87.7468188  23.4617343  96.1767300  88.9567382  24.3261723  95.8926173
  85.1063300  35.4535002  79.4133225  85.6187820  36.2478253  79.5638790
  85.7586013  34.7561293  79.3466827  86.9158185  38.5700759  81.4955978
  87.0924813  39.4918723  81.3076962  87.7115018  38.2559178  81.9250358
  91.0569203  25.4309023  93.0939912  91.7978916  26.0316176  93.0144374
  91.2887126  24.6886661  92.5357955  86.2010541  30.6165390  91.3718142
  86.0864056  29.7150648  91.6725241  85.3455059  30.8629087  91.0202958
  93.2802379  38.5583131  92.9705642  92.8366233  37.7719509  92.6526547
  93.9419592  38.7462281  92.3049533  88.0389500  40.0878932  87.4966321
  88.5896925  39.9595996  86.7243315  87.2000976  40.3873821  87.1461214
  95.3783617  38.8385931  90.9987044  95.3602092  39.6594812  90.5067313
  96.3003537  38.7140006  91.2237185  91.8356671  36.3530060  91.8410552
  92.3685008  35.5918348  91.6109860  91.3070752  36.0603712  92.5834706
  95.0026366  21.4590126  87.3704194  94.6590635  22.3491768  87.2943304
  95.3705329  21.2691784  86.5073779  83.0712217  33.7823657  80.1892796
  83.9087439  34.1920665  79.9726504  83.2490484  32.8423099  80.1592990
  94.9676649  31.4498737  75.8776629  94.4523272  32.2203342  76.1165016
  94.6953957  30.7763873  76.5009690  92.5523760  26.2948438  80.9361867
  91.6965356  25.9055288  80.7567506  92.9650712  26.3740399  80.0761653
  94.0822906  23.8294781  85.3353427  93.5787702  23.7924916  84.5221232
  94.3753513  24.7387524  85.3950084  90.3265792  23.9133511  84.3419609
  91.1918789  23.7176320  83.9825498  90.3943301  23.6843863  85.2688965
  99.9410923  34.2031092  77.8129802  99.1640366  33.8642251  77.3684964
 100.6202404  34.2083715  77.1384767  94.7562952  29.3225829  77.7036410
  94.4513087  29.6371978  78.5546553  95.7093394  29.4007249  77.7463743
  93.2009384  35.4816053  79.3529364  92.6730745  34.7468812  79.0402601
  92.6996886  36.2590729  79.1069332  98.1802230  33.6765073  84.4696410
  97.5225904  34.3664334  84.5576539  98.9842629  34.0661505  84.8130397
  87.9328111  26.1435719  81.7135975  88.5071863  25.9210900  80.9809168
  88.5199094  26.2124413  82.4664577  96.9907689  32.0309446  82.5200352
  97.5039570  32.6639438  83.0222062  97.6408912  31.4310641  82.1543712
  88.2597698  28.1740180  75.7331861  87.4235011  28.5114866  76.0541135
  88.1202468  28.0389160  74.7958998  90.2350779  23.0176968  80.4411045
  89.5815191  22.7025985  79.8167660  90.1931253  22.3952708  81.1670868
  91.3461984  33.2996263  72.3564337  90.4389046  33.0685516  72.5555486
  91.8433016  32.5033882  72.5438319  94.2530063  42.0093770  75.2761023
  93.5791762  42.3125467  75.8845981  94.6395885  42.8122850  74.9266480
  93.4688519  29.5058901  84.7658693  92.5511081  29.7273848  84.6080381
  93.8848663  29.5805212  83.9070400  94.2523567  30.9050317  79.8961373
  94.9995386  31.4171714  79.5868495  94.5215157  30.5834370  80.7565766
  92.5250217  33.4008858  76.8788327  91.6161437  33.1167891  76.9760797
  92.5545301  33.8207936  76.0191634  97.7569485  37.0115447  80.6479495
  97.3031812  36.1706357  80.7044685  97.1263451  37.6476846  80.9854275
  96.7002404  27.9407433  81.8780162  95.9625161  27.4284819  82.2090405
  96.9529178  27.5007815  81.0663439  96.2002424  38.8491944  81.5829313
  96.4925398  39.4097001  80.8641678  96.7101045  39.1420505  82.3382472
  96.8014032  20.7183685  82.4721931  97.1072908  19.8581049  82.1847846
  97.5266636  21.3101305  82.2720925  83.0938388  31.1214372  80.8603529
  82.8962788  30.5283733  80.1354596  82.5385052  30.8166582  81.5779468
  91.0735111  31.0137478  82.9798122  91.1283721  30.0611315  82.9040599
  90.2626313  31.1696917  83.4639421  92.2226305  34.9417601  74.2176406
  91.7845735  34.2253460  73.7582043  92.9636746  35.1693716  73.6561497
  89.0127471  29.6314538  80.7388501  88.1995337  29.9308709  81.1453693
  89.5086466  29.2370227  81.4562984  91.1636049  39.6272295  82.6722766
  91.1212228  39.8533141  81.7431298  92.0798748  39.3935670  82.8208567
  94.6101683  30.0956363  89.5703395  94.9651071  30.3227836  90.4297861
  95.2573814  30.4274739  88.9480650 100.3399420  33.2174798  80.2752724
 100.2017319  33.4076394  79.3473913  99.9835639  33.9794181  80.7320775
  88.5041546  27.2032894  86.3549736  89.1440925  27.0621653  85.6572700
  87.6719077  26.9167407  85.9788338 100.3668800  35.2851325  85.2863996
 100.8005306  35.1926615  86.1347050 101.0800380  35.2608826  84.6484012
  89.2801850  36.5035324  82.4684729  90.0742448  36.0085644  82.2667304
  88.5693542  35.9753187  82.1052434  94.0996694  38.8853420  86.8197096
  94.1533717  39.4544356  87.5874812  93.2311476  39.0555305  86.4551133
  85.5884613  30.6478406  78.5444481  84.6582202  30.5862861  78.7614444
  85.6842085  30.1254359  77.7481123  85.5070163  27.1733219  81.1322723
  85.7676980  28.0878552  81.0231884  86.3287335  26.7057661  81.2819336
  86.9795088  28.5870976  88.3021548  87.6518141  28.3788338  87.6534196
  86.1524874  28.3893062  87.8626780 101.2284349  35.3275026  87.8196881
 101.4220239  36.2320837  88.0656156 101.1284967  34.8682445  88.6535466
  92.8820660  25.2132917  90.3187208  92.2348575  25.9122866  90.2251685
  93.6521675  25.6469061  90.6863457  96.2899458  35.4781769  93.3937762
  96.1384964  35.2492321  92.4767845  96.2804137  36.4352370  93.4069107
  93.0584794  33.0513682  88.3784028  93.9876854  33.2024841  88.2052995
  92.6375824  33.1397702  87.5232675  91.8573126  37.0764346  86.1482566
  91.7184212  36.7083130  87.0208504  91.0687722  37.5911985  85.9766524
  93.4078341  36.4545949  83.5371404  93.0728174  36.4146719  84.4329053
  92.9082287  35.7890665  83.0641814  87.3822585  31.8613579  89.0623985
  87.2442383  31.1293818  89.6635524  88.2927509  31.7722479  88.7808172
  96.3437533  33.8001983  73.8108463  95.7266703  33.0748811  73.7141516
  95.8754021  34.5611343  73.4675537  90.0104886  31.5733538  88.5507664
  90.7204504  30.9326730  88.5094283  89.9674194  31.8246433  89.4733845
  97.9991664  38.5100891  91.4714244  97.9404211  37.8260112  90.8044827
  98.4011183  39.2519881  91.0194870  88.7233820  28.5598756  90.3703304
  88.1871177  28.1089494  91.0224900  88.1350528  28.6944665  89.6273768
  87.0182363  45.3262805  84.2647962  87.2578961  45.9581329  84.9426981
  86.1751560  44.9750845  84.5513322  88.1336079  28.0187407  72.9329767
  87.2565545  27.8976208  72.5692014  88.6093832  27.2273486  72.6808656
  98.0009072  36.4740475  89.7028223  97.1135850  36.1366397  89.8254622
  98.5707623  35.7423507  89.9396989  79.6538219  32.8064567  83.0271275
  80.3409259  32.4926297  82.4392290  79.4986348  33.7105932  82.7538526
  84.4572941  27.6954764  87.4556298  84.3731130  27.0880433  86.7206708
  83.6355647  28.1863782  87.4565795  91.5310225  41.1341928  86.6689466
  91.4580397  41.9396899  87.1808771  91.0887618  41.3333894  85.8437488
  91.3200005  40.3713698  80.1792288  90.5367527  40.9135378  80.2730513
  92.0192750  40.8887677  80.5786529  94.6296655  26.1808327  82.8226493
  95.1265354  25.4278290  82.5027564  93.8583636  26.2172644  82.2569703
 102.4826412  31.8848693  84.4644785 102.4716288  32.7673408  84.0938718
 101.6143792  31.5320244  84.2699322  93.9908909  41.0328762  88.8247625
  94.7036881  41.6676227  88.7523527  93.4998937  41.1292628  88.0087627
  95.7126436  34.9380014  80.3964917  94.7782714  35.0581477  80.2269621
  95.8903104  34.0352481  80.1324927  91.2131624  28.3225710  82.5498178
  90.8429411  27.7696751  83.2379084  91.7090716  27.7183844  81.9973178
  99.0998987  30.7797334  80.9314951  99.5659439  31.6125325  80.8575254
  99.5506487  30.3142315  81.6360209  89.0420822  38.7823205  89.6453196
  89.7430282  39.4159688  89.7982590  88.5715937  39.1237937  88.8848835
  97.1675218  37.1241155  77.9301103  97.4435062  37.0097750  78.8394977
  96.2979717  36.7258640  77.8913276  97.0715650  23.1477921  84.9705852
  96.1578729  23.3782148  85.1388059  97.5008751  23.2316365  85.8219885
  96.8422108  31.3367813  87.4705746  96.1893558  31.5843720  86.8158199
  97.2202488  30.5231951  87.1368224  93.8029282  41.3727506  81.5733917
  93.9851677  40.5549162  82.0361669  94.6262268  41.5895198  81.1358807
  94.1371448  40.2995691  78.8348965  94.6659214  39.7888146  78.2219127
  94.3999667  39.9838221  79.6994498  92.8909681  32.0787624  93.9571783
  92.2150318  31.9781753  94.6274159  93.7137315  31.9226837  94.4207781
  84.6388540  38.3159560  86.5784299  85.2241977  37.5703248  86.7112203
  84.4413379  38.6263517  87.4620963  87.4927195  41.3510808  81.5946741
  86.8237571  41.8356935  81.1110781  87.3540065  41.5980028  82.5090120
  79.2306195  30.8865160  85.2988742  79.2690294  30.3528751  86.0925860
  78.7246488  30.3600366  84.6799719  91.6332464  43.3854551  88.1929399
  92.1850772  43.5486173  88.9578485  91.9738657  43.9758989  87.5209424
  86.6096957  25.7329701  88.7951284  86.6738284  26.5944532  88.3828682
  86.5464077  25.1203703  88.0623643  86.0849230  27.8052833  92.4424318
  86.7121269  27.4229911  93.0561843  85.2277149  27.5867035  92.8080011
  96.4843338  38.2115809  94.0478054  97.0283242  38.8245767  93.5533009
  95.9030183  38.7695387  94.5645067  82.8614773  29.6129263  78.3742673
  83.1568214  28.7039941  78.3209727  81.9602808  29.5917002  78.0523676
  94.7700851  41.3336527  85.1793082  94.6451991  40.5326267  84.6704027
  95.4279942  41.8282720  84.6907052  86.3909020  27.6885259  84.3570222
  85.6695605  28.3021227  84.2177695  87.1802275  28.2243024  84.2786868
  96.8335760  39.1345547  86.8072632  95.8866095  39.0150898  86.7350958
  97.1818533  38.2468045  86.8898893  89.1935333  25.0239686  90.6310874
  89.7169735  25.2701982  91.3937183  88.9747666  25.8559720  90.2114011
  84.5902614  27.2943360  78.4981998  84.2615320  26.4140739  78.3157104
  84.9441985  27.2391029  79.3858388  93.8382193  38.9298263  83.0076984
  93.6907155  38.0014970  83.1884554  94.6635686  38.9518354  82.5234059
  87.7044437  27.5816330  78.8657476  88.0440510  28.1102251  78.1436084
  88.1516558  27.9196736  79.6416043  97.4416315  39.7526822  84.0941857
  98.3662862  39.5469683  83.9566308  97.2731618  39.5043223  85.0031198
  90.3987878  25.9653381  88.3160544  90.0584698  25.1661194  88.7181224
  89.6926884  26.2655092  87.7437377  91.0504350  23.0502693  86.7687867
  91.8730419  22.5763171  86.6466757  91.2942413  23.8293177  87.2686553
  89.6912584  26.0790952  77.0650769  90.4120947  26.4572204  76.5614486
  89.0677889  26.7979828  77.1685747  93.8343707  26.7836101  78.0009101
  94.0507322  27.6660738  77.6997929  93.3537774  26.3922314  77.2714743
  88.5742929  29.7421814  84.5779846  88.4287509  30.0562117  85.4704127
  88.0968132  30.3606714  84.0250744  90.4339312  26.7324362  84.6260735
  90.4200880  25.8365455  84.2893033  91.1511740  26.7395026  85.2599021
  92.2865442  27.1661702  86.6713863  92.0283220  28.0878773  86.6698193
  91.7550483  26.7692137  87.3614327  97.2311631  40.2712489  79.4503948
  97.4048509  39.7058912  78.6977801  97.7240522  41.0713384  79.2683438
  83.0488591  32.2827158  87.5167507  82.5042059  33.0586966  87.6487781
  83.9267941  32.6297963  87.3586628  89.8376207  25.6138742  79.8948305
  89.9592119  24.6855388  80.0939193  89.5478250  25.6277428  78.9826621
  92.7067398  23.2993653  83.0315025  92.7289095  23.3632986  82.0767005
  93.1235457  22.4598161  83.2255531 103.0851022  33.0348912  81.0694248
 103.5282168  32.2856237  80.6713371 102.2077532  33.0259048  80.6867980
  98.2186804  39.5879254  76.5500846  98.9137708  40.2085946  76.7688161
  98.5609954  38.7374605  76.8253224  83.8354613  31.4097055  90.4097664
  83.0936349  31.5579690  90.9962294  83.5147357  31.6705320  89.5464413
 100.1178227  37.0378959  78.0788177 100.6429551  37.3766232  77.3537497
 100.0300579  36.1025974  77.8951312  91.7798275  40.9513033  90.2078054
  92.0885402  40.7062180  91.0800753  92.5773757  41.1559671  89.7196924
  91.8018887  43.1050942  82.4383430  91.3623878  42.6127321  83.1316287
  92.5527004  42.5623910  82.1975506  84.2811226  39.2962483  82.4408058
  85.1069246  38.9966255  82.0606702  83.9305278  38.5270106  82.8897847
  89.2492760  38.6488951  84.5105732  88.6272769  37.9859656  84.2107960
  89.9197626  38.6750083  83.8279380  82.4819831  37.2148810  83.3996992
  81.6451740  36.7870984  83.2180993  82.4543477  37.4081253  84.3367783
  89.3217287  27.1270739  94.1038238  89.3705443  28.0032862  93.7216008
  89.8639801  26.5848133  93.5309881  99.8072133  37.6711863  93.3839375
  99.0167676  37.6536002  92.8443874  99.5705487  38.2100156  94.1388412
  99.9270008  34.5204329  90.6972104  99.9768013  34.3554337  91.6387626
  99.8183931  33.6531588  90.3069984  88.8106266  37.1992875  77.9864193
  88.9594387  37.8828339  77.3330865  89.6172710  37.1797965  78.5013648
  97.2173770  30.5035257  92.0131410  98.1183633  30.3641722  91.7215408
  97.2921745  30.6689712  92.9529588  91.5516575  27.8802112  90.8584597
  90.6819885  28.1735678  90.5867185  91.7876056  28.4642557  91.5791860
 101.4288205  36.9401271  90.9414125 101.1373013  37.3031251  91.7777586
 100.8160336  36.2268279  90.7627457 102.6283887  34.5054150  83.4616695
 103.4630778  34.9443954  83.6254256 102.7643016  34.0292804  82.6424941
  99.6775393  32.0633885  89.4094183 100.1529514  32.2561532  88.6013035
  98.7540958  32.1193071  89.1637567  86.5658899  33.2258052  78.9925261
  86.3204941  32.3220382  79.1905472  86.7354814  33.2275203  78.0504739
  94.2555609  24.0981729  88.3750017  94.7737553  24.8342756  88.0496506
  93.9010742  24.4045722  89.2096776  85.8354547  28.9586410  76.4911423
  85.1423792  29.0330765  75.8351459  85.5906299  28.1946754  77.0132940
  94.5068203  20.5182011  83.8950914  94.7869957  19.8505200  84.5211340
  95.2918810  20.7111107  83.3825577  92.3101672  39.6941005  75.4575940
  91.7375639  40.3131192  75.0046412  92.8834466  40.2440367  75.9915862
  98.3777062  28.9399645  87.6422489  99.3294485  29.0397743  87.6634713
  98.2080512  28.1477914  88.1520573  96.3991441  26.0255229  87.8281890
  95.8041373  26.3060241  87.1328378  96.1141138  26.5149129  88.5998631
  95.5298932  39.9778155  76.5884522  96.4629605  39.9123717  76.7917398
  95.4422145  40.8134422  76.1299055  98.1586948  39.2944026  73.5488470
  98.0800580  38.9603889  74.4424228  98.9796615  39.7865794  73.5479942
 100.8565140  32.1605765  86.7564788 100.8241460  31.2221766  86.9424472
 101.4665763  32.2389802  86.0230613  92.6948470  31.0301818  72.7991992
  93.6407575  30.9008026  72.8680410  92.3162715  30.2916480  73.2761421
 101.0059628  28.9516808  86.8023072 100.4898677  28.1675265  86.6153000
 101.8899577  28.6235525  86.9669591  98.6670355  22.6957824  82.7618884
  98.4695176  22.3872912  83.6462216  99.2770061  23.4219463  82.8916814
 106.6741689  33.2221772  85.8970825 107.4045078  32.9607060  86.4578529
 106.0648635  32.4850494  85.9372893 104.7556987  31.3629634  86.4945276
 104.0290150  31.2285599  85.8861768 104.3404273  31.6706463  87.3001994
  92.5787163  35.0819564  94.2592649  93.4990172  35.2598163  94.4532696
  92.5436746  34.1375609  94.1072349  90.8791388  28.9551794  72.7346878
  89.9722843  28.6584907  72.8109591  91.1567369  28.6581612  71.8681164
  81.7969328  30.2758158  83.1845924  81.4772112  29.4223466  82.8920298
  81.2502756  30.4906736  83.9403891  85.5749236  32.9920599  86.9015431
  85.7935245  33.9237707  86.9203464  85.9875009  32.6328573  87.6870234
  92.4953453  23.4988684  78.8891119  91.6854182  23.1535769  79.2646365
  93.1837870  23.1896228  79.4778731  94.4244002  22.5766731  80.5115416
  94.9775040  22.9962184  81.1705439  94.6614088  21.6502479  80.5538372
  90.4477101  28.5653805  96.2918179  90.3473828  29.5148162  96.2230271
  90.2298643  28.2372043  95.4194250  89.6490172  25.8138730  72.8758857
  90.5109336  26.1393628  73.1354674  89.8340516  25.0270226  72.3631923
  81.6657588  33.8961069  85.1539046  80.9721059  33.4815022  84.6409000
  82.4130579  33.9381606  84.5572465  97.8022809  24.6867256  80.0194080
  97.2221478  25.3452060  79.6372132  97.5358741  23.8644601  79.6081497
  96.2526375  24.0872314  82.2215400  96.7526153  24.1988848  81.4129719
  96.8961983  23.7833367  82.8616209  90.3108371  31.9950943  95.1083241
  89.8275453  32.7951304  95.3147130  90.3969310  32.0058888  94.1550685
  83.5794331  33.8279323  83.0305061  83.5565019  33.9267010  82.0786944
  83.8894967  34.6744474  83.3522227  86.2381708  35.8855478  87.1451675
  87.1924962  35.8539420  87.0781606  86.0394232  35.4246102  87.9601901
  86.8281091  34.4556594  89.7122473  87.6473980  34.9500673  89.7357310
  87.1017898  33.5388562  89.6840040  96.5847687  26.8467346  79.0750428
  95.6973542  27.1316997  78.8570623  97.0001676  26.6861110  78.2277705
  99.9362223  26.8713867  82.7904767 100.7122613  27.3610320  83.0629384
  99.2110357  27.2971922  83.2476637 102.3734782  27.5841487  83.8478708
 102.9679272  27.3437223  83.1372016 102.4461365  26.8648617  84.4752244
  84.5931937  41.4275098  84.1621873  84.4586405  40.6675498  83.5959871
  84.1763999  42.1515997  83.6950662  95.7290900  36.6112021  73.1698448
  96.4326750  36.8162024  73.7856104  95.0053549  37.1788783  73.4347532
  96.5588710  32.3621882  79.2900718  96.5023912  32.8190434  78.4508351
  97.1117053  31.6012567  79.1123561 100.3693516  28.1511614  80.1150838
 100.1130451  27.7508250  80.9459045  99.7446384  28.8655408  79.9900977
 104.6805854  30.8907687  82.6222129 104.1205412  30.9600877  83.3953691
 104.0749358  30.7148672  81.9021625  87.7501063  42.3244415  84.3740315
  87.6333447  43.2689847  84.2719006  86.9293509  42.0217976  84.7626115
  97.6377598  37.0494550  75.2196908  98.4723202  36.6175749  75.0374383
  97.4761941  36.8776564  76.1473803  97.2923490  33.5526664  76.5853247
  97.2372294  33.3870935  75.6441692  96.6669545  34.2602697  76.7415437
  82.0816005  28.7894728  90.4114670  82.7274868  28.2793682  90.9001895
  81.8733156  29.5263410  90.9858095  94.6069397  35.8575575  95.9106810
  95.4760557  36.0316228  95.5493445  94.1276148  36.6769992  95.7882540
  90.6019615  23.0534773  76.1638566  90.5898285  23.9976613  76.3206837
  91.4943037  22.8704918  75.8698027  88.7755577  42.9772676  87.5896244
  89.6782824  43.0096287  87.9062739  88.5492947  42.0473127  87.6042580
  90.5309179  41.7303663  84.2506322  89.5804810  41.7305525  84.1370695
  90.8341665  40.9836398  83.7342357  94.4171735  19.6477549  80.4184503
  93.6504131  19.0936036  80.5641185  94.8282440  19.7199418  81.2798654
  86.4213496  25.9362345  94.5089684  87.2844957  25.5799150  94.7193008
  85.8478906  25.5976240  95.1965088 106.2661873  47.5664201  85.3152085
 106.9040283  47.4470949  84.6115425 106.1482716  48.5145045  85.3740037
 103.0751579  47.5191630  85.2513610 102.7370091  47.4032694  84.3634144
 103.9441347  47.1182795  85.2314616  98.9338395  49.3727106  81.2410501
  98.3703260  49.2817043  80.4726788  98.8190790  48.5527010  81.7212993
 103.5571362  48.6726481  91.2099815 103.5460003  48.2779280  90.3380319
 103.7192001  47.9392554  91.8033587  96.4802827  50.8678298  84.0794721
  97.2724119  50.5269122  83.6641020  96.7199477  50.9773273  84.9996874
 104.5137953  53.0398074  76.5524965 103.8625933  53.6252154  76.1658979
 105.3082316  53.5704269  76.6120003  98.4393581  50.1287211  76.9512100
  99.2124457  49.5816198  76.8124976  98.7918979  50.9931460  77.1626561
 100.2778623  51.4563593  90.1578999  99.9868489  52.3609224  90.0425665
 100.9135607  51.4980121  90.8723069 101.2034830  48.8340442  86.7480359
 101.7998402  48.6096464  86.0337322 101.2609802  48.0925187  87.3505807
 100.7759858  46.2879877  74.5830550 101.0285379  45.7661398  73.8214013
  99.8384417  46.1246022  74.6857233 105.8203141  45.2915655  82.3905293
 106.6066230  44.8735078  82.0395710 106.0841846  46.1961747  82.5586941
 105.9913219  50.7288506  77.0893950 105.3559052  50.8023132  77.8014854
 105.6610625  51.3182104  76.4113029 111.2211568  45.2290888  83.2938271
 111.9536740  44.6590105  83.5276101 110.4650924  44.8412489  83.7344777
 100.4956147  48.1907983  76.7854925 100.3792405  47.5152886  77.4536009
 100.6058407  47.7040357  75.9687078 102.8387688  47.6518130  80.4901614
 102.4745895  47.1248751  81.2014535 103.6954804  47.2616599  80.3168099
 108.7436989  38.9412463  87.7532880 108.4120313  39.8107874  87.5294095
 108.1482602  38.6248747  88.4326910 102.4793175  42.6808030  75.4862962
 102.6467577  43.5488266  75.8533433 102.2890344  42.8435311  74.5624252
 105.2368508  51.1425009  87.1528793 104.9369231  52.0450047  87.0444600
 104.8919568  50.8757192  88.0049946  98.6880990  47.5938805  83.1865497
  97.7631486  47.4615020  83.3943189  98.9365403  48.3733025  83.6835440
 108.6365652  43.6607549  84.8326230 107.7282529  43.5922957  84.5384991
 108.5853248  44.1379494  85.6608056 102.4582396  45.1365687  76.4709629
 102.3382021  45.5822738  77.3095110 101.7634984  45.4851005  75.9123167
  96.0489801  47.2372079  84.0209286  96.1782182  47.4906558  84.9348698
  95.3687252  47.8299787  83.7013941 100.2189288  57.9069329  80.1199760
 100.1413318  58.8577154  80.1988241  99.6150932  57.5615201  80.7774687
 102.7106518  45.0797194  92.7761127 101.9339852  45.6391114  92.7663992
 103.3497081  45.5653977  93.2975997 110.5027298  41.8623987  86.6104104
 109.8601679  42.1556520  85.9643899 109.9982227  41.7476908  87.4157301
 108.1567462  45.6087160  77.2989963 109.0685318  45.8414547  77.1237661
 107.6477109  46.1924205  76.7365042 100.9652890  47.8882648  92.3379094
 101.7067574  48.4267692  92.0613918 100.2589876  48.5148936  92.4950646
 106.4408230  50.0311788  90.9351256 106.8491586  49.5894199  90.1905888
 105.7185491  49.4564416  91.1885449 102.7939300  44.9684395  88.3084813
 103.6400495  45.3923809  88.4519462 102.7337937  44.3118019  89.0023376
 106.7637044  50.5912979  84.6903545 106.1345907  50.7558693  83.9879613
 106.3762706  51.0054588  85.4614509 110.6426276  51.5267417  82.0447909
 109.9577314  51.9066318  81.4944942 110.7270126  52.1362743  82.7779856
 105.9438745  42.6288763  89.9665986 105.6999677  43.3830824  89.4300262
 106.2198676  43.0074111  90.8013234 107.8977208  49.1727376  88.6443252
 108.1094103  49.8159136  87.9677633 107.8506956  48.3389692  88.1765182
 105.5003437  41.7845196  85.5479824 104.6387916  42.0826450  85.8396562
 105.5265871  42.0015595  84.6160857 102.3165006  50.3287387  81.9553630
 102.7803352  50.6075090  81.1658252 102.0521804  49.4270831  81.7726721
  99.2089087  49.8758868  84.8933393  99.7790444  50.3046137  84.2550878
  99.7997199  49.5941453  85.5917579 101.2533892  46.4510539  78.7643195
 101.9557936  46.9031583  79.2317121 100.9214521  45.8094358  79.3923088
  99.7014254  45.0422296  93.1394404  99.0712914  45.7238577  93.3729801
  99.5950342  44.9305377  92.1947543  94.9959226  44.7094092  84.0660329
  94.2058280  44.9651620  83.5900439  95.4870474  45.5242430  84.1712369
 109.0123036  52.0499331  86.8165609 109.8340480  51.6479518  86.5348291
 109.0085439  51.9467565  87.7681725  96.9473972  45.0738671  81.0243805
  96.1505135  45.1857365  81.5427301  96.7199564  45.4125323  80.1584696
 102.7779639  51.5983374  88.9726320 102.8424072  52.0603782  89.8084492
 102.0690563  50.9680739  89.1008630  93.2796929  44.9624582  86.4975319
  93.5304968  45.8471592  86.7632895  93.8156478  44.7829184  85.7250411
 117.1029029  48.3938080  83.1650581 116.3492737  47.8245478  83.0094585
 117.2376570  48.3600744  84.1121216 102.4927657  53.2651482  78.8405300
 102.3573332  54.1103018  79.2690148 103.0337469  53.4670760  78.0771234
  98.9794997  39.3443062  95.5019655  98.5861942  38.7909260  96.1767300
  99.7961137  39.6553640  95.8926173  95.9457054  50.7826920  79.4133225
  96.4581575  51.5770170  79.5638790  96.5979767  50.0853210  79.3466827
  97.7551939  53.8992676  81.4955978  97.9318567  54.8210641  81.3076962
  98.5508773  53.5851095  81.9250358 101.8962958  40.7600941  93.0939912
 102.6372671  41.3608094  93.0144374 102.1280880  40.0178579  92.5357955
  97.0404296  45.9457308  91.3718142  96.9257811  45.0442565  91.6725241
  96.1848813  46.1921005  91.0202958 104.1196133  53.8875048  92.9705642
 103.6759987  53.1011427  92.6526547 104.7813347  54.0754199  92.3049533
  98.8783254  55.4170850  87.4966321  99.4290680  55.2887913  86.7243315
  98.0394730  55.7165739  87.1461214 106.2177371  54.1677848  90.9987044
 106.1995847  54.9886729  90.5067313 107.1397291  54.0431924  91.2237185
 102.6750426  51.6821978  91.8410552 103.2078762  50.9210266  91.6109860
 102.1464507  51.3895630  92.5834706 105.8420121  36.7882044  87.3704194
 105.4984390  37.6783685  87.2943304 106.2099083  36.5983701  86.5073779
  93.9105971  49.1115574  80.1892796  94.7481193  49.5212583  79.9726504
  94.0884239  48.1715016  80.1592990 105.8070403  46.7790655  75.8776629
 105.2917027  47.5495260  76.1165016 105.5347712  46.1055791  76.5009690
 103.3917514  41.6240356  80.9361867 102.5359111  41.2347206  80.7567506
 103.8044466  41.7032316  80.0761653 104.9216661  39.1586699  85.3353427
 104.4181456  39.1216834  84.5221232 105.2147268  40.0679442  85.3950084
 101.1659547  39.2425429  84.3419609 102.0312544  39.0468237  83.9825498
 101.2337056  39.0135780  85.2688965 110.7804677  49.5323010  77.8129802
 110.0034120  49.1934169  77.3684964 111.4596158  49.5375633  77.1384767
 105.5956706  44.6517747  77.7036410 105.2906842  44.9663896  78.5546553
 106.5487149  44.7299167  77.7463743 104.0403138  50.8107970  79.3529364
 103.5124500  50.0760730  79.0402601 103.5390641  51.5882647  79.1069332
 109.0195984  49.0056991  84.4696410 108.3619659  49.6956252  84.5576539
 109.8236383  49.3953423  84.8130397  98.7721866  41.4727637  81.7135975
  99.3465618  41.2502818  80.9809168  99.3592848  41.5416331  82.4664577
 107.8301443  47.3601363  82.5200352 108.3433325  47.9931355  83.0222062
 108.4802667  46.7602559  82.1543712  99.0991453  43.5032098  75.7331861
  98.2628765  43.8406784  76.0541135  98.9596223  43.3681077  74.7958998
 101.0744534  38.3468885  80.4411045 100.4208946  38.0317903  79.8167660
 101.0325008  37.7244626  81.1670868 102.1855738  48.6288181  72.3564337
 101.2782800  48.3977434  72.5555486 102.6826770  47.8325800  72.5438319
 105.0923817  57.3385688  75.2761023 104.4185516  57.6417384  75.8845981
 105.4789639  58.1414768  74.9266480 104.3082274  44.8350819  84.7658693
 103.3904835  45.0565766  84.6080381 104.7242418  44.9097129  83.9070400
 105.0917322  46.2342235  79.8961373 105.8389141  46.7463632  79.5868495
 105.3608911  45.9126287  80.7565766 103.3643972  48.7300775  76.8788327
 102.4555191  48.4459808  76.9760797 103.3939056  49.1499854  76.0191634
 108.5963239  52.3407365  80.6479495 108.1425566  51.4998275  80.7044685
 107.9657206  52.9768763  80.9854275 107.5396159  43.2699351  81.8780162
 106.8018916  42.7576737  82.2090405 107.7922932  42.8299733  81.0663439
 107.0396179  54.1783862  81.5829313 107.3319153  54.7388919  80.8641678
 107.5494799  54.4712423  82.3382472 107.6407786  36.0475603  82.4721931
 107.9466663  35.1872966  82.1847846 108.3660391  36.6393223  82.2720925
  93.9332142  46.4506290  80.8603529  93.7356542  45.8575650  80.1354596
  93.3778806  46.1458500  81.5779468 101.9128866  46.3429396  82.9798122
 101.9677476  45.3903232  82.9040599 101.1020068  46.4988835  83.4639421
 103.0620060  50.2709519  74.2176406 102.6239490  49.5545378  73.7582043
 103.8030501  50.4985634  73.6561497  99.8521226  44.9606456  80.7388501
  99.0389091  45.2600626  81.1453693 100.3480220  44.5662145  81.4562984
 102.0029804  54.9564213  82.6722766 101.9605982  55.1825059  81.7431298
 102.9192503  54.7227587  82.8208567 105.4495438  45.4248280  89.5703395
 105.8044825  45.6519753  90.4297861 106.0967569  45.7566657  88.9480650
 111.1793174  48.5466716  80.2752724 111.0411073  48.7368312  79.3473913
 110.8229393  49.3086099  80.7320775  99.3435301  42.5324811  86.3549736
  99.9834680  42.3913570  85.6572700  98.5112831  42.2459325  85.9788338
 111.2062554  50.6143243  85.2863996 111.6399061  50.5218532  86.1347050
 111.9194135  50.5900744  84.6484012 100.1195604  51.8327242  82.4684729
 100.9136203  51.3377562  82.2667304  99.4087297  51.3045105  82.1052434
 104.9390449  54.2145337  86.8197096 104.9927471  54.7836274  87.5874812
 104.0705230  54.3847222  86.4551133  96.4278368  45.9770323  78.5444481
  95.4975956  45.9154779  78.7614444  96.5235840  45.4546276  77.7481123
  96.3463917  42.5025136  81.1322723  96.6070734  43.4170470  81.0231884
  97.1681089  42.0349579  81.2819336  97.8188842  43.9162893  88.3021548
  98.4911896  43.7080256  87.6534196  96.9918629  43.7184979  87.8626780
 112.0678104  50.6566944  87.8196881 112.2613994  51.5612754  88.0656156
 111.9678722  50.1974363  88.6535466 103.7214414  40.5424834  90.3187208
 103.0742329  41.2414784  90.2251685 104.4915430  40.9760978  90.6863457
 107.1293212  50.8073687  93.3937762 106.9778719  50.5784238  92.4767845
 107.1197892  51.7644288  93.4069107 103.8978549  48.3805599  88.3784028
 104.8270609  48.5316759  88.2052995 103.4769579  48.4689620  87.5232675
 102.6966880  52.4056264  86.1482566 102.5577966  52.0375048  87.0208504
 101.9081477  52.9203903  85.9766524 103.2915032  57.5065360  77.4908102
 103.4666788  57.0353403  78.3053725 102.6047820  58.1331126  77.7189363
 104.2472096  51.7837866  83.5371404 103.9121928  51.7438636  84.4329053
 103.7476041  51.1182582  83.0641814  98.2216340  47.1905496  89.0623985
  98.0836138  46.4585735  89.6635524  99.1321263  47.1014397  88.7808172
 107.1831287  49.1293901  73.8108463 106.5660458  48.4040729  73.7141516
 106.7147776  49.8903261  73.4675537 100.8498640  46.9025456  88.5507664
 101.5598259  46.2618648  88.5094283 100.8067948  47.1538351  89.4733845
 108.8385419  53.8392809  91.4714244 108.7797965  53.1552029  90.8044827
 109.2404937  54.5811799  91.0194870  99.5627574  43.8890674  90.3703304
  99.0264931  43.4381412  91.0224900  98.9744283  44.0236582  89.6273768
  98.9729833  43.3479325  72.9329767  98.0959300  43.2268126  72.5692014
  99.4487586  42.5565403  72.6808656 108.8402826  51.8032393  89.7028223
 107.9529605  51.4658315  89.8254622 109.4101377  51.0715424  89.9396989
  90.4931973  48.1356485  83.0271275  91.1803013  47.8218215  82.4392290
  90.3380102  49.0397849  82.7538526  95.2966695  43.0246681  87.4556298
  95.2124884  42.4172351  86.7206708  94.4749402  43.5155700  87.4565795
 102.3703980  56.4633845  86.6689466 102.2974151  57.2688817  87.1808771
 101.9281373  56.6625811  85.8437488 102.1593759  55.7005615  80.1792288
 101.3761281  56.2427296  80.2730513 102.8586504  56.2179595  80.5786529
 105.4690409  41.5100245  82.8226493 105.9659109  40.7570207  82.5027564
 104.6977391  41.5464562  82.2569703 113.3220167  47.2140610  84.4644785
 113.3110043  48.0965326  84.0938718 112.4537546  46.8612161  84.2699322
 104.8302663  56.3620679  88.8247625 105.5430635  56.9968144  88.7523527
 104.3392692  56.4584545  88.0087627 106.5520190  50.2671932  80.3964917
 105.6176469  50.3873395  80.2269621 106.7296858  49.3644399  80.1324927
 102.0525378  43.6517628  82.5498178 101.6823166  43.0988668  83.2379084
 102.5484471  43.0475761  81.9973178 109.9392741  46.1089251  80.9314951
 110.4053194  46.9417243  80.8575254 110.3900242  45.6434233  81.6360209
  99.8814577  54.1115123  89.6453196 100.5824036  54.7451606  89.7982590
  99.4109692  54.4529854  88.8848835 108.0068972  52.4533073  77.9301103
 108.2828816  52.3389667  78.8394977 107.1373471  52.0550558  77.8913276
 107.9109404  38.4769838  84.9705852 106.9972484  38.7074065  85.1388059
 108.3402506  38.5608282  85.8219885 107.6815863  46.6659730  87.4705746
 107.0287313  46.9135638  86.8158199 108.0596243  45.8523869  87.1368224
 104.6423036  56.7019423  81.5733917 104.8245431  55.8841079  82.0361669
 105.4656023  56.9187116  81.1358807 104.9765202  55.6287609  78.8348965
 105.5052968  55.1180063  78.2219127 105.2393422  55.3130139  79.6994498
 103.7303436  47.4079541  93.9571783 103.0544073  47.3073671  94.6274159
 104.5531070  47.2518755  94.4207781  95.4782295  53.6451478  86.5784299
  96.0635732  52.8995166  86.7112203  95.2807133  53.9555435  87.4620963
  98.3320950  56.6802725  81.5946741  97.6631325  57.1648853  81.1110781
  98.1933820  56.9271946  82.5090120  90.0699949  46.2157078  85.2988742
  90.1084049  45.6820669  86.0925860  89.5640242  45.6892284  84.6799719
 102.4726219  58.7146469  88.1929399 103.0244527  58.8778090  88.9578485
 102.8132412  59.3050907  87.5209424  97.4490712  41.0621619  88.7951284
  97.5132038  41.9236450  88.3828682  97.3857832  40.4495620  88.0623643
  96.9242984  43.1344751  92.4424318  97.5515023  42.7521828  93.0561843
  96.0670903  42.9158953  92.8080011 107.3237093  53.5407726  94.0478054
 107.8676997  54.1537685  93.5533009 106.7423938  54.0987305  94.5645067
  93.7008527  44.9421180  78.3742673  93.9961968  44.0331859  78.3209727
  92.7996563  44.9208920  78.0523676 105.6094606  56.6628444  85.1793082
 105.4845745  55.8618184  84.6704027 106.2673697  57.1574638  84.6907052
  97.2302774  43.0177177  84.3570222  96.5089360  43.6313145  84.2177695
  98.0196030  43.5534942  84.2786868 107.6729514  54.4637464  86.8072632
 106.7259850  54.3442816  86.7350958 108.0212287  53.5759962  86.8898893
 100.0329088  40.3531603  90.6310874 100.5563489  40.5993900  91.3937183
  99.8141421  41.1851638  90.2114011  95.4296369  42.6235278  78.4981998
  95.1009075  41.7432657  78.3157104  95.7835739  42.5682947  79.3858388
 104.6775947  54.2590181  83.0076984 104.5300910  53.3306888  83.1884554
 105.5029441  54.2810271  82.5234059  98.5438192  42.9108248  78.8657476
  98.8834264  43.4394169  78.1436084  98.9910312  43.2488654  79.6416043
 108.2810069  55.0818739  84.0941857 109.2056617  54.8761601  83.9566308
 108.1125373  54.8335141  85.0031198 101.2381633  41.2945298  88.3160544
 100.8978453  40.4953112  88.7181224 100.5320639  41.5947009  87.7437377
 101.8898104  38.3794611  86.7687867 102.7124174  37.9055089  86.6466757
 102.1336168  39.1585095  87.2686553 100.5306339  41.4082869  77.0650769
 101.2514701  41.7864122  76.5614486  99.9071643  42.1271746  77.1685747
 104.6737462  42.1128018  78.0009101 104.8901076  42.9952656  77.6997929
 104.1931529  41.7214232  77.2714743  99.4136683  45.0713732  84.5779846
  99.2681264  45.3854035  85.4704127  98.9361887  45.6898632  84.0250744
 101.2733066  42.0616280  84.6260735 101.2594635  41.1657373  84.2893033
 101.9905494  42.0686943  85.2599021 103.1259197  42.4953620  86.6713863
 102.8676975  43.4170690  86.6698193 102.5944237  42.0984054  87.3614327
 108.0705386  55.6004407  79.4503948 108.2442263  55.0350829  78.6977801
 108.5634277  56.4005302  79.2683438  93.8882345  47.6119076  87.5167507
  93.3435813  48.3878884  87.6487781  94.7661695  47.9589880  87.3586628
 100.6769962  40.9430660  79.8948305 100.7985873  40.0147306  80.0939193
 100.3872004  40.9569346  78.9826621 103.5461152  38.6285570  83.0315025
 103.5682849  38.6924903  82.0767005 103.9629211  37.7890079  83.2255531
 113.9244777  48.3640830  81.0694248 114.3675923  47.6148155  80.6713371
 113.0471287  48.3550966  80.6867980 109.0580558  54.9171171  76.5500846
 109.7531463  55.5377864  76.7688161 109.4003708  54.0666522  76.8253224
  94.6748367  46.7388972  90.4097664  93.9330103  46.8871608  90.9962294
  94.3541111  46.9997238  89.5464413 110.9571981  52.3670877  78.0788177
 111.4823305  52.7058150  77.3537497 110.8694334  51.4317892  77.8951312
 102.6192030  56.2804950  90.2078054 102.9279156  56.0354097  91.0800753
 103.4167512  56.4851589  89.7196924 102.6412642  58.4342860  82.4383430
 102.2017632  57.9419239  83.1316287 103.3920759  57.8915828  82.1975506
  95.1204981  54.6254401  82.4408058  95.9463001  54.3258173  82.0606702
  94.7699033  53.8562023  82.8897847 100.0886514  53.9780869  84.5105732
  99.4666523  53.3151574  84.2107960 100.7591381  54.0042001  83.8279380
  93.3213586  52.5440727  83.3996992  92.4845494  52.1162902  83.2180993
  93.2937231  52.7373171  84.3367783 100.1611042  42.4562657  94.1038238
 100.2099197  43.3324780  93.7216008 100.7033556  41.9140050  93.5309881
 110.6465887  53.0003780  93.3839375 109.8561431  52.9827919  92.8443874
 110.4099242  53.5392074  94.1388412 110.7663762  49.8496247  90.6972104
 110.8161767  49.6846254  91.6387626 110.6577686  48.9823506  90.3069984
  99.6500021  52.5284792  77.9864193  99.7988141  53.2120257  77.3330865
 100.4566464  52.5089883  78.5013648 108.0567525  45.8327175  92.0131410
 108.9577387  45.6933640  91.7215408 108.1315499  45.9981630  92.9529588
 102.3910330  43.2094030  90.8584597 101.5213639  43.5027596  90.5867185
 102.6269810  43.7934475  91.5791860 112.2681959  52.2693188  90.9414125
 111.9766767  52.6323169  91.7777586 111.6554090  51.5560197  90.7627457
 113.4677641  49.8346068  83.4616695 114.3024533  50.2735872  83.6254256
 113.6036770  49.3584721  82.6424941 110.5169147  47.3925803  89.4094183
 110.9923269  47.5853449  88.6013035 109.5934713  47.4484989  89.1637567
  97.4052654  48.5549970  78.9925261  97.1598696  47.6512300  79.1905472
  97.5748568  48.5567121  78.0504739 105.0949364  39.4273646  88.3750017
 105.6131308  40.1634673  88.0496506 104.7404497  39.7337640  89.2096776
  96.6748301  44.2878328  76.4911423  95.9817546  44.3622683  75.8351459
  96.4300053  43.5238671  77.0132940 105.3461958  35.8473929  83.8950914
 105.6263712  35.1797118  84.5211340 106.1312565  36.0403025  83.3825577
 103.1495426  55.0232923  75.4575940 102.5769394  55.6423110  75.0046412
 103.7228220  55.5732285  75.9915862 109.2170816  44.2691563  87.6422489
 110.1688239  44.3689661  87.6634713 109.0474267  43.4769832  88.1520573
 107.2385196  41.3547146  87.8281890 106.6435128  41.6352159  87.1328378
 106.9534892  41.8441047  88.5998631 106.3692686  55.3070073  76.5884522
 107.3023359  55.2415635  76.7917398 106.2815899  56.1426340  76.1299055
 108.9980703  54.6235943  73.5488470 108.9194334  54.2895807  74.4424228
 109.8190370  55.1157711  73.5479942 111.6958894  47.4897683  86.7564788
 111.6635214  46.5513683  86.9424472 112.3059518  47.5681719  86.0230613
 103.5342225  46.3593736  72.7991992 104.4801330  46.2299944  72.8680410
 103.1556470  45.6208398  73.2761421 111.8453383  44.2808726  86.8023072
 111.3292431  43.4967183  86.6153000 112.7293331  43.9527443  86.9669591
 109.5064110  38.0249742  82.7618884 109.3088931  37.7164830  83.6462216
 110.1163815  38.7511381  82.8916814 117.5135444  48.5513690  85.8970825
 118.2438832  48.2898978  86.4578529 116.9042389  47.8142411  85.9372893
 115.5950741  46.6921552  86.4945276 114.8683905  46.5577517  85.8861768
 115.1798028  46.9998381  87.3001994 103.4180918  50.4111482  94.2592649
 104.3383927  50.5890081  94.4532696 103.3830501  49.4667527  94.1072349
 101.7185142  44.2843712  72.7346878 100.8116598  43.9876825  72.8109591
 101.9961123  43.9873530  71.8681164  92.6363083  45.6050075  83.1845924
  92.3165867  44.7515384  82.8920298  92.0896511  45.8198654  83.9403891
  96.4142990  48.3212516  86.9015431  96.6329000  49.2529624  86.9203464
  96.8268764  47.9620491  87.6870234 103.3347208  38.8280602  78.8891119
 102.5247936  38.4827687  79.2646365 104.0231625  38.5188146  79.4778731
 105.2637756  37.9058649  80.5115416 105.8168795  38.3254102  81.1705439
 105.5007842  36.9794397  80.5538372 101.2870855  43.8945722  96.2918179
 101.1867582  44.8440079  96.2230271 101.0692397  43.5663961  95.4194250
 100.4883927  41.1430647  72.8758857 101.3503091  41.4685546  73.1354674
 100.6734271  40.3562143  72.3631923  92.5051343  49.2252987  85.1539046
  91.8114814  48.8106940  84.6409000  93.2524334  49.2673523  84.5572465
 108.6416563  40.0159174  80.0194080 108.0615232  40.6743978  79.6372132
 108.3752496  39.1936518  79.6081497 107.0920130  39.4164231  82.2215400
 107.5919908  39.5280766  81.4129719 107.7355738  39.1125284  82.8616209
 101.1502125  47.3242861  95.1083241 100.6669207  48.1243221  95.3147130
 101.2363064  47.3350806  94.1550685  94.4188085  49.1571241  83.0305061
  94.3958773  49.2558928  82.0786944  94.7288722  50.0036392  83.3522227
  97.0775463  51.2147396  87.1451675  98.0318716  51.1831338  87.0781606
  96.8787986  50.7538020  87.9601901  97.6674845  49.7848512  89.7122473
  98.4867734  50.2792590  89.7357310  97.9411653  48.8680480  89.6840040
 107.4241441  42.1759264  79.0750428 106.5367296  42.4608915  78.8570623
 107.8395430  42.0153028  78.2277705 110.7755977  42.2005785  82.7904767
 111.5516367  42.6902238  83.0629384 110.0504112  42.6263839  83.2476637
 113.2128536  42.9133404  83.8478708 113.8073027  42.6729140  83.1372016
 113.2855120  42.1940535  84.4752244  95.4325692  56.7567015  84.1621873
  95.2980160  55.9967416  83.5959871  95.0157754  57.4807915  83.6950662
 106.5684655  51.9403939  73.1698448 107.2720505  52.1453941  73.7856104
 105.8447303  52.5080701  73.4347532 107.3982465  47.6913800  79.2900718
 107.3417666  48.1482351  78.4508351 107.9510807  46.9304485  79.1123561
 111.2087271  43.4803532  80.1150838 110.9524205  43.0800168  80.9459045
 110.5840139  44.1947326  79.9900977 115.5199609  46.2199605  82.6222129
 114.9599167  46.2892794  83.3953691 114.9143112  46.0440590  81.9021625
  98.5894818  57.6536332  84.3740315  98.4727202  58.5981765  84.2719006
  97.7687264  57.3509894  84.7626115 108.4771352  52.3786468  75.2196908
 109.3116956  51.9467666  75.0374383 108.3155695  52.2068482  76.1473803
 108.1317244  48.8818581  76.5853247 108.0766048  48.7162853  75.6441692
 107.5063300  49.5894614  76.7415437  92.9209759  44.1186646  90.4114670
  93.5668623  43.6085600  90.9001895  92.7126910  44.8555327  90.9858095
 105.4463151  51.1867493  95.9106810 106.3154311  51.3608145  95.5493445
 104.9669903  52.0061910  95.7882540 101.4413370  38.3826690  76.1638566
 101.4292040  39.3268530  76.3206837 102.3336792  38.1996836  75.8698027
  99.6149332  58.3064594  87.5896244 100.5176578  58.3388204  87.9062739
  99.3886702  57.3765045  87.6042580 101.3702934  57.0595581  84.2506322
 100.4198565  57.0597442  84.1370695 101.6735420  56.3128315  83.7342357
 105.2565489  34.9769467  80.4184503 104.4897885  34.4227954  80.5641185
 105.6676194  35.0491336  81.2798654  97.2607250  41.2654263  94.5089684
  98.1238712  40.9091068  94.7193008  96.6872661  40.9268158  95.1965088
 117.1055627  62.8956119  85.3152085 117.7434037  62.7762866  84.6115425
 116.9876470  63.8436963  85.3740037 113.9145333  62.8483547  85.2513610
 113.5763845  62.7324612  84.3634144 114.7835102  62.4474712  85.2314616
 109.7732149  64.7019024  81.2410501 109.2097014  64.6108961  80.4726788
 109.6584544  63.8818928  81.7212993 114.3965116  64.0018399  91.2099815
 114.3853757  63.6071197  90.3380319 114.5585756  63.2684472  91.8033587
 107.3196581  66.1970215  84.0794721 108.1117873  65.8561040  83.6641020
 107.5593231  66.3065190  84.9996874 115.3531708  68.3689991  76.5524965
 114.7019688  68.9544072  76.1658979 116.1476071  68.8996186  76.6120003
 109.2787335  65.4579128  76.9512100 110.0518211  64.9108116  76.8124976
 109.6312734  66.3223378  77.1626561 111.1172378  66.7855511  90.1578999
 110.8262244  67.6901142  90.0425665 111.7529362  66.8272038  90.8723069
 112.0428584  64.1632359  86.7480359 112.6392157  63.9388382  86.0337322
 112.1003556  63.4217105  87.3505807 111.6153613  61.6171795  74.5830550
 111.8679134  61.0953316  73.8214013 110.6778172  61.4537940  74.6857233
 116.6596896  60.6207573  82.3905293 117.4459985  60.2026996  82.0395710
 116.9235600  61.5253665  82.5586941 116.8306973  66.0580423  77.0893950
 116.1952806  66.1315050  77.8014854 116.5004379  66.6474022  76.4113029
 122.0605323  60.5582806  83.2938271 122.7930495  59.9882023  83.5276101
 121.3044679  60.1704407  83.7344777 111.3349902  63.5199901  76.7854925
 111.2186160  62.8444804  77.4536009 111.4452162  63.0332274  75.9687078
 113.6781443  62.9810048  80.4901614 113.3139650  62.4540669  81.2014535
 114.5348558  62.5908517  80.3168099 119.5830743  54.2704380  87.7532880
 119.2514068  55.1399791  87.5294095 118.9876357  53.9540664  88.4326910
 113.3186930  58.0099947  75.4862962 113.4861332  58.8780184  75.8533433
 113.1284099  58.1727229  74.5624252 116.0762263  66.4716926  87.1528793
 115.7762986  67.3741965  87.0444600 115.7313322  66.2049109  88.0049946
 109.5274744  62.9230723  83.1865497 108.6025241  62.7906937  83.3943189
 109.7759157  63.7024942  83.6835440 119.4759407  58.9899466  84.8326230
 118.5676284  58.9214875  84.5384991 119.4247002  59.4671411  85.6608056
 113.2976150  60.4657605  76.4709629 113.1775776  60.9114656  77.3095110
 112.6028739  60.8142923  75.9123167 106.8883555  62.5663997  84.0209286
 107.0175936  62.8198476  84.9348698 106.2081007  63.1591705  83.7013941
 111.0583043  73.2361247  80.1199760 110.9807072  74.1869072  80.1988241
 110.4544686  72.8907119  80.7774687 113.5500272  60.4089112  92.7761127
 112.7733606  60.9683032  92.7663992 114.1890835  60.8945895  93.2975997
 121.3421053  57.1915905  86.6104104 120.6995433  57.4848438  85.9643899
 120.8375981  57.0768825  87.4157301 118.9961217  60.9379078  77.2989963
 119.9079073  61.1706465  77.1237661 118.4870864  61.5216122  76.7365042
 111.8046645  63.2174565  92.3379094 112.5461329  63.7559609  92.0613918
 111.0983630  63.8440854  92.4950646 117.2801984  65.3603706  90.9351256
 117.6885340  64.9186116  90.1905888 116.5579246  64.7856333  91.1885449
 113.6333054  60.2976313  88.3084813 114.4794249  60.7215726  88.4519462
 113.5731692  59.6409937  89.0023376 117.6030799  65.9204896  84.6903545
 116.9739661  66.0850611  83.9879613 117.2156461  66.3346506  85.4614509
 121.4820031  66.8559334  82.0447909 120.7971069  67.2358236  81.4944942
 121.5663880  67.4654661  82.7779856 116.7832500  57.9580681  89.9665986
 116.5393431  58.7122742  89.4300262 117.0592430  58.3366029  90.8013234
 118.7370962  64.5019293  88.6443252 118.9487858  65.1451053  87.9677633
 118.6900711  63.6681610  88.1765182 116.3397191  57.1137114  85.5479824
 115.4781670  57.4118368  85.8396562 116.3659626  57.3307513  84.6160857
 113.1558761  65.6579305  81.9553630 113.6197106  65.9367008  81.1658252
 112.8915559  64.7562749  81.7726721 110.0482842  65.2050786  84.8933393
 110.6184199  65.6338054  84.2550878 110.6390954  64.9233371  85.5917579
 112.0927647  61.7802457  78.7643195 112.7951690  62.2323501  79.2317121
 111.7608275  61.1386276  79.3923088 110.5408008  60.3714214  93.1394404
 109.9106669  61.0530494  93.3729801 110.4344096  60.2597295  92.1947543
 105.8352981  60.0386010  84.0660329 105.0452035  60.2943538  83.5900439
 106.3264228  60.8534347  84.1712369 119.8516790  67.3791249  86.8165609
 120.6734234  66.9771436  86.5348291 119.8479193  67.2759483  87.7681725
 107.7867726  60.4030589  81.0243805 106.9898889  60.5149283  81.5427301
 107.5593318  60.7417241  80.1584696 113.6173394  66.9275292  88.9726320
 113.6817826  67.3895699  89.8084492 112.9084318  66.2972657  89.1008630
 104.1190684  60.2916500  86.4975319 104.3698722  61.1763510  86.7632895
 104.6550232  60.1121102  85.7250411 127.9422783  63.7229997  83.1650581
 127.1886492  63.1537395  83.0094585 128.0770325  63.6892662  84.1121216
 113.3321411  68.5943400  78.8405300 113.1967086  69.4394935  79.2690148
 113.8731224  68.7962677  78.0771234 109.8188751  54.6734979  95.5019655
 109.4255697  54.1201178  96.1767300 110.6354891  54.9845558  95.8926173
 106.7850809  66.1118838  79.4133225 107.2975329  66.9062088  79.5638790
 107.4373522  65.4145128  79.3466827 108.5945694  69.2284594  81.4955978
 108.7712322  70.1502559  81.3076962 109.3902527  68.9143013  81.9250358
 112.7356712  56.0892859  93.0939912 113.4766425  56.6900012  93.0144374
 112.9674635  55.3470496  92.5357955 107.8798050  61.2749226  91.3718142
 107.7651565  60.3734483  91.6725241 107.0242568  61.5212923  91.0202958
 114.9589888  69.2166966  92.9705642 114.5153742  68.4303345  92.6526547
 115.6207101  69.4046117  92.3049533 109.7177009  70.7462768  87.4966321
 110.2684434  70.6179831  86.7243315 108.8788485  71.0457657  87.1461214
 117.0571126  69.4969766  90.9987044 117.0389601  70.3178647  90.5067313
 117.9791046  69.3723841  91.2237185 113.5144180  67.0113895  91.8410552
 114.0472517  66.2502184  91.6109860 112.9858261  66.7187547  92.5834706
 116.6813875  52.1173961  87.3704194 116.3378144  53.0075603  87.2943304
 117.0492838  51.9275619  86.5073779 104.7499726  64.4407492  80.1892796
 105.5874948  64.8504500  79.9726504 104.9277993  63.5006934  80.1592990
 116.6464158  62.1082573  75.8776629 116.1310781  62.8787177  76.1165016
 116.3741466  61.4347709  76.5009690 114.2311269  56.9532273  80.9361867
 113.3752865  56.5639124  80.7567506 114.6438221  57.0324234  80.0761653
 115.7610415  54.4878617  85.3353427 115.2575211  54.4508752  84.5221232
 116.0541022  55.3971359  85.3950084 112.0053301  54.5717346  84.3419609
 112.8706298  54.3760155  83.9825498 112.0730810  54.3427698  85.2688965
 121.6198432  64.8614927  77.8129802 120.8427875  64.5226087  77.3684964
 122.2989913  64.8667550  77.1384767 116.4350461  59.9809665  77.7036410
 116.1300596  60.2955814  78.5546553 117.3880903  60.0591085  77.7463743
 114.8796893  66.1399888  79.3529364 114.3518254  65.4052648  79.0402601
 114.3784395  66.9174564  79.1069332 119.8589739  64.3348908  84.4696410
 119.2013413  65.0248170  84.5576539 120.6630138  64.7245340  84.8130397
 109.6115620  56.8019554  81.7135975 110.1859372  56.5794736  80.9809168
 110.1986603  56.8708249  82.4664577 118.6695198  62.6893281  82.5200352
 119.1827079  63.3223273  83.0222062 119.3196421  62.0894477  82.1543712
 109.9385207  58.8324015  75.7331861 109.1022520  59.1698702  76.0541135
 109.7989977  58.6972995  74.7958998 111.9138288  53.6760803  80.4411045
 111.2602700  53.3609820  79.8167660 111.8718762  53.0536544  81.1670868
 113.0249493  63.9580098  72.3564337 112.1176555  63.7269352  72.5555486
 113.5220525  63.1617717  72.5438319 115.9317572  72.6677605  75.2761023
 115.2579271  72.9709302  75.8845981 116.3183394  73.4706686  74.9266480
 115.1476028  60.1642737  84.7658693 114.2298590  60.3857684  84.6080381
 115.5636172  60.2389047  83.9070400 115.9311076  61.5634152  79.8961373
 116.6782895  62.0755550  79.5868495 116.2002666  61.2418205  80.7565766
 114.2037726  64.0592693  76.8788327 113.2948946  63.7751726  76.9760797
 114.2332810  64.4791772  76.0191634 119.4356994  67.6699283  80.6479495
 118.9819321  66.8290192  80.7044685 118.8050960  68.3060681  80.9854275
 118.3789913  58.5991269  81.8780162 117.6412670  58.0868655  82.2090405
 118.6316687  58.1591650  81.0663439 117.8789933  69.5075779  81.5829313
 118.1712907  70.0680836  80.8641678 118.3888554  69.8004340  82.3382472
 118.4801541  51.3767521  82.4721931 118.7860417  50.5164884  82.1847846
 119.2054145  51.9685141  82.2720925 104.7725897  61.7798207  80.8603529
 104.5750297  61.1867568  80.1354596 104.2172561  61.4750417  81.5779468
 112.7522620  61.6721314  82.9798122 112.8071230  60.7195150  82.9040599
 111.9413822  61.8280753  83.4639421 113.9013814  65.6001437  74.2176406
 113.4633244  64.8837296  73.7582043 114.6424255  65.8277552  73.6561497
 110.6914980  60.2898373  80.7388501 109.8782846  60.5892544  81.1453693
 111.1873974  59.8954062  81.4562984 112.8423558  70.2856130  82.6722766
 112.7999737  70.5116977  81.7431298 113.7586257  70.0519505  82.8208567
 116.2889192  60.7540198  89.5703395 116.6438580  60.9811671  90.4297861
 116.9361323  61.0858575  88.9480650 122.0186929  63.8758634  80.2752724
 121.8804828  64.0660230  79.3473913 121.6623148  64.6378017  80.7320775
 110.1829055  57.8616729  86.3549736 110.8228434  57.7205488  85.6572700
 109.3506586  57.5751242  85.9788338 122.0456309  65.9435161  85.2863996
 122.4792815  65.8510450  86.1347050 122.7587889  65.9192661  84.6484012
 110.9589359  67.1619159  82.4684729 111.7529957  66.6669480  82.2667304
 110.2481051  66.6337023  82.1052434 115.7784203  69.5437255  86.8197096
 115.8321226  70.1128191  87.5874812 114.9098985  69.7139140  86.4551133
 107.2672122  61.3062241  78.5444481 106.3369711  61.2446697  78.7614444
 107.3629594  60.7838194  77.7481123 107.1857671  57.8317054  81.1322723
 107.4464489  58.7462387  81.0231884 108.0074844  57.3641497  81.2819336
 108.6582597  59.2454811  88.3021548 109.3305650  59.0372173  87.6534196
 107.8312383  59.0476897  87.8626780 122.9071858  65.9858861  87.8196881
 123.1007748  66.8904672  88.0656156 122.8072476  65.5266281  88.6535466
 114.5608169  55.8716752  90.3187208 113.9136084  56.5706702  90.2251685
 115.3309184  56.3052896  90.6863457 117.9686967  66.1365604  93.3937762
 117.8172473  65.9076156  92.4767845 117.9591646  67.0936206  93.4069107
 114.7372303  63.7097517  88.3784028 115.6664363  63.8608677  88.2052995
 114.3163333  63.7981538  87.5232675 113.5360635  67.7348181  86.1482566
 113.3971721  67.3666966  87.0208504 112.7475231  68.2495821  85.9766524
 114.1308787  72.8357278  77.4908102 114.3060543  72.3645321  78.3053725
 113.4441575  73.4623044  77.7189363 115.0865850  67.1129784  83.5371404
 114.7515683  67.0730554  84.4329053 114.5869796  66.4474500  83.0641814
 109.0610094  62.5197414  89.0623985 108.9229892  61.7877653  89.6635524
 109.9715018  62.4306314  88.7808172 118.0225042  64.4585818  73.8108463
 117.4054212  63.7332647  73.7141516 117.5541530  65.2195179  73.4675537
 111.6892395  62.2317373  88.5507664 112.3992013  61.5910566  88.5094283
 111.6461703  62.4830268  89.4733845 119.6779173  69.1684727  91.4714244
 119.6191720  68.4843947  90.8044827 120.0798692  69.9103717  91.0194870
 110.4021329  59.2182591  90.3703304 109.8658686  58.7673330  91.0224900
 109.8138037  59.3528500  89.6273768 108.6969872  75.9846641  84.2647962
 108.9366470  76.6165165  84.9426981 107.8539069  75.6334681  84.5513322
 109.8123588  58.6771243  72.9329767 108.9353054  58.5560043  72.5692014
 110.2881341  57.8857321  72.6808656 119.6796581  67.1324311  89.7028223
 118.7923359  66.7950232  89.8254622 120.2495132  66.4007342  89.9396989
 101.3325728  63.4648402  83.0271275 102.0196768  63.1510132  82.4392290
 101.1773856  64.3689767  82.7538526 106.1360450  58.3538599  87.4556298
 106.0518639  57.7464269  86.7206708 105.3143156  58.8447617  87.4565795
 113.2097734  71.7925763  86.6689466 113.1367906  72.5980735  87.1808771
 112.7675127  71.9917729  85.8437488 112.9987514  71.0297533  80.1792288
 112.2155036  71.5719213  80.2730513 113.6980259  71.5471513  80.5786529
 116.3084164  56.8392163  82.8226493 116.8052863  56.0862125  82.5027564
 115.5371145  56.8756479  82.2569703 124.1613921  62.5432528  84.4644785
 124.1503797  63.4257243  84.0938718 123.2931301  62.1904079  84.2699322
 115.6696418  71.6912597  88.8247625 116.3824390  72.3260062  88.7523527
 115.1786446  71.7876463  88.0087627 117.3913945  65.5963850  80.3964917
 116.4570223  65.7165312  80.2269621 117.5690613  64.6936317  80.1324927
 112.8919133  58.9809546  82.5498178 112.5216920  58.4280586  83.2379084
 113.3878225  58.3767679  81.9973178 120.7786496  61.4381169  80.9314951
 121.2446948  62.2709161  80.8575254 121.2293996  60.9726151  81.6360209
 110.7208331  69.4407041  89.6453196 111.4217791  70.0743524  89.7982590
 110.2503446  69.7821772  88.8848835 118.8462727  67.7824990  77.9301103
 119.1222571  67.6681585  78.8394977 117.9767226  67.3842475  77.8913276
 118.7503159  53.8061756  84.9705852 117.8366238  54.0365983  85.1388059
 119.1796260  53.8900200  85.8219885 118.5209617  61.9951648  87.4705746
 117.8681067  62.2427555  86.8158199 118.8989997  61.1815786  87.1368224
 115.4816791  72.0311341  81.5733917 115.6639186  71.2132997  82.0361669
 116.3049777  72.2479033  81.1358807 115.8158956  70.9579526  78.8348965
 116.3446723  70.4471981  78.2219127 116.0787176  70.6422057  79.6994498
 114.5697190  62.7371459  93.9571783 113.8937827  62.6365588  94.6274159
 115.3924824  62.5810673  94.4207781 106.3176049  68.9743396  86.5784299
 106.9029486  68.2287083  86.7112203 106.1200888  69.2847352  87.4620963
 109.1714704  72.0094643  81.5946741 108.5025080  72.4940771  81.1110781
 109.0327574  72.2563863  82.5090120 113.3119973  74.0438387  88.1929399
 113.8638281  74.2070008  88.9578485 113.6526166  74.6342824  87.5209424
 108.2884466  56.3913536  88.7951284 108.3525793  57.2528367  88.3828682
 108.2251586  55.7787538  88.0623643 107.7636739  58.4636669  92.4424318
 108.3908778  58.0813746  93.0561843 106.9064658  58.2450871  92.8080011
 118.1630847  68.8699644  94.0478054 118.7070751  69.4829602  93.5533009
 117.5817692  69.4279222  94.5645067 104.5402282  60.2713098  78.3742673
 104.8355723  59.3623776  78.3209727 103.6390317  60.2500837  78.0523676
 116.4488360  71.9920362  85.1793082 116.3239500  71.1910102  84.6704027
 117.1067451  72.4866555  84.6907052 108.0696529  58.3469095  84.3570222
 107.3483114  58.9605062  84.2177695 108.8589784  58.8826859  84.2786868
 118.5123269  69.7929382  86.8072632 117.5653604  69.6734733  86.7350958
 118.8606042  68.9051880  86.8898893 110.8722842  55.6823521  90.6310874
 111.3957244  55.9285818  91.3937183 110.6535175  56.5143556  90.2114011
 106.2690123  57.9527196  78.4981998 105.9402829  57.0724575  78.3157104
 106.6229494  57.8974864  79.3858388 115.5169702  69.5882098  83.0076984
 115.3694664  68.6598806  83.1884554 116.3423195  69.6102189  82.5234059
 109.3831946  58.2400165  78.8657476 109.7228019  58.7686087  78.1436084
 109.8304067  58.5780572  79.6416043 119.1203824  70.4110657  84.0941857
 120.0450371  70.2053518  83.9566308 118.9519127  70.1627058  85.0031198
 112.0775387  56.6237216  88.3160544 111.7372207  55.8245029  88.7181224
 111.3714393  56.9238927  87.7437377 112.7291859  53.7086529  86.7687867
 113.5517928  53.2347007  86.6466757 112.9729922  54.4877012  87.2686553
 111.3700093  56.7374787  77.0650769 112.0908456  57.1156040  76.5614486
 110.7465398  57.4563664  77.1685747 115.5131216  57.4419936  78.0009101
 115.7294831  58.3244574  77.6997929 115.0325283  57.0506149  77.2714743
 110.2530438  60.4005649  84.5779846 110.1075018  60.7145952  85.4704127
 109.7755641  61.0190550  84.0250744 112.1126821  57.3908197  84.6260735
 112.0988389  56.4949290  84.2893033 112.8299249  57.3978861  85.2599021
 113.9652951  57.8245537  86.6713863 113.7070729  58.7462608  86.6698193
 113.4337992  57.4275972  87.3614327 118.9099140  70.9296325  79.4503948
 119.0836018  70.3642747  78.6977801 119.4028031  71.7297219  79.2683438
 104.7276100  62.9410994  87.5167507 104.1829568  63.7170802  87.6487781
 105.6055450  63.2881798  87.3586628 111.5163716  56.2722577  79.8948305
 111.6379628  55.3439224  80.0939193 111.2265759  56.2861263  78.9826621
 114.3854907  53.9577488  83.0315025 114.4076604  54.0216821  82.0767005
 114.8022966  53.1181997  83.2255531 124.7638531  63.6932747  81.0694248
 125.2069677  62.9440073  80.6713371 123.8865041  63.6842884  80.6867980
 119.8974313  70.2463089  76.5500846 120.5925217  70.8669782  76.7688161
 120.2397463  69.3958440  76.8253224 105.5142122  62.0680890  90.4097664
 104.7723858  62.2163525  90.9962294 105.1934866  62.3289155  89.5464413
 121.7965736  67.6962794  78.0788177 122.3217060  68.0350067  77.3537497
 121.7088088  66.7609810  77.8951312 113.4585784  71.6096868  90.2078054
 113.7672911  71.3646015  91.0800753 114.2561266  71.8143507  89.7196924
 113.4806396  73.7634778  82.4383430 113.0411387  73.2711156  83.1316287
 114.2314513  73.2207745  82.1975506 105.9598735  69.9546319  82.4408058
 106.7856755  69.6550090  82.0606702 105.6092787  69.1853941  82.8897847
 110.9280269  69.3072787  84.5105732 110.3060278  68.6443492  84.2107960
 111.5985135  69.3333919  83.8279380 104.1607340  67.8732645  83.3996992
 103.3239249  67.4454819  83.2180993 104.1330986  68.0665088  84.3367783
 111.0004796  57.7854575  94.1038238 111.0492951  58.6616698  93.7216008
 111.5427310  57.2431968  93.5309881 121.4859642  68.3295698  93.3839375
 120.6955185  68.3119837  92.8443874 121.2492996  68.8683992  94.1388412
 121.6057517  65.1788164  90.6972104 121.6555522  65.0138172  91.6387626
 121.4971440  64.3115423  90.3069984 110.4893775  67.8576710  77.9864193
 110.6381896  68.5412175  77.3330865 111.2960219  67.8381800  78.5013648
 118.8961279  61.1619092  92.0131410 119.7971142  61.0225557  91.7215408
 118.9709254  61.3273547  92.9529588 113.2304084  58.5385947  90.8584597
 112.3607394  58.8319513  90.5867185 113.4663565  59.1226392  91.5791860
 123.1075714  67.5985106  90.9414125 122.8160522  67.9615087  91.7777586
 122.4947845  66.8852114  90.7627457 124.3071396  65.1637986  83.4616695
 125.1418287  65.6027790  83.6254256 124.4430525  64.6876639  82.6424941
 121.3562902  62.7217721  89.4094183 121.8317023  62.9145367  88.6013035
 120.4328467  62.7776906  89.1637567 108.2446408  63.8841888  78.9925261
 107.9992450  62.9804218  79.1905472 108.4142323  63.8859038  78.0504739
 115.9343118  54.7565564  88.3750017 116.4525062  55.4926591  88.0496506
 115.5798251  55.0629557  89.2096776 107.5142056  59.6170245  76.4911423
 106.8211301  59.6914600  75.8351459 107.2693808  58.8530589  77.0132940
 116.1855712  51.1765847  83.8950914 116.4657466  50.5089036  84.5211340
 116.9706319  51.3694942  83.3825577 113.9889181  70.3524841  75.4575940
 113.4163148  70.9715028  75.0046412 114.5621975  70.9024202  75.9915862
 120.0564571  59.5983481  87.6422489 121.0081994  59.6981578  87.6634713
 119.8868021  58.8061749  88.1520573 118.0778950  56.6839064  87.8281890
 117.4828882  56.9644077  87.1328378 117.7928647  57.1732965  88.5998631
 117.2086441  70.6361991  76.5884522 118.1417114  70.5707552  76.7917398
 117.1209654  71.4718258  76.1299055 119.8374457  69.9527861  73.5488470
 119.7588089  69.6187725  74.4424228 120.6584124  70.4449629  73.5479942
 122.5352649  62.8189600  86.7564788 122.5028969  61.8805601  86.9424472
 123.1453272  62.8973637  86.0230613 114.3735979  61.6885653  72.7991992
 115.3195084  61.5591861  72.8680410 113.9950224  60.9500315  73.2761421
 122.6847137  59.6100644  86.8023072 122.1686186  58.8259100  86.6153000
 123.5687086  59.2819360  86.9669591 120.3457864  53.3541659  82.7618884
 120.1482685  53.0456748  83.6462216 120.9557570  54.0803298  82.8916814
 128.3529198  63.8805607  85.8970825 129.0832587  63.6190895  86.4578529
 127.7436144  63.1434329  85.9372893 126.4344496  62.0213470  86.4945276
 125.7077659  61.8869435  85.8861768 126.0191782  62.3290298  87.3001994
 114.2574672  65.7403399  94.2592649 115.1777681  65.9181998  94.4532696
 114.2224255  64.7959445  94.1072349 112.5578897  59.6135630  72.7346878
 111.6510352  59.3168742  72.8109591 112.8354878  59.3165448  71.8681164
 103.4756837  60.9341993  83.1845924 103.1559621  60.0807301  82.8920298
 102.9290265  61.1490571  83.9403891 107.2536745  63.6504434  86.9015431
 107.4722754  64.5821542  86.9203464 107.6662518  63.2912409  87.6870234
 114.1740962  54.1572519  78.8891119 113.3641691  53.8119604  79.2646365
 114.8625379  53.8480063  79.4778731 116.1031511  53.2350566  80.5115416
 116.6562549  53.6546020  81.1705439 116.3401597  52.3086314  80.5538372
 112.1264610  59.2237640  96.2918179 112.0261337  60.1731997  96.2230271
 111.9086152  58.8955879  95.4194250 111.3277681  56.4722565  72.8758857
 112.1896845  56.7977463  73.1354674 111.5128025  55.6854061  72.3631923
 103.3445097  64.5544905  85.1539046 102.6508568  64.1398857  84.6409000
 104.0918088  64.5965441  84.5572465 119.4810318  55.3451091  80.0194080
 118.9008987  56.0035895  79.6372132 119.2146250  54.5228436  79.6081497
 117.9313884  54.7456149  82.2215400 118.4313662  54.8572684  81.4129719
 118.5749492  54.4417202  82.8616209 111.9895880  62.6534779  95.1083241
 111.5062962  63.4535139  95.3147130 112.0756819  62.6642724  94.1550685
 105.2581840  64.4863158  83.0305061 105.2352528  64.5850846  82.0786944
 105.5682476  65.3328309  83.3522227 107.9169217  66.5439313  87.1451675
 108.8712471  66.5123256  87.0781606 107.7181741  66.0829937  87.9601901
 108.5068600  65.1140429  89.7122473 109.3261489  65.6084508  89.7357310
 108.7805407  64.1972398  89.6840040 118.2635196  57.5051182  79.0750428
 117.3761051  57.7900832  78.8570623 118.6789185  57.3444945  78.2277705
 121.6149732  57.5297703  82.7904767 122.3910122  58.0194155  83.0629384
 120.8897866  57.9555757  83.2476637 124.0522290  58.2425322  83.8478708
 124.6466781  58.0021058  83.1372016 124.1248874  57.5232453  84.4752244
 106.2719446  72.0858933  84.1621873 106.1373914  71.3259334  83.5959871
 105.8551508  72.8099833  83.6950662 117.4078409  67.2695856  73.1698448
 118.1114259  67.4745859  73.7856104 116.6841058  67.8372618  73.4347532
 118.2376219  63.0205718  79.2900718 118.1811421  63.4774269  78.4508351
 118.7904562  62.2596402  79.1123561 122.0481025  58.8095450  80.1150838
 121.7917960  58.4092085  80.9459045 121.4233893  59.5239244  79.9900977
 126.3593363  61.5491523  82.6222129 125.7992921  61.6184712  83.3953691
 125.7536867  61.3732507  81.9021625 109.4288572  72.9828250  84.3740315
 109.3120956  73.9273682  84.2719006 108.6081018  72.6801812  84.7626115
 119.3165107  67.7078386  75.2196908 120.1510711  67.2759584  75.0374383
 119.1549450  67.5360399  76.1473803 118.9710999  64.2110499  76.5853247
 118.9159803  64.0454770  75.6441692 118.3457054  64.9186532  76.7415437
 103.7603514  59.4478563  90.4114670 104.4062377  58.9377517  90.9001895
 103.5520665  60.1847245  90.9858095 116.2856906  66.5159411  95.9106810
 117.1548066  66.6900063  95.5493445 115.8063657  67.3353828  95.7882540
 112.2807124  53.7118608  76.1638566 112.2685794  54.6560448  76.3206837
 113.1730546  53.5288753  75.8698027 110.4543086  73.6356512  87.5896244
 111.3570333  73.6680122  87.9062739 110.2280456  72.7056963  87.6042580
 112.2096688  72.3887498  84.2506322 111.2592319  72.3889360  84.1370695
 112.5129174  71.6420233  83.7342357 116.0959244  50.3061385  80.4184503
 115.3291640  49.7519871  80.5641185 116.5069949  50.3783253  81.2798654
 108.1001005  56.5946180  94.5089684 108.9632466  56.2382985  94.7193008
 107.5266415  56.2560075  95.1965088 127.9449382  78.2248037  85.3152085
 128.5827792  78.1054784  84.6115425 127.8270225  79.1728881  85.3740037
 124.7539088  78.1775465  85.2513610 124.4157600  78.0616530  84.3634144
 125.6228856  77.7766630  85.2314616 120.6125904  80.0310941  81.2410501
 120.0490769  79.9400878  80.4726788 120.4978299  79.2110846  81.7212993
 125.2358871  79.3310317  91.2099815 125.2247512  78.9363115  90.3380319
 125.3979510  78.5976389  91.8033587 118.1590336  81.5262133  84.0794721
 118.9511628  81.1852958  83.6641020 118.3986986  81.6357108  84.9996874
 126.1925462  83.6981909  76.5524965 125.5413442  84.2835989  76.1658979
 126.9869825  84.2288104  76.6120003 120.1181090  80.7871046  76.9512100
 120.8911966  80.2400033  76.8124976 120.4706488  81.6515295  77.1626561
 121.9566132  82.1147428  90.1578999 121.6655998  83.0193059  90.0425665
 122.5923116  82.1563956  90.8723069 122.8822339  79.4924277  86.7480359
 123.4785911  79.2680299  86.0337322 122.9397310  78.7509022  87.3505807
 122.4547367  76.9463712  74.5830550 122.7072888  76.4245234  73.8214013
 121.5171926  76.7829858  74.6857233 127.4990650  75.9499491  82.3905293
 128.2853739  75.5318914  82.0395710 127.7629355  76.8545583  82.5586941
 127.6700728  81.3872341  77.0893950 127.0346561  81.4606967  77.8014854
 127.3398134  81.9765940  76.4113029 132.8999077  75.8874724  83.2938271
 133.6324249  75.3173941  83.5276101 132.1438433  75.4996324  83.7344777
 122.1743656  78.8491818  76.7854925 122.0579914  78.1736722  77.4536009
 122.2845916  78.3624192  75.9687078 124.5175197  78.3101965  80.4901614
 124.1533404  77.7832586  81.2014535 125.3742313  77.9200434  80.3168099
 130.4224498  69.5996298  87.7532880 130.0907822  70.4691709  87.5294095
 129.8270111  69.2832582  88.4326910 124.1580684  73.3391865  75.4862962
 124.3255086  74.2072101  75.8533433 123.9677853  73.5019147  74.5624252
 126.9156017  81.8008844  87.1528793 126.6156740  82.7033883  87.0444600
 126.5707077  81.5341027  88.0049946 120.3668499  78.2522641  83.1865497
 119.4418995  78.1198855  83.3943189 120.6152912  79.0316860  83.6835440
 130.3153161  74.3191384  84.8326230 129.4070038  74.2506793  84.5384991
 130.2640757  74.7963329  85.6608056 124.1369905  75.7949523  76.4709629
 124.0169530  76.2406573  77.3095110 123.4422493  76.1434840  75.9123167
 117.7277310  77.8955914  84.0209286 117.8569691  78.1490393  84.9348698
 117.0474761  78.4883622  83.7013941 121.8976797  88.5653164  80.1199760
 121.8200827  89.5160989  80.1988241 121.2938441  88.2199037  80.7774687
 124.3894027  75.7381030  92.7761127 123.6127361  76.2974950  92.7663992
 125.0284590  76.2237813  93.2975997 132.1814807  72.5207823  86.6104104
 131.5389188  72.8140356  85.9643899 131.6769736  72.4060743  87.4157301
 129.8354971  76.2670996  77.2989963 130.7472827  76.4998382  77.1237661
 129.3264618  76.8508040  76.7365042 122.6440399  78.5466483  92.3379094
 123.3855083  79.0851527  92.0613918 121.9377385  79.1732772  92.4950646
 128.1195739  80.6895624  90.9351256 128.5279095  80.2478034  90.1905888
 127.3973000  80.1148251  91.1885449 124.4726809  75.6268230  88.3084813
 125.3188004  76.0507644  88.4519462 124.4125446  74.9701855  89.0023376
 128.4424553  81.2496814  84.6903545 127.8133416  81.4142528  83.9879613
 128.0550215  81.6638424  85.4614509 132.3213785  82.1851252  82.0447909
 131.6364823  82.5650153  81.4944942 132.4057635  82.7946579  82.7779856
 127.6226254  73.2872599  89.9665986 127.3787186  74.0414659  89.4300262
 127.8986185  73.6657946  90.8013234 129.5764717  79.8311211  88.6443252
 129.7881612  80.4742971  87.9677633 129.5294465  78.9973528  88.1765182
 127.1790946  72.4429032  85.5479824 126.3175425  72.7410285  85.8396562
 127.2053380  72.6599431  84.6160857 123.9952515  80.9871222  81.9553630
 124.4590861  81.2658925  81.1658252 123.7309313  80.0854667  81.7726721
 120.8876596  80.5342704  84.8933393 121.4577953  80.9629972  84.2550878
 121.4784708  80.2525288  85.5917579 122.9321401  77.1094375  78.7643195
 123.6345445  77.5615418  79.2317121 122.6002030  76.4678193  79.3923088
 121.3801763  75.7006131  93.1394404 120.7500423  76.3822412  93.3729801
 121.2737851  75.5889213  92.1947543 116.6746735  75.3677927  84.0660329
 115.8845789  75.6235456  83.5900439 117.1657983  76.1826265  84.1712369
 130.6910545  82.7083166  86.8165609 131.5127989  82.3063354  86.5348291
 130.6872948  82.6051401  87.7681725 118.6261481  75.7322507  81.0243805
 117.8292644  75.8441201  81.5427301 118.3987073  76.0709159  80.1584696
 124.4567148  82.2567210  88.9726320 124.5211581  82.7187617  89.8084492
 123.7478072  81.6264575  89.1008630 114.9584438  75.6208418  86.4975319
 115.2092477  76.5055428  86.7632895 115.4943987  75.4413019  85.7250411
 138.7816538  79.0521915  83.1650581 138.0280246  78.4829313  83.0094585
 138.9164079  79.0184579  84.1121216 124.1715166  83.9235317  78.8405300
 124.0360841  84.7686853  79.2690148 124.7124978  84.1254595  78.0771234
 120.6582506  70.0026897  95.5019655 120.2649451  69.4493096  96.1767300
 121.4748646  70.3137476  95.8926173 117.6244563  81.4410755  79.4133225
 118.1369084  82.2354006  79.5638790 118.2767276  80.7437046  79.3466827
 119.4339448  84.5576512  81.4955978 119.6106076  85.4794476  81.3076962
 120.2296282  84.2434931  81.9250358 123.5750467  71.4184776  93.0939912
 124.3160180  72.0191929  93.0144374 123.8068389  70.6762414  92.5357955
 118.7191805  76.6041143  91.3718142 118.6045320  75.7026401  91.6725241
 117.8636322  76.8504840  91.0202958 125.7983642  84.5458884  92.9705642
 125.3547496  83.7595262  92.6526547 126.4600856  84.7338034  92.3049533
 120.5570763  86.0754685  87.4966321 121.1078189  85.9471749  86.7243315
 119.7182239  86.3749574  87.1461214 127.8964880  84.8261684  90.9987044
 127.8783356  85.6470565  90.5067313 128.8184800  84.7015759  91.2237185
 124.3537935  82.3405813  91.8410552 124.8866271  81.5794101  91.6109860
 123.8252016  82.0479465  92.5834706 127.5207629  67.4465879  87.3704194
 127.1771899  68.3367521  87.2943304 127.8886592  67.2567537  86.5073779
 115.5893480  79.7699410  80.1892796 116.4268702  80.1796418  79.9726504
 115.7671748  78.8298852  80.1592990 127.4857912  77.4374490  75.8776629
 126.9704536  78.2079095  76.1165016 127.2135221  76.7639626  76.5009690
 125.0705023  72.2824191  80.9361867 124.2146620  71.8931041  80.7567506
 125.4831975  72.3616152  80.0761653 126.6004170  69.8170534  85.3353427
 126.0968965  69.7800669  84.5221232 126.8934777  70.7263277  85.3950084
 122.8447056  69.9009264  84.3419609 123.7100053  69.7052073  83.9825498
 122.9124565  69.6719616  85.2688965 132.4592186  80.1906845  77.8129802
 131.6821629  79.8518004  77.3684964 133.1383667  80.1959468  77.1384767
 127.2744215  75.3101582  77.7036410 126.9694351  75.6247732  78.5546553
 128.2274657  75.3883002  77.7463743 125.7190647  81.4691806  79.3529364
 125.1912009  80.7344565  79.0402601 125.2178150  82.2466482  79.1069332
 130.6983493  79.6640826  84.4696410 130.0407168  80.3540088  84.5576539
 131.5023892  80.0537258  84.8130397 120.4509375  72.1311472  81.7135975
 121.0253127  71.9086653  80.9809168 121.0380357  72.2000166  82.4664577
 129.5088952  78.0185199  82.5200352 130.0220834  78.6515191  83.0222062
 130.1590176  77.4186394  82.1543712 120.7778962  74.1615933  75.7331861
 119.9416274  74.4990619  76.0541135 120.6383732  74.0264913  74.7958998
 122.7532043  69.0052721  80.4411045 122.0996455  68.6901738  79.8167660
 122.7112517  68.3828461  81.1670868 123.8643247  79.2872016  72.3564337
 122.9570309  79.0561269  72.5555486 124.3614279  78.4909635  72.5438319
 126.7711326  87.9969523  75.2761023 126.0973025  88.3001220  75.8845981
 127.1577148  88.7998603  74.9266480 125.9869783  75.4934654  84.7658693
 125.0692344  75.7149601  84.6080381 126.4029927  75.5680965  83.9070400
 126.7704831  76.8926070  79.8961373 127.5176650  77.4047467  79.5868495
 127.0396420  76.5710123  80.7565766 125.0431481  79.3884611  76.8788327
 124.1342700  79.1043644  76.9760797 125.0726565  79.8083689  76.0191634
 130.2750748  82.9991200  80.6479495 129.8213075  82.1582110  80.7044685
 129.6444715  83.6352599  80.9854275 129.2183668  73.9283186  81.8780162
 128.4806425  73.4160573  82.2090405 129.4710441  73.4883568  81.0663439
 128.7183687  84.8367697  81.5829313 129.0106662  85.3972754  80.8641678
 129.2282308  85.1296258  82.3382472 129.3195295  66.7059438  82.4721931
 129.6254172  65.8456802  82.1847846 130.0447900  67.2977059  82.2720925
 115.6119651  77.1090125  80.8603529 115.4144051  76.5159486  80.1354596
 115.0566315  76.8042335  81.5779468 123.5916375  77.0013231  82.9798122
 123.6464985  76.0487068  82.9040599 122.7807577  77.1572670  83.4639421
 124.7407569  80.9293354  74.2176406 124.3026999  80.2129213  73.7582043
 125.4818010  81.1569469  73.6561497 121.5308735  75.6190291  80.7388501
 120.7176600  75.9184462  81.1453693 122.0267729  75.2245980  81.4562984
 123.6817313  85.6148048  82.6722766 123.6393491  85.8408894  81.7431298
 124.5980012  85.3811423  82.8208567 127.1282946  76.0832116  89.5703395
 127.4832334  76.3103589  90.4297861 127.7755078  76.4150492  88.9480650
 132.8580683  79.2050551  80.2752724 132.7198582  79.3952147  79.3473913
 132.5016902  79.9669934  80.7320775 121.0222810  73.1908647  86.3549736
 121.6622189  73.0497406  85.6572700 120.1900340  72.9043160  85.9788338
 132.8850063  81.2727078  85.2863996 133.3186570  81.1802368  86.1347050
 133.5981644  81.2484579  84.6484012 121.7983113  82.4911077  82.4684729
 122.5923712  81.9961397  82.2667304 121.0874806  81.9628940  82.1052434
 126.6177958  84.8729173  86.8197096 126.6714980  85.4420109  87.5874812
 125.7492739  85.0431058  86.4551133 118.1065877  76.6354159  78.5444481
 117.1763465  76.5738614  78.7614444 118.2023349  76.1130112  77.7481123
 118.0251426  73.1608972  81.1322723 118.2858243  74.0754305  81.0231884
 118.8468598  72.6933414  81.2819336 119.4976351  74.5746729  88.3021548
 120.1699405  74.3664091  87.6534196 118.6706138  74.3768815  87.8626780
 133.7465613  81.3150779  87.8196881 133.9401503  82.2196590  88.0656156
 133.6466231  80.8558198  88.6535466 125.4001923  71.2008670  90.3187208
 124.7529838  71.8998619  90.2251685 126.1702939  71.6344814  90.6863457
 128.8080721  81.4657522  93.3937762 128.6566228  81.2368074  92.4767845
 128.7985401  82.4228123  93.4069107 125.5766058  79.0389435  88.3784028
 126.5058118  79.1900594  88.2052995 125.1557088  79.1273455  87.5232675
 124.3754389  83.0640099  86.1482566 124.2365475  82.6958883  87.0208504
 123.5868986  83.5787738  85.9766524 124.9702541  88.1649196  77.4908102
 125.1454297  87.6937239  78.3053725 124.2835329  88.7914962  77.7189363
 125.9259605  82.4421702  83.5371404 125.5909437  82.4022472  84.4329053
 125.4263550  81.7766418  83.0641814 119.9003849  77.8489332  89.0623985
 119.7623647  77.1169571  89.6635524 120.8108772  77.7598232  88.7808172
 128.8618796  79.7877736  73.8108463 128.2447967  79.0624564  73.7141516
 128.3935285  80.5487096  73.4675537 122.5286149  77.5609291  88.5507664
 123.2385768  76.9202483  88.5094283 122.4855457  77.8122186  89.4733845
 130.5172928  84.4976644  91.4714244 130.4585474  83.8135865  90.8044827
 130.9192446  85.2395634  91.0194870 121.2415083  74.5474509  90.3703304
 120.7052440  74.0965247  91.0224900 120.6531792  74.6820418  89.6273768
 119.5363627  91.3138558  84.2647962 119.7760225  91.9457082  84.9426981
 118.6932823  90.9626598  84.5513322 120.6517342  74.0063160  72.9329767
 119.7746808  73.8851961  72.5692014 121.1275095  73.2149239  72.6808656
 130.5190335  82.4616228  89.7028223 129.6317114  82.1242150  89.8254622
 131.0888886  81.7299260  89.9396989 112.1719482  78.7940320  83.0271275
 112.8590522  78.4802050  82.4392290 112.0167611  79.6981685  82.7538526
 116.9754204  73.6830517  87.4556298 116.8912393  73.0756186  86.7206708
 116.1536911  74.1739535  87.4565795 124.0491489  87.1217681  86.6689466
 123.9761660  87.9272652  87.1808771 123.6068882  87.3209647  85.8437488
 123.8381268  86.3589451  80.1792288 123.0548790  86.9011131  80.2730513
 124.5374013  86.8763430  80.5786529 127.1477918  72.1684080  82.8226493
 127.6446618  71.4154043  82.5027564 126.3764900  72.2048397  82.2569703
 135.0007676  77.8724446  84.4644785 134.9897552  78.7549161  84.0938718
 134.1325055  77.5195997  84.2699322 126.5090172  87.0204515  88.8247625
 127.2218144  87.6551980  88.7523527 126.0180201  87.1168381  88.0087627
 128.2307699  80.9255767  80.3964917 127.2963978  81.0457230  80.2269621
 128.4084367  80.0228234  80.1324927 123.7312887  74.3101463  82.5498178
 123.3610675  73.7572504  83.2379084 124.2271980  73.7059597  81.9973178
 131.6180250  76.7673087  80.9314951 132.0840703  77.6001078  80.8575254
 132.0687751  76.3018068  81.6360209 121.5602086  84.7698958  89.6453196
 122.2611545  85.4035441  89.7982590 121.0897201  85.1113690  88.8848835
 129.6856481  83.1116908  77.9301103 129.9616325  82.9973503  78.8394977
 128.8160980  82.7134393  77.8913276 129.5896913  69.1353674  84.9705852
 128.6759993  69.3657901  85.1388059 130.0190015  69.2192118  85.8219885
 129.3603372  77.3243566  87.4705746 128.7074822  77.5719473  86.8158199
 129.7383751  76.5107704  87.1368224 126.3210545  87.3603259  81.5733917
 126.5032940  86.5424915  82.0361669 127.1443531  87.5770951  81.1358807
 126.6552711  86.2871444  78.8348965 127.1840477  85.7763899  78.2219127
 126.9180931  85.9713974  79.6994498 125.4090945  78.0663377  93.9571783
 124.7331582  77.9657506  94.6274159 126.2318579  77.9102590  94.4207781
 117.1569804  84.3035313  86.5784299 117.7423241  83.5579001  86.7112203
 116.9594642  84.6139270  87.4620963 120.0108459  87.3386561  81.5946741
 119.3418834  87.8232688  81.1110781 119.8721329  87.5855781  82.5090120
 111.7487458  76.8740913  85.2988742 111.7871558  76.3404504  86.0925860
 111.2427751  76.3476119  84.6799719 124.1513728  89.3730304  88.1929399
 124.7032036  89.5361926  88.9578485 124.4919921  89.9634742  87.5209424
 119.1278221  71.7205454  88.7951284 119.1919547  72.5820285  88.3828682
 119.0645341  71.1079456  88.0623643 118.6030493  73.7928587  92.4424318
 119.2302532  73.4105664  93.0561843 117.7458412  73.5742788  92.8080011
 129.0024602  84.1991562  94.0478054 129.5464506  84.8121520  93.5533009
 128.4211447  84.7571140  94.5645067 115.3796036  75.6005016  78.3742673
 115.6749477  74.6915694  78.3209727 114.4784072  75.5792755  78.0523676
 127.2882115  87.3212280  85.1793082 127.1633254  86.5202020  84.6704027
 127.9461206  87.8158473  84.6907052 118.9090283  73.6761012  84.3570222
 118.1876869  74.2896980  84.2177695 119.6983539  74.2118777  84.2786868
 129.3517023  85.1221300  86.8072632 128.4047359  85.0026651  86.7350958
 129.6999796  84.2343798  86.8898893 121.7116597  71.0115439  90.6310874
 122.2350998  71.2577735  91.3937183 121.4928930  71.8435474  90.2114011
 117.1083878  73.2819113  78.4981998 116.7796584  72.4016492  78.3157104
 117.4623248  73.2266782  79.3858388 126.3563456  84.9174016  83.0076984
 126.2088419  83.9890723  83.1884554 127.1816950  84.9394107  82.5234059
 120.2225701  73.5692083  78.8657476 120.5621773  74.0978004  78.1436084
 120.6697821  73.9072489  79.6416043 129.9597578  85.7402575  84.0941857
 130.8844126  85.5345436  83.9566308 129.7912882  85.4918976  85.0031198
 122.9169142  71.9529134  88.3160544 122.5765962  71.1536947  88.7181224
 122.2108148  72.2530845  87.7437377 123.5685613  69.0378446  86.7687867
 124.3911683  68.5638924  86.6466757 123.8123677  69.8168930  87.2686553
 122.2093848  72.0666705  77.0650769 122.9302210  72.4447957  76.5614486
 121.5859152  72.7855581  77.1685747 126.3524971  72.7711854  78.0009101
 126.5688585  73.6536492  77.6997929 125.8719038  72.3798067  77.2714743
 121.0924192  75.7297567  84.5779846 120.9468773  76.0437870  85.4704127
 120.6149396  76.3482467  84.0250744 122.9520575  72.7200115  84.6260735
 122.9382144  71.8241208  84.2893033 123.6693003  72.7270779  85.2599021
 124.8046706  73.1537455  86.6713863 124.5464484  74.0754526  86.6698193
 124.2731746  72.7567890  87.3614327 129.7492895  86.2588242  79.4503948
 129.9229772  85.6934665  78.6977801 130.2421786  87.0589137  79.2683438
 115.5669854  78.2702911  87.5167507 115.0223322  79.0462719  87.6487781
 116.4449204  78.6173716  87.3586628 122.3557471  71.6014495  79.8948305
 122.4773382  70.6731141  80.0939193 122.0659513  71.6153181  78.9826621
 125.2248661  69.2869406  83.0315025 125.2470358  69.3508739  82.0767005
 125.6416720  68.4473914  83.2255531 135.6032286  79.0224665  81.0694248
 136.0463432  78.2731990  80.6713371 134.7258796  79.0134801  80.6867980
 130.7368067  85.5755007  76.5500846 131.4318972  86.1961699  76.7688161
 131.0791217  84.7250358  76.8253224 116.3535876  77.3972808  90.4097664
 115.6117612  77.5455443  90.9962294 116.0328620  77.6581073  89.5464413
 132.6359490  83.0254712  78.0788177 133.1610814  83.3641985  77.3537497
 132.5481843  82.0901727  77.8951312 124.2979539  86.9388786  90.2078054
 124.6066665  86.6937933  91.0800753 125.0955021  87.1435424  89.7196924
 124.3200151  89.0926695  82.4383430 123.8805141  88.6003074  83.1316287
 125.0708268  88.5499663  82.1975506 116.7992490  85.2838236  82.4408058
 117.6250510  84.9842008  82.0606702 116.4486542  84.5145859  82.8897847
 121.7674023  84.6364704  84.5105732 121.1454032  83.9735410  84.2107960
 122.4378890  84.6625836  83.8279380 115.0001095  83.2024563  83.3996992
 114.1633003  82.7746737  83.2180993 114.9724740  83.3957006  84.3367783
 121.8398551  73.1146493  94.1038238 121.8886706  73.9908615  93.7216008
 122.3821065  72.5723886  93.5309881 132.3253396  83.6587616  93.3839375
 131.5348940  83.6411755  92.8443874 132.0886751  84.1975909  94.1388412
 132.4451271  80.5080082  90.6972104 132.4949276  80.3430090  91.6387626
 132.3365195  79.6407341  90.3069984 121.3287530  83.1868628  77.9864193
 121.4775650  83.8704092  77.3330865 122.1353973  83.1673718  78.5013648
 129.7355034  76.4911010  92.0131410 130.6364896  76.3517475  91.7215408
 129.8103008  76.6565465  92.9529588 124.0697839  73.8677865  90.8584597
 123.2001148  74.1611431  90.5867185 124.3057319  74.4518310  91.5791860
 133.9469468  82.9277024  90.9414125 133.6554276  83.2907004  91.7777586
 133.3341599  82.2144032  90.7627457 135.1465150  80.4929903  83.4616695
 135.9812042  80.9319707  83.6254256 135.2824279  80.0168557  82.6424941
 132.1956656  78.0509638  89.4094183 132.6710778  78.2437285  88.6013035
 131.2722222  78.1068824  89.1637567 119.0840163  79.2133805  78.9925261
 118.8386205  78.3096135  79.1905472 119.2536077  79.2150956  78.0504739
 126.7736873  70.0857482  88.3750017 127.2918817  70.8218509  88.0496506
 126.4192006  70.3921475  89.2096776 118.3535810  74.9462163  76.4911423
 117.6605055  75.0206518  75.8351459 118.1087562  74.1822507  77.0132940
 127.0249467  66.5057764  83.8950914 127.3051221  65.8380953  84.5211340
 127.8100074  66.6986860  83.3825577 124.8282935  85.6816758  75.4575940
 124.2556903  86.3006945  75.0046412 125.4015729  86.2316120  75.9915862
 130.8958325  74.9275398  87.6422489 131.8475748  75.0273496  87.6634713
 130.7261776  74.1353667  88.1520573 128.9172705  72.0130982  87.8281890
 128.3222637  72.2935994  87.1328378 128.6322401  72.5024883  88.5998631
 128.0480195  85.9653908  76.5884522 128.9810868  85.8999470  76.7917398
 127.9603408  86.8010175  76.1299055 130.6768212  85.2819779  73.5488470
 130.5981843  84.9479642  74.4424228 131.4977879  85.7741547  73.5479942
 133.3746403  78.1481518  86.7564788 133.3422723  77.2097519  86.9424472
 133.9847027  78.2265555  86.0230613 125.2129734  77.0177571  72.7991992
 126.1588839  76.8883779  72.8680410 124.8343979  76.2792233  73.2761421
 133.5240892  74.9392561  86.8023072 133.0079940  74.1551018  86.6153000
 134.4080840  74.6111278  86.9669591 131.1851618  68.6833577  82.7618884
 130.9876440  68.3748665  83.6462216 131.7951324  69.4095216  82.8916814
 139.1922953  79.2097525  85.8970825 139.9226341  78.9482813  86.4578529
 138.5829898  78.4726247  85.9372893 137.2738250  77.3505387  86.4945276
 136.5471414  77.2161352  85.8861768 136.8585537  77.6582216  87.3001994
 125.0968426  81.0695317  94.2592649 126.0171436  81.2473916  94.4532696
 125.0618010  80.1251363  94.1072349 123.3972651  74.9427547  72.7346878
 122.4904106  74.6460660  72.8109591 123.6748632  74.6457366  71.8681164
 114.3150591  76.2633911  83.1845924 113.9953376  75.4099219  82.8920298
 113.7684020  76.4782489  83.9403891 118.0930499  78.9796352  86.9015431
 118.3116509  79.9113460  86.9203464 118.5056273  78.6204326  87.6870234
 125.0134717  69.4864437  78.8891119 124.2035445  69.1411522  79.2646365
 125.7019134  69.1771981  79.4778731 126.9425265  68.5642484  80.5115416
 127.4956304  68.9837937  81.1705439 127.1795351  67.6378232  80.5538372
 122.9658364  74.5529558  96.2918179 122.8655091  75.5023915  96.2230271
 122.7479906  74.2247796  95.4194250 122.1671436  71.8014483  72.8758857
 123.0290600  72.1269381  73.1354674 122.3521780  71.0145979  72.3631923
 114.1838851  79.8836822  85.1539046 113.4902323  79.4690775  84.6409000
 114.9311842  79.9257359  84.5572465 130.3204072  70.6743009  80.0194080
 129.7402741  71.3327813  79.6372132 130.0540005  69.8520354  79.6081497
 128.7707639  70.0748067  82.2215400 129.2707417  70.1864601  81.4129719
 129.4143246  69.7709120  82.8616209 122.8289634  77.9826696  95.1083241
 122.3456716  78.7827057  95.3147130 122.9150573  77.9934641  94.1550685
 116.0975594  79.8155076  83.0305061 116.0746282  79.9142763  82.0786944
 116.4076231  80.6620227  83.3522227 118.7562972  81.8731231  87.1451675
 119.7106225  81.8415173  87.0781606 118.5575495  81.4121855  87.9601901
 119.3462354  80.4432347  89.7122473 120.1655243  80.9376426  89.7357310
 119.6199162  79.5264315  89.6840040 129.1028950  72.8343099  79.0750428
 128.2154805  73.1192750  78.8570623 129.5182939  72.6736863  78.2277705
 132.4543486  72.8589620  82.7904767 133.2303876  73.3486073  83.0629384
 131.7291621  73.2847675  83.2476637 134.8916045  73.5717240  83.8478708
 135.4860536  73.3312976  83.1372016 134.9642629  72.8524370  84.4752244
 117.1113201  87.4150851  84.1621873 116.9767669  86.6551252  83.5959871
 116.6945263  88.1391750  83.6950662 128.2472164  82.5987774  73.1698448
 128.9508014  82.8037777  73.7856104 127.5234812  83.1664536  73.4347532
 129.0769974  78.3497635  79.2900718 129.0205175  78.8066187  78.4508351
 129.6298316  77.5888320  79.1123561 132.8874780  74.1387367  80.1150838
 132.6311714  73.7384003  80.9459045 132.2627648  74.8531161  79.9900977
 137.1987118  76.8783441  82.6222129 136.6386676  76.9476630  83.3953691
 136.5930621  76.7024425  81.9021625 120.2682327  88.3120168  84.3740315
 120.1514711  89.2565600  84.2719006 119.4474773  88.0093729  84.7626115
 130.1558861  83.0370303  75.2196908 130.9904465  82.6051502  75.0374383
 129.9943204  82.8652317  76.1473803 129.8104753  79.5402417  76.5853247
 129.7553557  79.3746688  75.6441692 129.1850809  80.2478450  76.7415437
 114.5997268  74.7770481  90.4114670 115.2456132  74.2669435  90.9001895
 114.3914419  75.5139163  90.9858095 127.1250660  81.8451329  95.9106810
 127.9941820  82.0191981  95.5493445 126.6457412  82.6645745  95.7882540
 123.1200879  69.0410526  76.1638566 123.1079549  69.9852366  76.3206837
 124.0124301  68.8580671  75.8698027 121.2936841  88.9648430  87.5896244
 122.1964087  88.9972040  87.9062739 121.0674211  88.0348880  87.6042580
 123.0490443  87.7179416  84.2506322 122.0986074  87.7181278  84.1370695
 123.3522929  86.9712151  83.7342357 126.9352998  65.6353302  80.4184503
 126.1685394  65.0811789  80.5641185 127.3463703  65.7075171  81.2798654
 118.9394759  71.9238098  94.5089684 119.8026221  71.5674903  94.7193008
 118.3660170  71.5851993  95.1965088 138.7843136  93.5539954  85.3152085
 139.4221546  93.4346702  84.6115425 138.6663979  94.5020798  85.3740037
 135.5932842  93.5067383  85.2513610 135.2551354  93.3908447  84.3634144
 136.4622611  93.1058548  85.2314616 131.4519658  95.3602859  81.2410501
 130.8884523  95.2692796  80.4726788 131.3372053  94.5402763  81.7212993
 136.0752625  94.6602234  91.2099815 136.0641266  94.2655033  90.3380319
 136.2373265  93.9268307  91.8033587 128.9984090  96.8554051  84.0794721
 129.7905382  96.5144875  83.6641020 129.2380740  96.9649026  84.9996874
 137.0319217  99.0273827  76.5524965 136.3807197  99.6127907  76.1658979
 137.8263580  99.5580022  76.6120003 130.9574844  96.1162964  76.9512100
 131.7305720  95.5691951  76.8124976 131.3100243  96.9807213  77.1626561
 132.7959887  97.4439346  90.1578999 132.5049753  98.3484977  90.0425665
 133.4316871  97.4855874  90.8723069 133.7216093  94.8216195  86.7480359
 134.3179666  94.5972217  86.0337322 133.7791065  94.0800940  87.3505807
 133.2941122  92.2755630  74.5830550 133.5466643  91.7537151  73.8214013
 132.3565681  92.1121775  74.6857233 138.3384405  91.2791408  82.3905293
 139.1247494  90.8610831  82.0395710 138.6023109  92.1837500  82.5586941
 138.5094482  96.7164259  77.0893950 137.8740315  96.7898885  77.8014854
 138.1791888  97.3057857  76.4113029 133.0137411  94.1783736  76.7854925
 132.8973669  93.5028639  77.4536009 133.1239670  93.6916110  75.9687078
 135.3568952  93.6393883  80.4901614 134.9927159  93.1124504  81.2014535
 136.2136067  93.2492352  80.3168099 134.9974439  88.6683783  75.4862962
 135.1648841  89.5364019  75.8533433 134.8071608  88.8311064  74.5624252
 137.7549772  97.1300762  87.1528793 137.4550495  98.0325800  87.0444600
 137.4100831  96.8632945  88.0049946 131.2062253  93.5814558  83.1865497
 130.2812750  93.4490773  83.3943189 131.4546666  94.3608778  83.6835440
 141.1546915  89.6483302  84.8326230 140.2463793  89.5798710  84.5384991
 141.1034511  90.1255247  85.6608056 134.9763659  91.1241440  76.4709629
 134.8563285  91.5698491  77.3095110 134.2816248  91.4726758  75.9123167
 128.5671064  93.2247832  84.0209286 128.6963445  93.4782311  84.9348698
 127.8868516  93.8175540  83.7013941 132.7370551 103.8945082  80.1199760
 132.6594581 104.8452907  80.1988241 132.1332195 103.5490954  80.7774687
 135.2287781  91.0672947  92.7761127 134.4521115  91.6266868  92.7663992
 135.8678344  91.5529730  93.2975997 133.4834154  93.8758401  92.3379094
 134.2248838  94.4143445  92.0613918 132.7771139  94.5024689  92.4950646
 138.9589493  96.0187541  90.9351256 139.3672849  95.5769952  90.1905888
 138.2366755  95.4440169  91.1885449 135.3120563  90.9560148  88.3084813
 136.1581758  91.3799562  88.4519462 135.2519201  90.2993772  89.0023376
 139.2818308  96.5788732  84.6903545 138.6527170  96.7434446  83.9879613
 138.8943970  96.9930341  85.4614509 138.4620009  88.6164516  89.9665986
 138.2180940  89.3706577  89.4300262 138.7379939  88.9949864  90.8013234
 140.4158471  95.1603129  88.6443252 140.6275367  95.8034889  87.9677633
 140.3688220  94.3265445  88.1765182 138.0184700  87.7720949  85.5479824
 137.1569179  88.0702203  85.8396562 138.0447135  87.9891348  84.6160857
 134.8346270  96.3163140  81.9553630 135.2984615  96.5950843  81.1658252
 134.5703068  95.4146585  81.7726721 131.7270351  95.8634621  84.8933393
 132.2971708  96.2921890  84.2550878 132.3178463  95.5817206  85.5917579
 133.7715156  92.4386292  78.7643195 134.4739199  92.8907336  79.2317121
 133.4395784  91.7970111  79.3923088 132.2195517  91.0298049  93.1394404
 131.5894178  91.7114330  93.3729801 132.1131605  90.9181131  92.1947543
 127.5140490  90.6969845  84.0660329 126.7239544  90.9527373  83.5900439
 128.0051737  91.5118183  84.1712369 129.4655235  91.0614424  81.0243805
 128.6686398  91.1733118  81.5427301 129.2380827  91.4001076  80.1584696
 135.2960903  97.5859127  88.9726320 135.3605335  98.0479535  89.8084492
 134.5871827  96.9556492  89.1008630 125.7978193  90.9500335  86.4975319
 126.0486231  91.8347345  86.7632895 126.3337741  90.7704937  85.7250411
 135.0108920  99.2527235  78.8405300 134.8754595 100.0978771  79.2690148
 135.5518733  99.4546513  78.0771234 131.4976260  85.3318815  95.5019655
 131.1043206  84.7785013  96.1767300 132.3142400  85.6429393  95.8926173
 128.4638318  96.7702673  79.4133225 128.9762838  97.5645923  79.5638790
 129.1161031  96.0728963  79.3466827 130.2733202  99.8868429  81.4955978
 130.4499831 100.8086394  81.3076962 131.0690036  99.5726848  81.9250358
 134.4144221  86.7476694  93.0939912 135.1553934  87.3483847  93.0144374
 134.6462144  86.0054332  92.5357955 129.5585559  91.9333061  91.3718142
 129.4439074  91.0318318  91.6725241 128.7030077  92.1796758  91.0202958
 136.6377397  99.8750801  92.9705642 136.1941251  99.0887180  92.6526547
 137.2994610 100.0629952  92.3049533 131.3964518 101.4046603  87.4966321
 131.9471943 101.2763666  86.7243315 130.5575994 101.7041492  87.1461214
 138.7358635 100.1553601  90.9987044 138.7177110 100.9762482  90.5067313
 139.6578555 100.0307677  91.2237185 135.1931689  97.6697731  91.8410552
 135.7260026  96.9086019  91.6109860 134.6645770  97.3771383  92.5834706
 138.3601384  82.7757797  87.3704194 138.0165653  83.6659438  87.2943304
 138.7280347  82.5859454  86.5073779 126.4287235  95.0991327  80.1892796
 127.2662457  95.5088336  79.9726504 126.6065502  94.1590769  80.1592990
 138.3251667  92.7666408  75.8776629 137.8098290  93.5371013  76.1165016
 138.0528975  92.0931544  76.5009690 135.9098778  87.6116109  80.9361867
 135.0540374  87.2222959  80.7567506 136.3225729  87.6908069  80.0761653
 137.4397924  85.1462452  85.3353427 136.9362720  85.1092587  84.5221232
 137.7328531  86.0555195  85.3950084 133.6840810  85.2301182  84.3419609
 134.5493807  85.0343990  83.9825498 133.7518319  85.0011533  85.2688965
 138.1137970  90.6393500  77.7036410 137.8088105  90.9539649  78.5546553
 139.0668412  90.7174920  77.7463743 136.5584402  96.7983723  79.3529364
 136.0305763  96.0636483  79.0402601 136.0571904  97.5758400  79.1069332
 131.2903129  87.4603390  81.7135975 131.8646881  87.2378571  80.9809168
 131.8774112  87.5292084  82.4664577 140.3482707  93.3477116  82.5200352
 140.8614588  93.9807108  83.0222062 140.9983930  92.7478312  82.1543712
 131.6172716  89.4907851  75.7331861 130.7810029  89.8282537  76.0541135
 131.4777486  89.3556830  74.7958998 133.5925797  84.3344638  80.4411045
 132.9390209  84.0193656  79.8167660 133.5506271  83.7120379  81.1670868
 134.7037002  94.6163934  72.3564337 133.7964064  94.3853187  72.5555486
 135.2008034  93.8201553  72.5438319 137.6105081 103.3261441  75.2761023
 136.9366780 103.6293138  75.8845981 137.9970903 104.1290521  74.9266480
 136.8263537  90.8226572  84.7658693 135.9086099  91.0441519  84.6080381
 137.2423681  90.8972883  83.9070400 137.6098585  92.2217988  79.8961373
 138.3570404  92.7339385  79.5868495 137.8790175  91.9002040  80.7565766
 135.8825235  94.7176528  76.8788327 134.9736455  94.4335561  76.9760797
 135.9120319  95.1375607  76.0191634 141.1144503  98.3283118  80.6479495
 140.6606830  97.4874028  80.7044685 140.4838469  98.9644516  80.9854275
 140.0577422  89.2575104  81.8780162 139.3200179  88.7452490  82.2090405
 140.3104196  88.8175486  81.0663439 139.5577442 100.1659615  81.5829313
 139.8500416 100.7264672  80.8641678 140.0676063 100.4588176  82.3382472
 140.1589050  82.0351356  82.4721931 140.4647926  81.1748719  82.1847846
 140.8841654  82.6268976  82.2720925 126.4513406  92.4382043  80.8603529
 126.2537806  91.8451403  80.1354596 125.8960070  92.1334253  81.5779468
 134.4310129  92.3305149  82.9798122 134.4858739  91.3778985  82.9040599
 133.6201331  92.4864588  83.4639421 135.5801323  96.2585272  74.2176406
 135.1420753  95.5421131  73.7582043 136.3211764  96.4861387  73.6561497
 132.3702489  90.9482209  80.7388501 131.5570355  91.2476379  81.1453693
 132.8661483  90.5537898  81.4562984 134.5211067 100.9439966  82.6722766
 134.4787246 101.1700812  81.7431298 135.4373766 100.7103340  82.8208567
 137.9676701  91.4124033  89.5703395 138.3226089  91.6395506  90.4297861
 138.6148832  91.7442410  88.9480650 131.8616564  88.5200564  86.3549736
 132.5015943  88.3789323  85.6572700 131.0294095  88.2335078  85.9788338
 132.6376868  97.8202995  82.4684729 133.4317466  97.3253315  82.2667304
 131.9268560  97.2920858  82.1052434 137.4571712 100.2021090  86.8197096
 137.5108735 100.7712027  87.5874812 136.5886494 100.3722975  86.4551133
 128.9459631  91.9646076  78.5444481 128.0157220  91.9030532  78.7614444
 129.0417103  91.4422029  77.7481123 128.8645180  88.4900889  81.1322723
 129.1251998  89.4046223  81.0231884 129.6862353  88.0225332  81.2819336
 130.3370106  89.9038646  88.3021548 131.0093159  89.6956009  87.6534196
 129.5099892  89.7060732  87.8626780 136.2395678  86.5300587  90.3187208
 135.5923593  87.2290537  90.2251685 137.0096693  86.9636731  90.6863457
 139.6474476  96.7949440  93.3937762 139.4959982  96.5659991  92.4767845
 139.6379155  97.7520041  93.4069107 136.4159812  94.3681352  88.3784028
 137.3451872  94.5192512  88.2052995 135.9950842  94.4565373  87.5232675
 135.2148144  98.3932017  86.1482566 135.0759230  98.0250801  87.0208504
 134.4262740  98.9079656  85.9766524 135.8096296 103.4941113  77.4908102
 135.9848052 103.0229156  78.3053725 135.1229084 104.1206879  77.7189363
 136.7653359  97.7713619  83.5371404 136.4303192  97.7314389  84.4329053
 136.2657305  97.1058335  83.0641814 130.7397603  93.1781249  89.0623985
 130.6017401  92.4461488  89.6635524 131.6502527  93.0890150  88.7808172
 139.7012551  95.1169654  73.8108463 139.0841721  94.3916482  73.7141516
 139.2329039  95.8779014  73.4675537 133.3679904  92.8901209  88.5507664
 134.0779522  92.2494401  88.5094283 133.3249212  93.1414104  89.4733845
 132.0808838  89.8766427  90.3703304 131.5446195  89.4257165  91.0224900
 131.4925546  90.0112335  89.6273768 130.3757381 106.6430476  84.2647962
 130.6153979 107.2749000  84.9426981 129.5326578 106.2918516  84.5513322
 131.4911097  89.3355078  72.9329767 130.6140563  89.2143879  72.5692014
 131.9668850  88.5441156  72.6808656 123.0113237  94.1232238  83.0271275
 123.6984277  93.8093968  82.4392290 122.8561365  95.0273602  82.7538526
 127.8147959  89.0122434  87.4556298 127.7306148  88.4048104  86.7206708
 126.9930665  89.5031453  87.4565795 134.8885243 102.4509598  86.6689466
 134.8155415 103.2564570  87.1808771 134.4462636 102.6501564  85.8437488
 134.6775023 101.6881368  80.1792288 133.8942545 102.2303049  80.2730513
 135.3767768 102.2055348  80.5786529 137.9871673  87.4975998  82.8226493
 138.4840372  86.7445960  82.5027564 137.2158654  87.5340315  82.2569703
 137.3483927 102.3496432  88.8247625 138.0611899 102.9843897  88.7523527
 136.8573955 102.4460298  88.0087627 139.0701453  96.2547685  80.3964917
 138.1357732  96.3749148  80.2269621 139.2478122  95.3520152  80.1324927
 134.5706642  89.6393381  82.5498178 134.2004429  89.0864421  83.2379084
 135.0665734  89.0351514  81.9973178 132.3995840 100.0990876  89.6453196
 133.1005300 100.7327359  89.7982590 131.9290955 100.4405607  88.8848835
 140.5250236  98.4408826  77.9301103 140.8010080  98.3265420  78.8394977
 139.6554735  98.0426311  77.8913276 140.4290668  84.4645591  84.9705852
 139.5153747  84.6949818  85.1388059 140.8583769  84.5484035  85.8219885
 140.1997126  92.6535483  87.4705746 139.5468576  92.9011391  86.8158199
 140.5777506  91.8399622  87.1368224 137.1604300 102.6895177  81.5733917
 137.3426694 101.8716832  82.0361669 137.9837286 102.9062869  81.1358807
 137.4946465 101.6163362  78.8348965 138.0234232 101.1055816  78.2219127
 137.7574685 101.3005892  79.6994498 136.2484699  93.3955294  93.9571783
 135.5725336  93.2949424  94.6274159 137.0712333  93.2394508  94.4207781
 127.9963558  99.6327231  86.5784299 128.5816995  98.8870919  86.7112203
 127.7988397  99.9431188  87.4620963 130.8502213 102.6678478  81.5946741
 130.1812589 103.1524606  81.1110781 130.7115083 102.9147699  82.5090120
 122.5881213  92.2032831  85.2988742 122.6265312  91.6696422  86.0925860
 122.0821506  91.6768037  84.6799719 134.9907482 104.7022222  88.1929399
 135.5425790 104.8653843  88.9578485 135.3313675 105.2926660  87.5209424
 129.9671975  87.0497372  88.7951284 130.0313302  87.9112203  88.3828682
 129.9039095  86.4371373  88.0623643 129.4424248  89.1220504  92.4424318
 130.0696287  88.7397582  93.0561843 128.5852167  88.9034706  92.8080011
 139.8418356  99.5283479  94.0478054 140.3858260 100.1413438  93.5533009
 139.2605201 100.0863058  94.5645067 126.2189791  90.9296933  78.3742673
 126.5143232  90.0207612  78.3209727 125.3177826  90.9084673  78.0523676
 138.1275869 102.6504197  85.1793082 138.0027009 101.8493937  84.6704027
 138.7854960 103.1450391  84.6907052 129.7484037  89.0052930  84.3570222
 129.0270623  89.6188898  84.2177695 130.5377293  89.5410695  84.2786868
 140.1910778 100.4513217  86.8072632 139.2441113 100.3318569  86.7350958
 140.5393551  99.5635716  86.8898893 132.5510351  86.3407356  90.6310874
 133.0744753  86.5869653  91.3937183 132.3322684  87.1727391  90.2114011
 127.9477632  88.6111031  78.4981998 127.6190338  87.7308410  78.3157104
 128.3017003  88.5558700  79.3858388 137.1957211 100.2465934  83.0076984
 137.0482173  99.3182641  83.1884554 138.0210704 100.2686024  82.5234059
 131.0619455  88.8984001  78.8657476 131.4015528  89.4269922  78.1436084
 131.5091576  89.2364407  79.6416043 133.7562896  87.2821051  88.3160544
 133.4159716  86.4828865  88.7181224 133.0501902  87.5822762  87.7437377
 134.4079368  84.3670364  86.7687867 135.2305437  83.8930842  86.6466757
 134.6517431  85.1460848  87.2686553 133.0487602  87.3958622  77.0650769
 133.7695965  87.7739875  76.5614486 132.4252907  88.1147499  77.1685747
 137.1918725  88.1003771  78.0009101 137.4082340  88.9828409  77.6997929
 136.7112792  87.7089985  77.2714743 131.9317947  91.0589485  84.5779846
 131.7862527  91.3729788  85.4704127 131.4543150  91.6774385  84.0250744
 133.7914330  88.0492033  84.6260735 133.7775898  87.1533126  84.2893033
 134.5086758  88.0562696  85.2599021 135.6440460  88.4829373  86.6713863
 135.3858238  89.4046443  86.6698193 135.1125501  88.0859807  87.3614327
 140.5886649 101.5880160  79.4503948 140.7623527 101.0226582  78.6977801
 141.0815540 102.3881055  79.2683438 126.4063609  93.5994829  87.5167507
 125.8617077  94.3754637  87.6487781 127.2842959  93.9465633  87.3586628
 133.1951225  86.9306413  79.8948305 133.3167137  86.0023059  80.0939193
 132.9053268  86.9445099  78.9826621 136.0642416  84.6161323  83.0315025
 136.0864113  84.6800656  82.0767005 136.4810475  83.7765832  83.2255531
 127.1929631  92.7264725  90.4097664 126.4511367  92.8747361  90.9962294
 126.8722375  92.9872991  89.5464413 135.1373293 102.2680703  90.2078054
 135.4460420 102.0229850  91.0800753 135.9348775 102.4727342  89.7196924
 135.1593905 104.4218613  82.4383430 134.7198896 103.9294992  83.1316287
 135.9102022 103.8791581  82.1975506 127.6386244 100.6130154  82.4408058
 128.4644264 100.3133926  82.0606702 127.2880296  99.8437776  82.8897847
 132.6067778  99.9656622  84.5105732 131.9847787  99.3027327  84.2107960
 133.2772644  99.9917754  83.8279380 125.8394849  98.5316480  83.3996992
 125.0026758  98.1038655  83.2180993 125.8118495  98.7248924  84.3367783
 132.6792305  88.4438410  94.1038238 132.7280460  89.3200533  93.7216008
 133.2214819  87.9015803  93.5309881 132.1681284  98.5160546  77.9864193
 132.3169405  99.1996010  77.3330865 132.9747728  98.4965636  78.5013648
 134.9091593  89.1969783  90.8584597 134.0394903  89.4903349  90.5867185
 135.1451074  89.7810228  91.5791860 129.9233917  94.5425723  78.9925261
 129.6779959  93.6388053  79.1905472 130.0929832  94.5442874  78.0504739
 137.6130627  85.4149400  88.3750017 138.1312571  86.1510426  88.0496506
 137.2585760  85.7213393  89.2096776 129.1929565  90.2754081  76.4911423
 128.4998810  90.3498436  75.8351459 128.9481317  89.5114424  77.0132940
 137.8643221  81.8349682  83.8950914 138.1444975  81.1672871  84.5211340
 138.6493828  82.0278778  83.3825577 135.6676690 101.0108676  75.4575940
 135.0950657 101.6298863  75.0046412 136.2409484 101.5608038  75.9915862
 139.7566459  87.3422899  87.8281890 139.1616391  87.6227912  87.1328378
 139.4716156  87.8316800  88.5998631 138.8873950 101.2945826  76.5884522
 139.8204623 101.2291388  76.7917398 138.7997163 102.1302093  76.1299055
 136.0523488  92.3469489  72.7991992 136.9982593  92.2175697  72.8680410
 135.6737733  91.6084151  73.2761421 135.9362181  96.3987235  94.2592649
 136.8565190  96.5765834  94.4532696 135.9011764  95.4543280  94.1072349
 134.2366406  90.2719465  72.7346878 133.3297861  89.9752578  72.8109591
 134.5142387  89.9749283  71.8681164 125.1544346  91.5925829  83.1845924
 124.8347130  90.7391137  82.8920298 124.6077774  91.8074407  83.9403891
 128.9324254  94.3088270  86.9015431 129.1510263  95.2405377  86.9203464
 129.3450027  93.9496244  87.6870234 135.8528471  84.8156355  78.8891119
 135.0429200  84.4703440  79.2646365 136.5412888  84.5063899  79.4778731
 137.7819020  83.8934402  80.5115416 138.3350058  84.3129855  81.1705439
 138.0189106  82.9670150  80.5538372 133.8052119  89.8821475  96.2918179
 133.7048846  90.8315832  96.2230271 133.5873661  89.5539714  95.4194250
 133.0065190  87.1306400  72.8758857 133.8684354  87.4561299  73.1354674
 133.1915534  86.3437896  72.3631923 125.0232606  95.2128740  85.1539046
 124.3296077  94.7982693  84.6409000 125.7705597  95.2549277  84.5572465
 139.6101393  85.4039984  82.2215400 140.1101171  85.5156519  81.4129719
 140.2537001  85.1001037  82.8616209 133.6683389  93.3118614  95.1083241
 133.1850471  94.1118974  95.3147130 133.7544328  93.3226559  94.1550685
 126.9369349  95.1446994  83.0305061 126.9140037  95.2434681  82.0786944
 127.2469985  95.9912145  83.3522227 129.5956726  97.2023149  87.1451675
 130.5499980  97.1707091  87.0781606 129.3969250  96.7413773  87.9601901
 130.1856109  95.7724265  89.7122473 131.0048998  96.2668344  89.7357310
 130.4592916  94.8556233  89.6840040 139.9422705  88.1635017  79.0750428
 139.0548560  88.4484668  78.8570623 140.3576694  88.0028781  78.2277705
 127.9506955 102.7442768  84.1621873 127.8161423 101.9843169  83.5959871
 127.5339017 103.4683668  83.6950662 139.0865918  97.9279692  73.1698448
 139.7901768  98.1329694  73.7856104 138.3628567  98.4956454  73.4347532
 139.9163728  93.6789553  79.2900718 139.8598930  94.1358105  78.4508351
 140.4692071  92.9180238  79.1123561 131.1076081 103.6412085  84.3740315
 130.9908465 104.5857518  84.2719006 130.2868527 103.3385647  84.7626115
 140.6498508  94.8694334  76.5853247 140.5947312  94.7038606  75.6441692
 140.0244563  95.5770367  76.7415437 125.4391023  90.1062399  90.4114670
 126.0849886  89.5961353  90.9001895 125.2308174  90.8431080  90.9858095
 137.9644415  97.1743246  95.9106810 138.8335575  97.3483898  95.5493445
 137.4851166  97.9937663  95.7882540 133.9594633  84.3702443  76.1638566
 133.9473303  85.3144283  76.3206837 134.8518055  84.1872589  75.8698027
 132.1330595 104.2940347  87.5896244 133.0357842 104.3263957  87.9062739
 131.9067965 103.3640798  87.6042580 133.8884197 103.0471334  84.2506322
 132.9379828 103.0473195  84.1370695 134.1916683 102.3004068  83.7342357
 137.7746753  80.9645220  80.4184503 137.0079148  80.4103707  80.5641185
 138.1857458  81.0367089  81.2798654 129.7788514  87.2530016  94.5089684
 130.6419975  86.8966821  94.7193008 129.2053924  86.9143911  95.1965088
 139.8377845 112.1845968  84.0794721 140.6299137 111.8436793  83.6641020
 140.0774495 112.2940943  84.9996874 139.4064819 108.5539750  84.0209286
 139.5357200 108.8074229  84.9348698 138.7262270 109.1467458  83.7013941
 138.3534244 106.0261763  84.0660329 137.5633298 106.2819291  83.5900439
 138.8445492 106.8410100  84.1712369 140.3048990 106.3906342  81.0243805
 139.5080153 106.5025036  81.5427301 140.0774582 106.7292994  80.1584696
 136.6371947 106.2792253  86.4975319 136.8879986 107.1639263  86.7632895
 137.1731496 106.0996855  85.7250411 139.3032072 112.0994591  79.4133225
 139.8156593 112.8937841  79.5638790 139.9554785 111.4020881  79.3466827
 140.3979314 107.2624979  91.3718142 140.2832829 106.3610236  91.6725241
 139.5423831 107.5088676  91.0202958 137.2680989 110.4283245  80.1892796
 138.1056211 110.8380253  79.9726504 137.4459257 109.4882687  80.1592990
 137.2907160 107.7673960  80.8603529 137.0931560 107.1743321  80.1354596
 136.7353824 107.4626170  81.5779468 139.7853386 107.2937994  78.5444481
 138.8550974 107.2322450  78.7614444 139.8810858 106.7713947  77.7481123
 139.7038935 103.8192807  81.1322723 139.9645752 104.7338140  81.0231884
 140.5256107 103.3517250  81.2819336 133.8506991 109.4524155  83.0271275
 134.5378031 109.1385886  82.4392290 133.6955120 110.3565520  82.7538526
 138.6541713 104.3414352  87.4556298 138.5699902 103.7340022  86.7206708
 137.8324420 104.8323370  87.4565795 138.8357313 114.9619149  86.5784299
 139.4210749 114.2162837  86.7112203 138.6382151 115.2723105  87.4620963
 133.4274967 107.5324749  85.2988742 133.4659067 106.9988340  86.0925860
 132.9215260 107.0059954  84.6799719 140.8065730 102.3789289  88.7951284
 140.8707056 103.2404120  88.3828682 140.7432850 101.7663291  88.0623643
 140.2818002 104.4512422  92.4424318 140.9090041 104.0689499  93.0561843
 139.4245921 104.2326624  92.8080011 137.0583545 106.2588851  78.3742673
 137.3536986 105.3499529  78.3209727 136.1571581 106.2376590  78.0523676
 138.7871387 103.9402949  78.4981998 138.4584093 103.0600328  78.3157104
 139.1410757 103.8850617  79.3858388 137.2457363 108.9286747  87.5167507
 136.7010831 109.7046555  87.6487781 138.1236713 109.2757551  87.3586628
 138.0323385 108.0556643  90.4097664 137.2905121 108.2039278  90.9962294
 137.7116129 108.3164909  89.5464413 138.4779999 115.9422072  82.4408058
 139.3038019 115.6425843  82.0606702 138.1274051 115.1729694  82.8897847
 136.6788604 113.8608398  83.3996992 135.8420512 113.4330572  83.2180993
 136.6512249 114.0540841  84.3367783 140.7627672 109.8717641  78.9925261
 140.5173714 108.9679971  79.1905472 140.9323586 109.8734791  78.0504739
 140.0323319 105.6045998  76.4911423 139.3392564 105.6790353  75.8351459
 139.7875071 104.8406342  77.0132940 135.9938100 106.9217746  83.1845924
 135.6740885 106.0683054  82.8920298 135.4471529 107.1366324  83.9403891
 139.7718008 109.6380187  86.9015431 139.9904018 110.5697295  86.9203464
 140.1843782 109.2788162  87.6870234 135.8626360 110.5420658  85.1539046
 135.1689832 110.1274610  84.6409000 136.6099351 110.5841194  84.5572465
 137.7763103 110.4738911  83.0305061 137.7533791 110.5726599  82.0786944
 138.0863739 111.3204062  83.3522227 138.7900710 118.0734686  84.1621873
 138.6555178 117.3135087  83.5959871 138.3732772 118.7975586  83.6950662
 136.2784777 105.4354316  90.4114670 136.9243641 104.9253270  90.9001895
 136.0701928 106.1722998  90.9858095  78.5401780   4.2547616  66.8445067
  78.4625810   5.2055441  66.9233548  77.9363424   3.9093489  67.5019993
  80.8140149  -0.3870231  65.5650607  80.6785824   0.4581305  65.9935455
  81.3549962  -0.1850953  64.8016541  76.0764431   0.2470963  68.2201285
  76.2531060   1.1688928  68.0322269  76.8721265  -0.0670617  68.6495665
  77.1995747   1.7649137  74.2211627  77.7503172   1.6366201  73.4488621
  76.3607223   2.0644026  73.8706520  83.4136310   3.6863975  62.0006330
  82.7398008   3.9895672  62.6091288  83.8002132   4.4893055  61.6511787
  80.3242296   1.3042500  69.3968073  80.2818475   1.5303346  68.4676605
  81.2404995   1.0705875  69.5453874  83.2602941   0.5623624  73.5442403
  83.3139964   1.1314561  74.3120119  82.3917723   0.7325510  73.1796440
  81.6127525   3.8543647  64.2153409  81.7879280   3.3831691  65.0299032
  80.9260313   4.4809414  64.4434670  76.1788610   7.0033010  70.9893269
  76.4185208   7.6351534  71.6672288  75.3357806   6.6521050  71.2758628
  80.6916472   2.8112133  73.3934773  80.6186643   3.6167104  73.9054078
  80.2493865   3.0104098  72.5682794  80.4806251   2.0483903  66.9037595
  79.6973773   2.5905583  66.9975819  81.1798997   2.5657882  67.3031836
  83.1515155   2.7098967  75.5492932  83.8643128   3.3446431  75.4768833
  82.6605184   2.8062833  74.7332934  78.2027069   0.4593410  76.3698503
  78.9036528   1.0929893  76.5227897  77.7322184   0.8008142  75.6094142
  82.9635529   3.0497711  68.2979223  83.1457923   2.2319367  68.7606976
  83.7868515   3.2665403  67.8604113  83.2977694   1.9765896  65.5594272
  83.8265461   1.4658350  64.9464434  83.5605914   1.6608426  66.4239805
  73.7994787  -0.0070235  73.3029605  74.3848224  -0.7526547  73.4357509
  73.6019625   0.3033722  74.1866269  76.6533442   3.0281013  68.3192048
  75.9843817   3.5127140  67.8356088  76.5146312   3.2750233  69.2335426
  80.7938711   5.0624756  74.9174706  81.3457019   5.2256378  75.6823791
  81.1344904   5.6529194  74.2454731  83.9307098   3.0106732  71.9038388
  83.8058238   2.2096471  71.3949334  84.5886189   3.5052925  71.4152358
  80.9404522   2.6283238  76.9323360  81.2491649   2.3832384  77.8046060
  81.7380004   2.8329876  76.4442231  80.9625134   4.7821147  69.1628737
  80.5230124   4.2897526  69.8561594  81.7133251   4.2394115  68.9220812
  73.4417473   0.9732688  69.1653365  74.2675493   0.6736460  68.7852009
  73.0911525   0.2040311  69.6143154  78.4099006   0.3259156  71.2351039
  77.7879016  -0.3370139  70.9353266  79.0803873   0.3520288  70.5524686
  71.6426078  -1.1080985  70.1242299  70.8057987  -1.5358811  69.9426300
  71.6149724  -0.9148542  71.0613090  81.4707919   1.3711210  62.1821247
  80.8981886   1.9901397  61.7291718  82.0440712   1.9210572  62.7161169
  84.6905179   1.6548360  63.3129829  85.6235852   1.5893922  63.5162704
  84.6028391   2.4904627  62.8544361  73.7538184   3.1045303  70.8867179
  73.6192652   2.3445703  70.3205177  73.3370246   3.8286202  70.4195968
  76.9107310   4.0014620  71.0985622  76.7939694   4.9460052  70.9964312
  76.0899756   3.6988181  71.4871421  77.9361824   4.6542881  74.3141551
  78.8389071   4.6866492  74.6308045  77.7099194   3.7243332  74.3287886
  79.6915426   3.4073868  70.9751629  78.7411057   3.4075730  70.8616001
  79.9947912   2.6606603  70.4587664  95.4268119   9.2434406  72.0397392
  96.0646529   9.1241154  71.3360732  95.3088962  10.1915250  72.0985344
  92.2357826   9.1961834  71.9758916  91.8976337   9.0802899  71.0879451
  93.1047594   8.7953000  71.9559922  88.0944641  11.0497311  67.9655807
  87.5309507  10.9587248  67.1972095  87.9797037  10.2297215  68.4458300
  92.7177609  10.3496686  77.9345122  92.7066250   9.9549484  77.0625625
  92.8798248   9.6162759  78.5278893  85.6409073  12.5448502  70.8040028
  86.4330365  12.2039327  70.3886327  85.8805724  12.6543478  71.7242181
  93.6744200  14.7168279  63.2770272  93.0232180  15.3022359  62.8904286
  94.4688563  15.2474473  63.3365310  87.5999827  11.8057416  63.6757406
  88.3730703  11.2586403  63.5370282  87.9525226  12.6701665  63.8871868
  89.4384870  13.1333798  76.8824306  89.1474736  14.0379429  76.7670972
  90.0741854  13.1750326  77.5968375  90.3641077  10.5110647  73.4725665
  90.9604649  10.2866669  72.7582628  90.4216048   9.7695392  74.0751113
  89.9366105   7.9650082  61.3075856  90.1891626   7.4431603  60.5459319
  88.9990664   7.8016227  61.4102540  94.9809388   6.9685860  69.1150600
  95.7672477   6.5505283  68.7641017  95.2448092   7.8731952  69.2832248
  95.1519465  12.4058711  63.8139256  94.5165298  12.4793337  64.5260161
  94.8216872  12.9952309  63.1358336  89.6562394   9.8678188  63.5100231
  89.5398652   9.1923091  64.1781316  89.7664654   9.3810562  62.6932384
  91.9993935   9.3288335  67.2146921  91.6352142   8.8018956  67.9259842
  92.8561051   8.9386804  67.0413406  91.6399422   4.3578235  62.2108269
  91.8073824   5.2258471  62.5778740  91.4496591   4.5205516  61.2869558
  94.3974755  12.8195214  73.8774099  94.0975478  13.7220252  73.7689907
  94.0525814  12.5527397  74.7295252  87.8487236   9.2709010  69.9110804
  86.9237733   9.1385224  70.1188496  88.0971650  10.0503230  70.4080746
  91.6188643   6.8135892  63.1954936  91.4988268   7.2592943  64.0340416
  90.9241231   7.1621210  62.6368474  85.2096047   8.9142284  70.7454593
  85.3388429   9.1676763  71.6594005  84.5293499   9.5069992  70.4259248
  89.3795535  19.5839534  66.8445067  89.3019564  20.5347359  66.9233548
  88.7757178  19.2385406  67.5019993  91.8712765   6.7567399  79.5006434
  91.0946099   7.3161319  79.4909299  92.5103328   7.2424182  80.0221304
  97.3173709   7.2857365  64.0235270  98.2291565   7.5184752  63.8482967
  96.8083356   7.8694409  63.4610349  90.1259137   9.5652853  79.0624401
  90.8673821  10.1037897  78.7859225  89.4196122  10.1919141  79.2195953
  95.6014476  11.7081993  77.6596563  96.0097833  11.2664404  76.9151195
  94.8791738  11.1334621  77.9130755  91.9545547   6.6454600  75.0330119
  92.8006742   7.0694013  75.1764768  91.8944184   5.9888224  75.7268683
  95.9243291  12.2683184  71.4148851  95.2952154  12.4328898  70.7124919
  95.5368953  12.6824793  72.1859815  99.8032523  13.2037622  68.7693215
  99.1183561  13.5836523  68.2190248  99.8876372  13.8132948  69.5025163
  97.0583455  10.8497581  75.3688559  97.2700350  11.4929340  74.6922940
  97.0113203  10.0159897  74.9010489  91.4771253  12.0057592  68.6798936
  91.9409599  12.2845295  67.8903559  91.2128051  11.1041036  68.4972027
  88.3695334  11.5529073  71.6178700  88.9396691  11.9816342  70.9796184
  88.9603446  11.2711658  72.3162885  90.4140139   8.1280744  65.4888502
  91.1164182   8.5801788  65.9562428  90.0820768   7.4864563  66.1168395
  88.8620501   6.7192501  79.8639711  88.2319161   7.4008782  80.0975108
  88.7556588   6.6075582  78.9192849  84.1565473   6.3864297  70.7905635
  83.3664527   6.6421825  70.3145746  84.6476720   7.2012635  70.8957676
  98.1729283  13.7269536  73.5410916  98.9946726  13.3249723  73.2593598
  98.1691685  13.6237770  74.4927032  86.1080218   6.7508876  67.7489112
  85.3111382   6.8627570  68.2672608  85.8805811   7.0895528  66.8830002
  91.9385886  13.2753579  75.6971627  92.0030319  13.7373987  76.5329798
  91.2296810  12.6450944  75.8253936  82.4403176   6.6394787  73.2220626
  82.6911214   7.5241797  73.4878202  82.9762724   6.4599389  72.4495718
 106.2635276  10.0708285  69.8895887 105.5098984   9.5015683  69.7339892
 106.3982817  10.0370949  70.8366522  91.6533904  14.9421687  65.5650607
  91.5179578  15.7873223  65.9935455  92.1943716  15.1440964  64.8016541
  85.1063301  12.4597125  66.1378532  85.6187822  13.2540375  66.2884097
  85.7586014  11.7623415  66.0712133  86.9158186  15.5762881  68.2201285
  87.0924814  16.4980846  68.0322269  87.7115019  15.2621300  68.6495665
  86.2010542   7.6227513  78.0963448  86.0864057   6.7212770  78.3970547
  85.3455060   7.8691210  77.7448265  93.2802380  15.5645253  79.6950949
  92.8366234  14.7781632  79.3771853  93.9419594  15.7524404  79.0294840
  88.0389501  17.0941055  74.2211627  88.5896926  16.9658118  73.4488621
  87.2000977  17.3935944  73.8706520  95.3783618  15.8448053  77.7232350
  95.3602093  16.6656934  77.2312619  96.3003538  15.7202128  77.9482491
  91.8356672  13.3592183  78.5655859  92.3685009  12.5980471  78.3355167
  91.3070753  13.0665835  79.3080013  83.0712218  10.7885779  66.9138102
  83.9087440  11.1982788  66.6971810  83.2490486   9.8485221  66.8838296
  94.9676650   8.4560860  62.6021935  94.4523273   9.2265464  62.8410323
  94.6953958   7.7825996  63.2254997  99.9410924  11.2093214  64.5375109
  99.1640367  10.8704374  64.0930271 100.6202405  11.2145838  63.8630074
  94.7562953   6.3287952  64.4281717  94.4513089   6.6434101  65.2791860
  95.7093395   6.4069372  64.4709050  93.2009385  12.4878175  66.0774671
  92.6730747  11.7530935  65.7647908  92.6996888  13.2652852  65.8314639
  98.1802231  10.6827196  71.1941717  97.5225905  11.3726457  71.2821846
  98.9842630  11.0723628  71.5375703  87.9328113   3.1497841  68.4381282
  88.5071865   2.9273023  67.7054475  88.5199095   3.2186536  69.1909883
  96.9907690   9.0371568  69.2445659  97.5039572   9.6701560  69.7467368
  97.6408914   8.4372764  68.8789019  88.2597700   5.1802303  62.4577167
  87.4235012   5.5176989  62.7786442  88.1202469   5.0451282  61.5204304
  91.3461985  10.3058385  59.0809644  90.4389047  10.0747639  59.2800793
  91.8433017   9.5096005  59.2683625  94.2530064  19.0155893  62.0006330
  93.5791763  19.3187589  62.6091288  94.6395886  19.8184973  61.6511787
  93.4688521   6.5121024  71.4903999  92.5511082   6.7335971  71.3325687
  93.8848664   6.5867334  70.6315706  94.2523568   7.9112440  66.6206679
  94.9995387   8.4233837  66.3113801  94.5215158   7.5896492  67.4811073
  92.5250219  10.4070980  63.6033634  91.6161438  10.1230013  63.7006103
  92.5545302  10.8270059  62.7436941  97.7569486  14.0177570  67.3724801
  97.3031813  13.1768480  67.4289992  97.1263453  14.6538968  67.7099581
  96.2002425  15.8554067  68.3074619  96.4925400  16.4159124  67.5886985
  96.7101046  16.1482628  69.0627779  83.0938389   8.1276494  67.5848836
  82.8962789   7.5345855  66.8599902  82.5385053   7.8228705  68.3024775
  91.0735113   8.0199601  69.7043429  91.1283722   7.0673437  69.6285906
  90.2626315   8.1759040  70.1884727  92.2226306  11.9479724  60.9421712
  91.7845736  11.2315583  60.4827350  92.9636747  12.1755839  60.3806804
  89.0127473   6.6376661  67.4633808  88.1995338   6.9370831  67.8699000
  89.5086467   6.2432349  68.1808290  91.1636050  16.6334418  69.3968073
  91.1212229  16.8595264  68.4676605  92.0798749  16.3997792  69.5453874
  94.6101684   7.1018485  76.2948702  94.9651072   7.3289958  77.1543168
  95.2573815   7.4336862  75.6725957 100.3399421  10.2236921  66.9998031
 100.2017320  10.4138517  66.0719220  99.9835640  10.9856304  67.4566082
  88.5041547   4.2095016  73.0795043  89.1440927   4.0683775  72.3818006
  87.6719078   3.9229530  72.7033645 100.3668801  12.2913448  72.0109302
 100.8005307  12.1988737  72.8592356 101.0800382  12.2670949  71.3729318
  89.2801851  13.5097447  69.1930035  90.0742450  13.0147767  68.9912610
  88.5693544  12.9815310  68.8297741  94.0996696  15.8915542  73.5442403
  94.1533718  16.4606478  74.3120119  93.2311477  16.0617427  73.1796440
  85.5884615   7.6540528  65.2689788  84.6582203   7.5924984  65.4859750
  85.6842087   7.1316481  64.4726429  85.5070164   4.1795341  67.8568030
  85.7676981   5.0940674  67.7477190  86.3287336   3.7119784  68.0064642
  86.9795089   5.5933098  75.0266854  87.6518143   5.3850460  74.3779503
  86.1524876   5.3955184  74.5872086 101.2284350  12.3337149  74.5442188
 101.4220240  13.2382959  74.7901463 101.1284969  11.8744568  75.3780773
  96.2899459  12.4843891  80.1183068  96.1384965  12.2554443  79.2013152
  96.2804139  13.4414493  80.1314413  93.0584795  10.0575804  75.1029335
  93.9876855  10.2086964  74.9298302  92.6375825  10.1459825  74.2477981
  91.8573127  14.0826469  72.8727872  91.7184213  13.7145253  73.7453811
  91.0687723  14.5974108  72.7011830  92.4521279  19.1835565  64.2153409
  92.6273035  18.7123608  65.0299032  91.7654067  19.8101331  64.4434670
  93.4078342  13.4608071  70.2616710  93.0728175  13.4208841  71.1574360
  92.9082288  12.7952787  69.7887120  87.3822586   8.8675701  75.7869291
  87.2442384   8.1355940  76.3880830  88.2927510   8.7784601  75.5053479
  96.3437534  10.8064106  60.5353770  95.7266705  10.0810934  60.4386823
  95.8754022  11.5673466  60.1920844  90.0104887   8.5795661  75.2752971
  90.7204506   7.9388853  75.2339589  89.9674195   8.8308556  76.1979152
  97.9991666  15.5163014  78.1959550  97.9404212  14.8322234  77.5290133
  98.4011184  16.2582004  77.7440176  88.7233821   5.5660879  77.0948610
  88.1871178   5.1151617  77.7470207  88.1350529   5.7006787  76.3519075
  87.0182364  22.3324928  70.9893269  87.2578963  22.9643452  71.6672288
  86.1751561  21.9812968  71.2758628  88.1336080   5.0249530  59.6575074
  87.2565546   4.9038331  59.2937321  88.6093833   4.2335608  59.4053963
  98.0009073  13.4802598  76.4273530  97.1135852  13.1428520  76.5499929
  98.5707624  12.7485629  76.6642295  79.6538220   9.8126690  69.7516581
  80.3409260   9.4988420  69.1637597  79.4986349  10.7168054  69.4783833
  84.4572942   4.7016886  74.1801605  84.3731131   4.0942556  73.4452015
  83.6355649   5.1925905  74.1811101  91.5310226  18.1404050  73.3934773
  91.4580398  18.9459022  73.9054078  91.0887619  18.3396016  72.5682794
  91.3200006  17.3775820  66.9037595  90.5367528  17.9197501  66.9975819
  92.0192751  17.8949800  67.3031836 102.4826413   8.8910815  71.1890092
 102.4716290   9.7735531  70.8184025 101.6143793   8.5382366  70.9944629
  93.9908910  18.0390884  75.5492932  94.7036882  18.6738349  75.4768833
  93.4998939  18.1354750  74.7332934  95.7126437  11.9442137  67.1210223
  94.7782716  12.0643599  66.9514928  95.8903105  11.0414604  66.8570233
  91.2131625   5.3287833  69.2743485  90.8429412   4.7758873  69.9624390
  91.7090717   4.7245966  68.7218485  99.0998988   7.7859456  67.6560258
  99.5659440   8.6187448  67.5820560  99.5506489   7.3204438  68.3605516
  89.0420823  15.7885328  76.3698503  89.7430283  16.4221811  76.5227897
  88.5715938  16.1300059  75.6094142  97.1675219  14.1303278  64.6546410
  97.4435063  14.0159872  65.5640284  96.2979718  13.7320762  64.6158583
  96.8422109   8.3429935  74.1951053  96.1893560   8.5905843  73.5403506
  97.2202489   7.5294073  73.8613530  93.8029283  18.3789628  68.2979223
  93.9851678  17.5611284  68.7606976  94.6262269  18.5957321  67.8604113
  94.1371449  17.3057814  65.5594272  94.6659215  16.7950268  64.9464434
  94.3999668  16.9900344  66.4239805  92.8909682   9.0849746  80.6817090
  92.2150319   8.9843876  81.3519465  93.7137316   8.9288960  81.1453087
  84.6388541  15.3221683  73.3029605  85.2241978  14.5765371  73.4357509
  84.4413380  15.6325640  74.1866269  87.4927197  18.3572930  68.3192048
  86.8237572  18.8419058  67.8356088  87.3540066  18.6042151  69.2335426
  79.2306196   7.8927283  72.0234048  79.2690296   7.3590874  72.8171167
  78.7246489   7.3662489  71.4045026  91.6332465  20.3916674  74.9174706
  92.1850773  20.5548295  75.6823791  91.9738659  20.9821112  74.2454731
  86.6096959   2.7391824  75.5196591  86.6738285   3.6006654  75.1073988
  86.5464079   2.1265825  74.7868949  86.0849231   4.8114956  79.1669625
  86.7121270   4.4292033  79.7807149  85.2277150   4.5929158  79.5325317
  96.4843340  15.2177931  80.7723360  97.0283244  15.8307890  80.2778315
  95.9030184  15.7757510  81.2890373  82.8614774   6.6191385  65.0987980
  83.1568215   5.7102064  65.0455033  81.9602810   6.5979125  64.7768982
  94.7700853  18.3398649  71.9038388  94.6451992  17.5388389  71.3949334
  95.4279944  18.8344843  71.4152358  86.3909021   4.6947382  71.0815528
  85.6695607   5.3083349  70.9423002  87.1802277   5.2305147  71.0032174
  96.8335761  16.1407669  73.5317938  95.8866096  16.0213021  73.4596265
  97.1818534  15.2530167  73.6144200  84.5902615   4.3005483  65.2227305
  84.2615322   3.4202862  65.0402411  84.9441986   4.2453152  66.1103694
  93.8382194  15.9360386  69.7322290  93.6907157  15.0077093  69.9129861
  94.6635688  15.9580476  69.2479366  87.7044439   4.5878453  65.5902783
  88.0440511   5.1164374  64.8681391  88.1516559   4.9258859  66.3661349
  97.4416316  16.7588944  70.8187163  98.3662864  16.5531806  70.6811614
  97.2731619  16.5105345  71.7276505  89.6912586   3.0853074  63.7896075
  90.4120948   3.4634327  63.2859792  89.0677890   3.8041951  63.8931053
  88.5742930   6.7483936  71.3025152  88.4287511   7.0624240  72.1949434
  88.0968134   7.3668837  70.7496051  92.2865444   4.1723825  73.3959169
  92.0283221   5.0940895  73.3943500  91.7550484   3.7754259  74.0859633
  97.2311632  17.2774612  66.1749255  97.4048510  16.7121034  65.4223107
  97.7240524  18.0775507  65.9928745  83.0488592   9.2889281  74.2412813
  82.5042060  10.0649089  74.3733088  83.9267942   9.6360085  74.0831935
 103.0851023  10.0411035  67.7939554 103.5282169   9.2918360  67.3958678
 102.2077534  10.0321171  67.4113286  98.2186805  16.5941376  63.2746153
  98.9137709  17.2148069  63.4933468  98.5609955  15.7436727  63.5498531
  83.8354614   8.4159177  77.1342970  83.0936350   8.5641812  77.7207601
  83.5147358   8.6767443  76.2709720 100.1178228  14.0441082  64.8033484
 100.6429552  14.3828354  64.0782804 100.0300580  13.1088097  64.6196618
  91.7798277  17.9575155  76.9323360  92.0885403  17.7124302  77.8046060
  92.5773759  18.1621794  76.4442231  91.8018889  20.1113065  69.1628737
  91.3623879  19.6189444  69.8561594  92.5527006  19.5686033  68.9220812
  84.2811228  16.3024606  69.1653365  85.1069248  16.0028378  68.7852009
  83.9305280  15.5332228  69.6143154  89.2492761  15.6551074  71.2351039
  88.6272770  14.9921779  70.9353266  89.9197628  15.6812206  70.5524686
  82.4819833  14.2210932  70.1242299  81.6451741  13.7933107  69.9426300
  82.4543478  14.4143376  71.0613090  89.3217288   4.1332862  80.8283545
  89.3705444   5.0094985  80.4461314  89.8639802   3.5910255  80.2555188
  99.8072134  14.6773985  80.1084682  99.0167678  14.6598124  79.5689181
  99.5705489  15.2162279  80.8633718  99.9270009  11.5266452  77.4217410
  99.9768014  11.3616459  78.3632933  99.8183932  10.6593711  77.0315291
  88.8106268  14.2054997  64.7109499  88.9594388  14.8890462  64.0576172
  89.6172711  14.1860087  65.2258955  97.2173771   7.5097380  78.7376717
  98.1183634   7.3703845  78.4460715  97.2921746   7.6751835  79.6774894
  91.5516577   4.8864234  77.5829903  90.6819886   5.1797801  77.3112492
  91.7876057   5.4704679  78.3037167 101.4288206  13.9463393  77.6659432
 101.1373014  14.3093374  78.5022893 100.8160337  13.2330402  77.4872764
 102.6283888  11.5116273  70.1862002 103.4630780  11.9506077  70.3499562
 102.7643017  11.0354926  69.3670248  99.6775394   9.0696008  76.1339490
 100.1529516   9.2623654  75.3258341  98.7540959   9.1255194  75.8882873
  86.5658901  10.2320175  65.7170568  86.3204943   9.3282505  65.9150778
  86.7354815  10.2337325  64.7750046  85.8354548   5.9648533  63.2156730
  85.1423793   6.0392888  62.5596765  85.5906300   5.2008876  63.7378246
  92.3101673  16.7003128  62.1821247  91.7375640  17.3193315  61.7291718
  92.8834467  17.2502490  62.7161169  95.5298933  16.9840278  63.3129829
  96.4629606  16.9185840  63.5162704  95.4422146  17.8196545  62.8544361
  98.1586950  16.3006148  60.2733776  98.0800581  15.9666012  61.1669534
  98.9796616  16.7927916  60.2725249 100.8565141   9.1667888  73.4810095
 100.8241461   8.2283888  73.6669779 101.4665765   9.2451924  72.7475920
  92.6948472   8.0363941  59.5237299  93.6407576   7.9070149  59.5925717
  92.3162717   7.2978603  60.0006727 106.6741691  10.2283894  72.6216132
 107.4045079   9.9669183  73.1823835 106.0648636   9.4912616  72.6618200
 104.7556988   8.3691757  73.2190583 104.0290151   8.2347722  72.6107075
 104.3404275   8.6768586  74.0247301  92.5787164  12.0881687  80.9837956
  93.4990174  12.2660286  81.1778003  92.5436747  11.1437732  80.8317655
  90.8791389   5.9613917  59.4592184  89.9722844   5.6647030  59.5354898
  91.1567370   5.6643735  58.5926471  81.7969329   7.2820280  69.9091231
  81.4772114   6.4285589  69.6165605  81.2502757   7.4968859  70.6649198
  85.5749237   9.9982721  73.6260737  85.7935247  10.9299829  73.6448771
  85.9875011   9.6390696  74.4115541  90.4477102   5.5715927  83.0163486
  90.3473829   6.5210284  82.9475577  90.2298644   5.2434166  82.1439556
  81.6657589  10.9023192  71.8784352  80.9721061  10.4877145  71.3654307
  82.4130580  10.9443728  71.2817771  90.3108372   9.0013066  81.8328548
  89.8275454   9.8013426  82.0392437  90.3969311   9.0121011  80.8795992
  83.5794332  10.8341446  69.7550367  83.5565020  10.9329133  68.8032250
  83.8894968  11.6806596  70.0767533  86.2381710  12.8917601  73.8696982
  87.1924963  12.8601543  73.8026913  86.0394233  12.4308224  74.6847207
  86.8281092  11.4618717  76.4367779  87.6473981  11.9562795  76.4602617
  87.1017900  10.5450685  76.4085347  84.5931938  18.4337220  70.8867179
  84.4586406  17.6737621  70.3205177  84.1764001  19.1578120  70.4195968
  95.7290901  13.6174144  59.8943755  96.4326752  13.8224146  60.5101410
  95.0053550  14.1850906  60.1592838  96.5588712   9.3684005  66.0146025
  96.5023913   9.8252556  65.1753657  97.1117054   8.6074690  65.8368868
  87.7501064  19.3306537  71.0985622  87.6333448  20.2751970  70.9964312
  86.9293511  19.0280099  71.4871421  97.6377599  14.0556673  61.9442215
  98.4723203  13.6237871  61.7619690  97.4761942  13.8838687  62.8719109
  97.2923491  10.5588786  63.3098554  97.2372295  10.3933058  62.3686998
  96.6669546  11.2664819  63.4660744  82.0816006   5.7956851  77.1359976
  82.7274870   5.2855805  77.6247201  81.8733157   6.5325532  77.7103402
  94.6069398  12.8637698  82.6352117  95.4760558  13.0378350  82.2738752
  94.1276150  13.6832115  82.5127846  88.7755578  19.9834799  74.3141551
  89.6782825  20.0158409  74.6308045  88.5492949  19.0535250  74.3287886
  90.5309180  18.7365786  70.9751629  89.5804811  18.7367647  70.8616001
  90.8341667  17.9898520  70.4587664  86.4213497   2.9424468  81.2334991
  87.2844959   2.5861273  81.4438315  85.8478908   2.6038363  81.9210395
 106.2661874  24.5726324  72.0397392 106.9040284  24.4533071  71.3360732
 106.1482717  25.5207168  72.0985344 103.0751580  24.5253752  71.9758916
 102.7370092  24.4094817  71.0879451 103.9441348  24.1244917  71.9559922
  98.9338396  26.3789229  67.9655807  98.3703261  26.2879165  67.1972095
  98.8190791  25.5589133  68.4458300 103.5571363  25.6788604  77.9345122
 103.5460004  25.2841402  77.0625625 103.7192003  24.9454676  78.5278893
  96.4802828  27.8740420  70.8040028  97.2724120  27.5331245  70.3886327
  96.7199478  27.9835395  71.7242181 104.5137955  30.0460196  63.2770272
 103.8625934  30.6314277  62.8904286 105.3082317  30.5766391  63.3365310
  98.4393582  27.1349333  63.6757406  99.2124458  26.5878320  63.5370282
  98.7918981  27.9993583  63.8871868 100.2778624  28.4625716  76.8824306
  99.9868490  29.3671347  76.7670972 100.9135609  28.5042243  77.5968375
 101.2034831  25.8402564  73.4725665 101.7998403  25.6158587  72.7582628
 101.2609803  25.0987310  74.0751113 100.7759860  23.2942000  61.3075856
 101.0285380  22.7723521  60.5459319  99.8384419  23.1308145  61.4102540
 105.8203142  22.2977778  69.1150600 106.6066232  21.8797201  68.7641017
 106.0841847  23.2023870  69.2832248 105.9913220  27.7350628  63.8139256
 105.3559053  27.8085255  64.5260161 105.6610626  28.3244227  63.1358336
 111.2211570  22.2353011  70.0183578 111.9536742  21.6652228  70.2521408
 110.4650925  21.8474612  70.4590084 100.4956148  25.1970105  63.5100231
 100.3792406  24.5215009  64.1781316 100.6058408  24.7102479  62.6932384
 102.8387689  24.6580253  67.2146921 102.4745897  24.1310874  67.9259842
 103.6954805  24.2678722  67.0413406 108.7436990  15.9474585  74.4778187
 108.4120315  16.8169996  74.2539402 108.1482603  15.6310869  75.1572217
 102.4793176  19.6870152  62.2108269 102.6467579  20.5550389  62.5778740
 102.2890345  19.8497434  61.2869558 105.2368509  28.1487131  73.8774099
 104.9369233  29.0512170  73.7689907 104.8919569  27.8819314  74.7295252
  98.6880991  24.6000928  69.9110804  97.7631487  24.4677142  70.1188496
  98.9365404  25.3795147  70.4080746 108.6365653  20.6669671  71.5571537
 107.7282531  20.5985080  71.2630298 108.5853249  21.1441616  72.3853362
 102.4582397  22.1427810  63.1954936 102.3382022  22.5884861  64.0340416
 101.7634986  22.4913127  62.6368474  96.0489802  24.2434202  70.7454593
  96.1782183  24.4968680  71.6594005  95.3687253  24.8361910  70.4259248
 100.2189289  34.9131452  66.8445067 100.1413319  35.8639277  66.9233548
  99.6150933  34.5677324  67.5019993 102.7106519  22.0859317  79.5006434
 101.9339853  22.6453237  79.4909299 103.3497082  22.5716100  80.0221304
 110.5027300  18.8686110  73.3349411 109.8601680  19.1618643  72.6889205
 109.9982228  18.7539030  74.1402607 108.1567463  22.6149283  64.0235270
 109.0685319  22.8476670  63.8482967 107.6477110  23.1986327  63.4610349
 100.9652891  24.8944770  79.0624401 101.7067576  25.4329814  78.7859225
 100.2589877  25.5211059  79.2195953 106.4408231  27.0373911  77.6596563
 106.8491587  26.5956321  76.9151195 105.7185492  26.4626538  77.9130755
 102.7939301  21.9746518  75.0330119 103.6400496  22.3985931  75.1764768
 102.7337939  21.3180142  75.7268683 106.7637046  27.5975101  71.4148851
 106.1345908  27.7620816  70.7124919 106.3762708  28.0116711  72.1859815
 110.6426278  28.5329539  68.7693215 109.9577316  28.9128441  68.2190248
 110.7270127  29.1424866  69.5025163 105.9438746  19.6350886  76.6911293
 105.6999678  20.3892946  76.1545569 106.2198677  20.0136234  77.5258540
 107.8977209  26.1789498  75.3688559 108.1094104  26.8221258  74.6922940
 107.8506957  25.3451815  74.9010489 105.5003438  18.7907319  72.2725131
 104.6387917  19.0888572  72.5641868 105.5265873  19.0077718  71.3406163
 102.3165008  27.3349509  68.6798936 102.7803353  27.6137212  67.8903559
 102.0521806  26.4332954  68.4972027  99.2089089  26.8820991  71.6178700
  99.7790446  27.3108259  70.9796184  99.7997200  26.6003576  72.3162885
 101.2533894  23.4572662  65.4888502 101.9557937  23.9093706  65.9562428
 100.9214522  22.8156481  66.1168395  99.7014255  22.0484418  79.8639711
  99.0712916  22.7300699  80.0975108  99.5950343  21.9367500  78.9192849
  94.9959228  21.7156215  70.7905635  94.2058282  21.9713743  70.3145746
  95.4870475  22.5304552  70.8957676 109.0123037  29.0561454  73.5410916
 109.8340481  28.6541641  73.2593598 109.0085440  28.9529688  74.4927032
  96.9473973  22.0800794  67.7489112  96.1505136  22.1919488  68.2672608
  96.7199565  22.4187446  66.8830002 102.7779641  28.6045497  75.6971627
 102.8424073  29.0665904  76.5329798 102.0690564  27.9742862  75.8253936
  93.2796931  21.9686705  73.2220626  93.5304969  22.8533715  73.4878202
  93.8156479  21.7891307  72.4495718 117.1029030  25.4000202  69.8895887
 116.3492739  24.8307600  69.7339892 117.2376571  25.3662867  70.8366522
 102.4927658  30.2713604  65.5650607 102.3573333  31.1165140  65.9935455
 103.0337471  30.4732882  64.8016541  98.9794998  16.3505184  82.2264962
  98.5861943  15.7971383  82.9012606  99.7961138  16.6615763  82.6171480
  95.9457056  27.7889043  66.1378532  96.4581576  28.5832293  66.2884097
  96.5979768  27.0915333  66.0712133  97.7551940  30.9054799  68.2201285
  97.9318569  31.8272763  68.0322269  98.5508774  30.5913218  68.6495665
 101.8962959  17.7663063  79.8185219 102.6372672  18.3670217  79.7389681
 102.1280882  17.0240701  79.2603261  97.0404297  22.9519431  78.0963448
  96.9257812  22.0504688  78.3970547  96.1848815  23.1983127  77.7448265
 104.1196135  30.8937171  79.6950949 103.6759989  30.1073550  79.3771853
 104.7813348  31.0816321  79.0294840  98.8783256  32.4232973  74.2211627
  99.4290681  32.2950036  73.4488621  98.0394732  32.7227862  73.8706520
 106.2177373  31.1739971  77.7232350 106.1995848  31.9948852  77.2312619
 107.1397293  31.0494046  77.9482491 102.6750427  28.6884100  78.5655859
 103.2078764  27.9272389  78.3355167 102.1464508  28.3957752  79.3080013
 105.8420122  13.7944166  74.0949500 105.4984391  14.6845808  74.0188611
 106.2099084  13.6045824  73.2319085  93.9105972  26.1177697  66.9138102
  94.7481194  26.5274705  66.6971810  94.0884240  25.1777139  66.8838296
 105.8070404  23.7852777  62.6021935 105.2917028  24.5557382  62.8410323
 105.5347713  23.1117914  63.2254997 103.3917516  18.6302478  67.6607174
 102.5359112  18.2409329  67.4812812 103.8044467  18.7094439  66.8006959
 104.9216662  16.1648822  72.0598734 104.4181458  16.1278957  71.2466539
 105.2147269  17.0741564  72.1195390 101.1659548  16.2487551  71.0664915
 102.0312545  16.0530360  70.7070805 101.2337057  16.0197903  71.9934272
 110.7804679  26.5385132  64.5375109 110.0034121  26.1996292  64.0930271
 111.4596160  26.5437755  63.8630074 105.5956708  21.6579870  64.4281717
 105.2906843  21.9726019  65.2791860 106.5487150  21.7361289  64.4709050
 104.0403139  27.8170093  66.0774671 103.5124501  27.0822852  65.7647908
 103.5390642  28.5944769  65.8314639 109.0195986  26.0119113  71.1941717
 108.3619660  26.7018375  71.2821846 109.8236385  26.4015545  71.5375703
  98.7721867  18.4789759  68.4381282  99.3465619  18.2564941  67.7054475
  99.3592850  18.5478454  69.1909883 107.8301444  24.3663486  69.2445659
 108.3433326  24.9993478  69.7467368 108.4802668  23.7664682  68.8789019
  99.0991454  20.5094220  62.4577167  98.2628766  20.8468907  62.7786442
  98.9596224  20.3743200  61.5204304 101.0744535  15.3531008  67.1656352
 100.4208947  15.0380025  66.5412966 101.0325009  14.7306749  67.8916174
 102.1855740  25.6350303  59.0809644 101.2782801  25.4039557  59.2800793
 102.6826772  24.8387922  59.2683625 105.0923819  34.3447810  62.0006330
 104.4185517  34.6479507  62.6091288 105.4789641  35.1476891  61.6511787
 104.3082275  21.8412942  71.4903999 103.3904837  22.0627889  71.3325687
 104.7242419  21.9159252  70.6315706 105.0917323  23.2404357  66.6206679
 105.8389142  23.7525755  66.3113801 105.3608912  22.9188410  67.4811073
 103.3643973  25.7362898  63.6033634 102.4555192  25.4521931  63.7006103
 103.3939057  26.1561977  62.7436941 108.5963241  29.3469488  67.3724801
 108.1425568  28.5060397  67.4289992 107.9657207  29.9830886  67.7099581
 107.5396160  20.2761474  68.6025469 106.8018917  19.7638860  68.9335711
 107.7922934  19.8361855  67.7908746 107.0396180  31.1845984  68.3074619
 107.3319154  31.7451041  67.5886985 107.5494800  31.4774545  69.0627779
 107.6407787  13.0537726  69.1967238 107.9466664  12.1935089  68.9093153
 108.3660392  13.6455346  68.9966232  93.9332143  23.4568412  67.5848836
  93.7356543  22.8637773  66.8599902  93.3778807  23.1520622  68.3024775
 101.9128867  23.3491519  69.7043429 101.9677477  22.3965355  69.6285906
 101.1020069  23.5050958  70.1884727 103.0620061  27.2771642  60.9421712
 102.6239491  26.5607501  60.4827350 103.8030502  27.5047757  60.3806804
  99.8521227  21.9668578  67.4633808  99.0389093  22.2662749  67.8699000
 100.3480221  21.5724267  68.1808290 102.0029805  31.9626335  69.3968073
 101.9605984  32.1887182  68.4676605 102.9192504  31.7289710  69.5453874
 105.4495439  22.4310403  76.2948702 105.8044826  22.6581876  77.1543168
 106.0967570  22.7628780  75.6725957 111.1793176  25.5528839  66.9998031
 111.0411074  25.7430435  66.0719220 110.8229395  26.3148222  67.4566082
  99.3435302  19.5386934  73.0795043  99.9834681  19.3975693  72.3818006
  98.5112832  19.2521447  72.7033645 111.2062555  27.6205366  72.0109302
 111.6399062  27.5280655  72.8592356 111.9194136  27.5962866  71.3729318
 100.1195606  28.8389364  69.1930035 100.9136204  28.3439684  68.9912610
  99.4087298  28.3107227  68.8297741 104.9390450  31.2207460  73.5442403
 104.9927472  31.7898396  74.3120119 104.0705232  31.3909345  73.1796440
  96.4278369  22.9832446  65.2689788  95.4975957  22.9216902  65.4859750
  96.5235841  22.4608399  64.4726429  96.3463918  19.5087259  67.8568030
  96.6070736  20.4232592  67.7477190  97.1681091  19.0411701  68.0064642
  97.8188844  20.9225016  75.0266854  98.4911897  20.7142378  74.3779503
  96.9918630  20.7247102  74.5872086 112.0678105  27.6629066  74.5442188
 112.2613995  28.5674877  74.7901463 111.9678723  27.2036485  75.3780773
 103.7214416  17.5486957  77.0432515 103.0742331  18.2476907  76.9496991
 104.4915431  17.9823101  77.4108763 107.1293214  27.8135809  80.1183068
 106.9778720  27.5846361  79.2013152 107.1197893  28.7706411  80.1314413
 103.8978550  25.3867722  75.1029335 104.8270610  25.5378881  74.9298302
 103.4769580  25.4751743  74.2477981 102.6966882  29.4118386  72.8727872
 102.5577967  29.0437171  73.7453811 101.9081478  29.9266026  72.7011830
 103.2915034  34.5127483  64.2153409 103.4666789  34.0415526  65.0299032
 102.6047822  35.1393249  64.4434670 104.2472097  28.7899989  70.2616710
 103.9121929  28.7500759  71.1574360 103.7476043  28.1244705  69.7887120
  98.2216341  24.1967619  75.7869291  98.0836139  23.4647858  76.3880830
  99.1321264  24.1076519  75.5053479 107.1831289  26.1356023  60.5353770
 106.5660459  25.4102851  60.4386823 106.7147777  26.8965384  60.1920844
 100.8498642  23.9087578  75.2752971 101.5598260  23.2680771  75.2339589
 100.8067950  24.1600473  76.1979152 108.8385420  30.8454932  78.1959550
 108.7797966  30.1614152  77.5290133 109.2404939  31.5873922  77.7440176
  99.5627575  20.8952796  77.0948610  99.0264933  20.4443535  77.7470207
  98.9744284  21.0298705  76.3519075  97.8576119  37.6616846  70.9893269
  98.0972717  38.2935370  71.6672288  97.0145315  37.3104886  71.2758628
  98.9729834  20.3541448  59.6575074  98.0959301  20.2330248  59.2937321
  99.4487588  19.5627526  59.4053963 108.8402827  28.8094516  76.4273530
 107.9529606  28.4720437  76.5499929 109.4101379  28.0777547  76.6642295
  90.4931975  25.1418607  69.7516581  91.1803014  24.8280337  69.1637597
  90.3380103  26.0459972  69.4783833  95.2966697  20.0308804  74.1801605
  95.2124885  19.4234473  73.4452015  94.4749403  20.5217822  74.1811101
 102.3703981  33.4695968  73.3934773 102.2974152  34.2750939  73.9054078
 101.9281374  33.6687934  72.5682794 102.1593760  32.7067738  66.9037595
 101.3761282  33.2489418  66.9975819 102.8586506  33.2241718  67.3031836
 105.4690411  18.5162367  69.5471800 105.9659110  17.7632330  69.2272870
 104.6977392  18.5526684  68.9815009 113.3220168  24.2202733  71.1890092
 113.3110044  25.1027448  70.8184025 112.4537547  23.8674284  70.9944629
 104.8302664  33.3682802  75.5492932 105.5430637  34.0030267  75.4768833
 104.3392693  33.4646668  74.7332934 106.5520191  27.2734055  67.1210223
 105.6176470  27.3935517  66.9514928 106.7296860  26.3706521  66.8570233
 102.0525379  20.6579750  69.2743485 101.6823167  20.1050791  69.9624390
 102.5484472  20.0537884  68.7218485 109.9392743  23.1151374  67.6560258
 110.4053195  23.9479366  67.5820560 110.3900243  22.6496356  68.3605516
  99.8814578  31.1177245  76.3698503 100.5824037  31.7513728  76.5227897
  99.4109693  31.4591977  75.6094142 108.0068974  29.4595195  64.6546410
 108.2828818  29.3451790  65.5640284 107.1373472  29.0612680  64.6158583
 107.9109405  15.4831961  71.6951159 106.9972485  15.7136188  71.8633366
 108.3402507  15.5670405  72.5465191 107.6815864  23.6721853  74.1951053
 107.0287314  23.9197760  73.5403506 108.0596244  22.8585991  73.8613530
 104.6423038  33.7081546  68.2979223 104.8245432  32.8903202  68.7606976
 105.4656024  33.9249238  67.8604113 104.9765203  32.6349731  65.5594272
 105.5052970  32.1242186  64.9464434 105.2393423  32.3192261  66.4239805
 103.7303437  24.4141664  80.6817090 103.0544074  24.3135793  81.3519465
 104.5531071  24.2580878  81.1453087  95.4782296  30.6513601  73.3029605
  96.0635733  29.9057288  73.4357509  95.2807134  30.9617557  74.1866269
  98.3320951  33.6864848  68.3192048  97.6631326  34.1710976  67.8356088
  98.1933821  33.9334068  69.2335426  90.0699951  23.2219201  72.0234048
  90.1084050  22.6882791  72.8171167  89.5640244  22.6954406  71.4045026
 102.4726220  35.7208591  74.9174706 103.0244528  35.8840213  75.6823791
 102.8132413  36.3113029  74.2454731  97.4490713  18.0683741  75.5196591
  97.5132039  18.9298572  75.1073988  97.3857833  17.4557743  74.7868949
  96.9242986  20.1406874  79.1669625  97.5515024  19.7583951  79.7807149
  96.0670904  19.9221076  79.5325317 107.3237094  30.5469849  80.7723360
 107.8676998  31.1599807  80.2778315 106.7423939  31.1049427  81.2890373
  93.7008528  21.9483303  65.0987980  93.9961969  21.0393981  65.0455033
  92.7996564  21.9271042  64.7768982 105.6094607  33.6690567  71.9038388
 105.4845747  32.8680307  71.3949334 106.2673698  34.1636760  71.4152358
  97.2302775  20.0239299  71.0815528  96.5089361  20.6375267  70.9423002
  98.0196031  20.5597064  71.0032174 107.6729515  31.4699587  73.5317938
 106.7259851  31.3504938  73.4596265 108.0212289  30.5822085  73.6144200
 100.0329089  17.3593726  77.3556180 100.5563491  17.6056022  78.1182489
  99.8141422  18.1913761  76.9359317  95.4296370  19.6297401  65.2227305
  95.1009076  18.7494779  65.0402411  95.7835741  19.5745069  66.1103694
 104.6775949  31.2652303  69.7322290 104.5300911  30.3369011  69.9129861
 105.5029442  31.2872394  69.2479366  98.5438193  19.9170370  65.5902783
  98.8834266  20.4456292  64.8681391  98.9910313  20.2550776  66.3661349
 108.2810071  32.0880862  70.8187163 109.2056618  31.8823723  70.6811614
 108.1125374  31.8397263  71.7276505 101.2381634  18.3007421  75.0405851
 100.8978454  17.5015234  75.4426531 100.5320640  18.6009132  74.4682684
 101.8898106  15.3856733  73.4933174 102.7124175  14.9117212  73.3712064
 102.1336169  16.1647217  73.9931860 100.5306340  18.4144992  63.7896075
 101.2514703  18.7926245  63.2859792  99.9071644  19.1333869  63.8931053
 104.6737463  19.1190141  64.7254408 104.8901077  20.0014779  64.4243236
 104.1931530  18.7276354  63.9960050  99.4136684  22.0775854  71.3025152
  99.2681265  22.3916157  72.1949434  98.9361888  22.6960754  70.7496051
 101.2733067  19.0678402  71.3506042 101.2594636  18.1719495  71.0138340
 101.9905495  19.0749066  71.9844328 103.1259198  19.5015742  73.3959169
 102.8676976  20.4232813  73.3943500 102.5944238  19.1046177  74.0859633
 108.0705387  32.6066529  66.1749255 108.2442264  32.0412952  65.4223107
 108.5634278  33.4067424  65.9928745  93.8882347  24.6181199  74.2412813
  93.3435815  25.3941006  74.3733088  94.7661696  24.9652003  74.0831935
 100.6769963  17.9492782  66.6193612 100.7985874  17.0209429  66.8184500
 100.3872006  17.9631468  65.7071927 103.5461154  15.6347693  69.7560332
 103.5682850  15.6987026  68.8012311 103.9629213  14.7952201  69.9500838
 113.9244778  25.3702952  67.7939554 114.3675924  24.6210278  67.3958678
 113.0471288  25.3613089  67.4113286 109.0580559  31.9233294  63.2746153
 109.7531464  32.5439987  63.4933468 109.4003709  31.0728645  63.5498531
  94.6748368  23.7451095  77.1342970  93.9330104  23.8933730  77.7207601
  94.3541113  24.0059360  76.2709720 110.9571982  29.3732999  64.8033484
 111.4823306  29.7120272  64.0782804 110.8694335  28.4380015  64.6196618
 102.6192031  33.2867073  76.9323360 102.9279158  33.0416220  77.8046060
 103.4167513  33.4913711  76.4442231 102.6412643  35.4404983  69.1628737
 102.2017633  34.9481361  69.8561594 103.3920760  34.8977950  68.9220812
  95.1204982  31.6316523  69.1653365  95.9463002  31.3320295  68.7852009
  94.7699034  30.8624146  69.6143154 100.0886515  30.9842992  71.2351039
  99.4666525  30.3213697  70.9353266 100.7591382  31.0104124  70.5524686
  93.3213587  29.5502850  70.1242299  92.4845495  29.1225024  69.9426300
  93.2937233  29.7435293  71.0613090 100.1611043  19.4624780  80.8283545
 100.2099198  20.3386903  80.4461314 100.7033557  18.9202173  80.2555188
 110.6465888  30.0065903  80.1084682 109.8561432  29.9890042  79.5689181
 110.4099243  30.5454197  80.8633718 110.7663764  26.8558369  77.4217410
 110.8161768  26.6908377  78.3632933 110.6577687  25.9885628  77.0315291
  99.6500022  29.5346915  64.7109499  99.7988143  30.2182379  64.0576172
 100.4566466  29.5152005  65.2258955 108.0567526  22.8389297  78.7376717
 108.9577389  22.6995762  78.4460715 108.1315500  23.0043752  79.6774894
 102.3910331  20.2156152  77.5829903 101.5213641  20.5089718  77.3112492
 102.6269812  20.7996597  78.3037167 112.2681960  29.2755311  77.6659432
 111.9766769  29.6385291  78.5022893 111.6554092  28.5622319  77.4872764
 113.4677643  26.8408191  70.1862002 114.3024534  27.2797995  70.3499562
 113.6036771  26.3646844  69.3670248 110.5169149  24.3987926  76.1339490
 110.9923270  24.5915572  75.3258341 109.5934714  24.4547111  75.8882873
  97.4052655  25.5612093  65.7170568  97.1598697  24.6574423  65.9150778
  97.5748570  25.5629243  64.7750046 105.0949365  16.4335769  75.0995324
 105.6131309  17.1696796  74.7741812 104.7404498  16.7399762  75.9342083
  96.6748303  21.2940450  63.2156730  95.9817548  21.3684805  62.5596765
  96.4300055  20.5300794  63.7378246 105.3461959  12.8536052  70.6196220
 105.6263713  12.1859241  71.2456647 106.1312566  13.0465147  70.1070884
 103.1495428  32.0295046  62.1821247 102.5769395  32.6485233  61.7291718
 103.7228221  32.5794407  62.7161169 109.2170818  21.2753686  74.3667795
 110.1688240  21.3751783  74.3880019 109.0474268  20.4831954  74.8765880
 107.2385197  18.3609269  74.5527196 106.6435129  18.6414282  73.8573685
 106.9534894  18.8503170  75.3243937 106.3692688  32.3132196  63.3129829
 107.3023361  32.2477757  63.5162704 106.2815900  33.1488462  62.8544361
 108.9980704  31.6298066  60.2733776 108.9194336  31.2957930  61.1669534
 109.8190371  32.1219834  60.2725249 111.6958895  24.4959805  73.4810095
 111.6635215  23.5575806  73.6669779 112.3059519  24.5743842  72.7475920
 103.5342226  23.3655858  59.5237299 104.4801331  23.2362066  59.5925717
 103.1556471  22.6270520  60.0006727 111.8453384  21.2870849  73.5268378
 111.3292432  20.5029305  73.3398307 112.7293332  20.9589565  73.6914898
 109.5064111  15.0311864  69.4864191 109.3088932  14.7226952  70.3707523
 110.1163816  15.7573503  69.6162121 117.5135445  25.5575812  72.6216132
 118.2438834  25.2961100  73.1823835 116.9042391  24.8204534  72.6618200
 115.5950742  23.6983675  73.2190583 114.8683906  23.5639640  72.6107075
 115.1798029  24.0060503  74.0247301 103.4180919  27.4173604  80.9837956
 104.3383928  27.5952203  81.1778003 103.3830502  26.4729650  80.8317655
 101.7185143  21.2905835  59.4592184 100.8116599  20.9938947  59.5354898
 101.9961124  20.9935653  58.5926471  92.6363084  22.6112198  69.9091231
  92.3165868  21.7577506  69.6165605  92.0896512  22.8260776  70.6649198
  96.4142991  25.3274639  73.6260737  96.6329001  26.2591747  73.6448771
  96.8268765  24.9682613  74.4115541 103.3347209  15.8342724  65.6136426
 102.5247937  15.4889809  65.9891672 104.0231626  15.5250268  66.2024037
 105.2637757  14.9120771  67.2360722 105.8168796  15.3316225  67.8950745
 105.5007844  13.9856519  67.2783678 101.2870857  20.9007845  83.0163486
 101.1867584  21.8502202  82.9475577 101.0692399  20.5726084  82.1439556
 100.4883928  18.1492770  59.6004163 101.3503092  18.4747668  59.8599981
 100.6734272  17.3624266  59.0877229  92.5051344  26.2315110  71.8784352
  91.8114815  25.8169062  71.3654307  93.2524335  26.2735646  71.2817771
 108.6416564  17.0221296  66.7439386 108.0615234  17.6806100  66.3617439
 108.3752497  16.1998641  66.3326804 107.0920131  16.4226354  68.9460707
 107.5919909  16.5342889  68.1375026 107.7355739  16.1187407  69.5861515
 101.1502127  24.3304984  81.8328548 100.6669208  25.1305344  82.0392437
 101.2363066  24.3412929  80.8795992  94.4188086  26.1633363  69.7550367
  94.3958774  26.2621051  68.8032250  94.7288723  27.0098514  70.0767533
  97.0775464  28.2209518  73.8696982  98.0318718  28.1893461  73.8026913
  96.8787988  27.7600142  74.6847207  97.6674846  26.7910634  76.4367779
  98.4867735  27.2854713  76.4602617  97.9411654  25.8742603  76.4085347
 107.4241442  19.1821387  65.7995735 106.5367298  19.4671037  65.5815929
 107.8395432  19.0215150  64.9523012 110.7755979  19.2067908  69.5150074
 111.5516369  19.6964360  69.7874691 110.0504113  19.6325962  69.9721943
 113.2128537  19.9195527  70.5724015 113.8073028  19.6791263  69.8617323
 113.2855121  19.2002657  71.1997551  95.4325693  33.7629138  70.8867179
  95.2980161  33.0029539  70.3205177  95.0157755  34.4870038  70.4195968
 106.5684656  28.9466061  59.8943755 107.2720506  29.1516064  60.5101410
 105.8447305  29.5142823  60.1592838 107.3982466  24.6975923  66.0146025
 107.3417668  25.1544474  65.1753657 107.9510809  23.9366607  65.8368868
 111.2087272  20.4865655  66.8396144 110.9524206  20.0862290  67.6704352
 110.5840140  21.2009448  66.7146284 115.5199610  23.2261728  69.3467436
 114.9599168  23.2954917  70.1198998 114.9143113  23.0502712  68.6266932
  98.5894819  34.6598455  71.0985622  98.4727203  35.6043887  70.9964312
  97.7687265  34.3572016  71.4871421 108.4771353  29.3848591  61.9442215
 109.3116957  28.9529789  61.7619690 108.3155696  29.2130604  62.8719109
 108.1317246  25.8880704  63.3098554 108.0766049  25.7224975  62.3686998
 107.5063301  26.5956737  63.4660744  92.9209761  21.1248768  77.1359976
  93.5668624  20.6147722  77.6247201  92.7126912  21.8617450  77.7103402
 105.4463153  28.1929616  82.6352117 106.3154312  28.3670268  82.2738752
 104.9669904  29.0124033  82.5127846 101.4413371  15.3888813  62.8883872
 101.4292041  16.3330653  63.0452143 102.3336793  15.2058958  62.5943334
  99.6149333  35.3126717  74.3141551 100.5176580  35.3450327  74.6308045
  99.3886703  34.3827168  74.3287886 101.3702935  34.0657703  70.9751629
 100.4198566  34.0659565  70.8616001 101.6735421  33.3190438  70.4587664
 105.2565490  11.9831590  67.1429809 104.4897886  11.4290076  67.2886492
 105.6676195  12.0553458  68.0043961  97.2607252  18.2716385  81.2334991
  98.1238713  17.9153190  81.4438315  96.6872662  17.9330280  81.9210395
 117.1055628  39.9018242  72.0397392 117.7434038  39.7824989  71.3360732
 116.9876471  40.8499086  72.0985344 113.9145335  39.8545670  71.9758916
 113.5763846  39.7386735  71.0879451 114.7835103  39.4536835  71.9559922
 109.7732150  41.7081146  67.9655807 109.2097016  41.6171083  67.1972095
 109.6584545  40.8881051  68.4458300 114.3965118  41.0080522  77.9345122
 114.3853759  40.6133320  77.0625625 114.5585757  40.2746594  78.5278893
 107.3196582  43.2032338  70.8040028 108.1117874  42.8623162  70.3886327
 107.5593233  43.3127313  71.7242181 115.3531709  45.3752114  63.2770272
 114.7019689  45.9606194  62.8904286 116.1476072  45.9058309  63.3365310
 109.2787336  42.4641251  63.6757406 110.0518212  41.9170238  63.5370282
 109.6312735  43.3285500  63.8871868 111.1172379  43.7917633  76.8824306
 110.8262245  44.6963264  76.7670972 111.7529363  43.8334161  77.5968375
 112.0428586  41.1694482  73.4725665 112.6392158  40.9450504  72.7582628
 112.1003557  40.4279227  74.0751113 111.6153614  38.6233917  61.3075856
 111.8679135  38.1015438  60.5459319 110.6778173  38.4600063  61.4102540
 116.6596897  37.6269696  69.1150600 117.4459986  37.2089119  68.7641017
 116.9235601  38.5315788  69.2832248 116.8306974  43.0642546  63.8139256
 116.1952807  43.1377172  64.5260161 116.5004381  43.6536145  63.1358336
 122.0605324  37.5644929  70.0183578 122.7930496  36.9944146  70.2521408
 121.3044680  37.1766529  70.4590084 111.3349903  40.5262023  63.5100231
 111.2186161  39.8506927  64.1781316 111.4452163  40.0394397  62.6932384
 113.6781444  39.9872170  67.2146921 113.3139651  39.4602791  67.9259842
 114.5348560  39.5970639  67.0413406 119.5830744  31.2766503  74.4778187
 119.2514069  32.1461914  74.2539402 118.9876358  30.9602787  75.1572217
 113.3186931  35.0162070  62.2108269 113.4861333  35.8842306  62.5778740
 113.1284100  35.1789352  61.2869558 116.0762264  43.4779049  73.8774099
 115.7762987  44.3804088  73.7689907 115.7313323  43.2111232  74.7295252
 109.5274745  39.9292846  69.9110804 108.6025242  39.7969060  70.1188496
 109.7759159  40.7087065  70.4080746 119.4759408  35.9961589  71.5571537
 118.5676285  35.9276997  71.2630298 119.4247004  36.4733534  72.3853362
 113.2976152  37.4719727  63.1954936 113.1775777  37.9176778  64.0340416
 112.6028740  37.8205045  62.6368474 106.8883556  39.5726119  70.7454593
 107.0175938  39.8260598  71.6594005 106.2081008  40.1653827  70.4259248
 111.0583044  50.2423369  66.8445067 110.9807073  51.1931194  66.9233548
 110.4544687  49.8969242  67.5019993 113.5500274  37.4151235  79.5006434
 112.7733608  37.9745155  79.4909299 114.1890837  37.9008018  80.0221304
 121.3421054  34.1978027  73.3349411 120.6995434  34.4910561  72.6889205
 120.8375983  34.0830948  74.1402607 118.9961218  37.9441201  64.0235270
 119.9079074  38.1768587  63.8482967 118.4870865  38.5278245  63.4610349
 111.8046646  40.2236688  79.0624401 112.5461330  40.7621732  78.7859225
 111.0983631  40.8502977  79.2195953 117.2801985  42.3665828  77.6596563
 117.6885342  41.9248239  76.9151195 116.5579247  41.7918456  77.9130755
 113.6333056  37.3038435  75.0330119 114.4794251  37.7277849  75.1764768
 113.5731693  36.6472060  75.7268683 117.6030800  42.9267019  71.4148851
 116.9739663  43.0912733  70.7124919 117.2156462  43.3408629  72.1859815
 121.4820032  43.8621457  68.7693215 120.7971070  44.2420358  68.2190248
 121.5663881  44.4716784  69.5025163 116.7832501  34.9642804  76.6911293
 116.5393433  35.7184864  76.1545569 117.0592431  35.3428151  77.5258540
 118.7370964  41.5081416  75.3688559 118.9487859  42.1513176  74.6922940
 118.6900712  40.6743733  74.9010489 116.3397193  34.1199237  72.2725131
 115.4781672  34.4180490  72.5641868 116.3659627  34.3369635  71.3406163
 113.1558762  42.6641427  68.6798936 113.6197108  42.9429130  67.8903559
 112.8915560  41.7624872  68.4972027 110.0482843  42.2112909  71.6178700
 110.6184200  42.6400177  70.9796184 110.6390955  41.9295493  72.3162885
 112.0927648  38.7864580  65.4888502 112.7951691  39.2385623  65.9562428
 111.7608277  38.1448398  66.1168395 110.5408010  37.3776336  79.8639711
 109.9106670  38.0592617  80.0975108 110.4344097  37.2659418  78.9192849
 105.8352982  37.0448132  70.7905635 105.0452036  37.3005661  70.3145746
 106.3264229  37.8596470  70.8957676 119.8516792  44.3853371  73.5410916
 120.6734235  43.9833559  73.2593598 119.8479194  44.2821606  74.4927032
 107.7867727  37.4092711  67.7489112 106.9898891  37.5211406  68.2672608
 107.5593320  37.7479364  66.8830002 113.6173395  43.9337415  75.6971627
 113.6817828  44.3957822  76.5329798 112.9084319  43.3034780  75.8253936
 104.1190685  37.2978623  73.2220626 104.3698723  38.1825633  73.4878202
 104.6550233  37.1183224  72.4495718 127.9422785  40.7292120  69.8895887
 127.1886493  40.1599518  69.7339892 128.0770326  40.6954784  70.8366522
 113.3321413  45.6005522  65.5650607 113.1967087  46.4457058  65.9935455
 113.8731225  45.8024800  64.8016541 109.8188752  31.6797102  82.2264962
 109.4255698  31.1263301  82.9012606 110.6354893  31.9907680  82.6171480
 106.7850810  43.1180960  66.1378532 107.2975331  43.9124210  66.2884097
 107.4373523  42.4207251  66.0712133 108.5945695  46.2346716  68.2201285
 108.7712323  47.1564681  68.0322269 109.3902528  45.9205136  68.6495665
 112.7356713  33.0954981  79.8185219 113.4766427  33.6962134  79.7389681
 112.9674636  32.3532619  79.2603261 107.8798051  38.2811348  78.0963448
 107.7651566  37.3796606  78.3970547 107.0242569  38.5275045  77.7448265
 114.9589889  46.2229089  79.6950949 114.5153743  45.4365467  79.3771853
 115.6207103  46.4108239  79.0294840 109.7177010  47.7524890  74.2211627
 110.2684435  47.6241954  73.4488621 108.8788486  48.0519779  73.8706520
 117.0571127  46.5031889  77.7232350 117.0389602  47.3240770  77.2312619
 117.9791047  46.3785964  77.9482491 113.5144181  44.0176018  78.5655859
 114.0472518  43.2564306  78.3355167 112.9858262  43.7249670  79.3080013
 116.6813876  29.1236084  74.0949500 116.3378146  30.0137726  74.0188611
 117.0492839  28.9337742  73.2319085 104.7499727  41.4469614  66.9138102
 105.5874949  41.8566623  66.6971810 104.9277995  40.5069057  66.8838296
 116.6464159  39.1144695  62.6021935 116.1310782  39.8849300  62.8410323
 116.3741467  38.4409831  63.2254997 114.2311270  33.9594396  67.6607174
 113.3752866  33.5701246  67.4812812 114.6438222  34.0386357  66.8006959
 115.7610417  31.4940739  72.0598734 115.2575212  31.4570874  71.2466539
 116.0541023  32.4033482  72.1195390 112.0053303  31.5779469  71.0664915
 112.8706299  31.3822278  70.7070805 112.0730811  31.3489821  71.9934272
 121.6198433  41.8677050  64.5375109 120.8427876  41.5288209  64.0930271
 122.2989914  41.8729673  63.8630074 116.4350462  36.9871787  64.4281717
 116.1300598  37.3017936  65.2791860 117.3880904  37.0653207  64.4709050
 114.8796894  43.1462011  66.0774671 114.3518256  42.4114770  65.7647908
 114.3784397  43.9236687  65.8314639 119.8589740  41.3411031  71.1941717
 119.2013414  42.0310292  71.2821846 120.6630139  41.7307463  71.5375703
 109.6115622  33.8081677  68.4381282 110.1859373  33.5856858  67.7054475
 110.1986604  33.8770371  69.1909883 118.6695199  39.6955404  69.2445659
 119.1827081  40.3285396  69.7467368 119.3196423  39.0956599  68.8789019
 109.9385209  35.8386138  62.4577167 109.1022521  36.1760824  62.7786442
 109.7989978  35.7035118  61.5204304 111.9138289  30.6822926  67.1656352
 111.2602702  30.3671943  66.5412966 111.8718763  30.0598666  67.8916174
 113.0249494  40.9642221  59.0809644 112.1176556  40.7331474  59.2800793
 113.5220526  40.1679840  59.2683625 115.9317573  49.6739728  62.0006330
 115.2579272  49.9771425  62.6091288 116.3183395  50.4768808  61.6511787
 115.1476030  37.1704859  71.4903999 114.2298591  37.3919806  71.3325687
 115.5636173  37.2451170  70.6315706 115.9311077  38.5696275  66.6206679
 116.6782896  39.0817672  66.3113801 116.2002667  38.2480328  67.4811073
 114.2037728  41.0654816  63.6033634 113.2948947  40.7813849  63.7006103
 114.2332811  41.4853894  62.7436941 119.4356995  44.6761405  67.3724801
 118.9819322  43.8352315  67.4289992 118.8050962  45.3122804  67.7099581
 118.3789915  35.6053391  68.6025469 117.6412671  35.0930777  68.9335711
 118.6316688  35.1653773  67.7908746 117.8789934  46.5137902  68.3074619
 118.1712909  47.0742959  67.5886985 118.3888555  46.8066463  69.0627779
 118.4801542  28.3829643  69.1967238 118.7860419  27.5227007  68.9093153
 119.2054147  28.9747263  68.9966232 104.7725898  38.7860330  67.5848836
 104.5750298  38.1929691  66.8599902 104.2172562  38.4812540  68.3024775
 112.7522622  38.6783436  69.7043429 112.8071231  37.7257273  69.6285906
 111.9413824  38.8342875  70.1884727 113.9013815  42.6063559  60.9421712
 113.4633245  41.8899418  60.4827350 114.6424256  42.8339674  60.3806804
 110.6914982  37.2960496  67.4633808 109.8782847  37.5954667  67.8699000
 111.1873976  36.9016185  68.1808290 112.8423559  47.2918253  69.3968073
 112.7999738  47.5179099  68.4676605 113.7586258  47.0581628  69.5453874
 116.2889193  37.7602321  76.2948702 116.6438581  37.9873794  77.1543168
 116.9361324  38.0920697  75.6725957 122.0186930  40.8820756  66.9998031
 121.8804829  41.0722352  66.0719220 121.6623149  41.6440139  67.4566082
 110.1829056  34.8678852  73.0795043 110.8228436  34.7267611  72.3818006
 109.3506587  34.5813365  72.7033645 122.0456310  42.9497283  72.0109302
 122.4792816  42.8572573  72.8592356 122.7587890  42.9254784  71.3729318
 110.9589360  44.1681282  69.1930035 111.7529959  43.6731602  68.9912610
 110.2481053  43.6399145  68.8297741 115.7784205  46.5499378  73.5442403
 115.8321227  47.1190314  74.3120119 114.9098986  46.7201263  73.1796440
 107.2672124  38.3124364  65.2689788 106.3369712  38.2508819  65.4859750
 107.3629596  37.7900316  64.4726429 107.1857673  34.8379177  67.8568030
 107.4464490  35.7524510  67.7477190 108.0074845  34.3703619  68.0064642
 108.6582598  36.2516934  75.0266854 109.3305651  36.0434296  74.3779503
 107.8312385  36.0539020  74.5872086 122.9071859  42.9920984  74.5442188
 123.1007749  43.8966795  74.7901463 122.8072478  42.5328403  75.3780773
 114.5608170  32.8778875  77.0432515 113.9136085  33.5768824  76.9496991
 115.3309185  33.3115019  77.4108763 117.9686968  43.1427727  80.1183068
 117.8172474  42.9138279  79.2013152 117.9591647  44.0998328  80.1314413
 114.7372304  40.7159640  75.1029335 115.6664364  40.8670799  74.9298302
 114.3163334  40.8043660  74.2477981 113.5360636  44.7410304  72.8727872
 113.3971722  44.3729088  73.7453811 112.7475232  45.2557943  72.7011830
 114.1308788  49.8419400  64.2153409 114.3060544  49.3707444  65.0299032
 113.4441576  50.4685167  64.4434670 115.0865851  44.1191907  70.2616710
 114.7515684  44.0792677  71.1574360 114.5869797  43.4536623  69.7887120
 109.0610095  39.5259537  75.7869291 108.9229893  38.7939776  76.3880830
 109.9715019  39.4368437  75.5053479 118.0225043  41.4647941  60.5353770
 117.4054214  40.7394769  60.4386823 117.5541531  42.2257301  60.1920844
 111.6892396  39.2379496  75.2752971 112.3992015  38.5972688  75.2339589
 111.6461704  39.4892391  76.1979152 119.6779175  46.1746849  78.1959550
 119.6191721  45.4906069  77.5290133 120.0798693  46.9165839  77.7440176
 110.4021330  36.2244714  77.0948610 109.8658687  35.7735452  77.7470207
 109.8138038  36.3590623  76.3519075 108.6969873  52.9908763  70.9893269
 108.9366472  53.6227287  71.6672288 107.8539070  52.6396803  71.2758628
 109.8123589  35.6833365  59.6575074 108.9353055  35.5622166  59.2937321
 110.2881342  34.8919444  59.4053963 119.6796582  44.1386433  76.4273530
 118.7923361  43.8012355  76.5499929 120.2495133  43.4069465  76.6642295
 101.3325729  40.4710525  69.7516581 102.0196769  40.1572255  69.1637597
 101.1773858  41.3751890  69.4783833 106.1360451  35.3600722  74.1801605
 106.0518640  34.7526391  73.4452015 105.3143158  35.8509740  74.1811101
 113.2097735  48.7987886  73.3934773 113.1367907  49.6042857  73.9054078
 112.7675128  48.9979851  72.5682794 112.9987515  48.0359656  66.9037595
 112.2155037  48.5781336  66.9975819 113.6980260  48.5533635  67.3031836
 116.3084165  33.8454285  69.5471800 116.8052865  33.0924247  69.2272870
 115.5371147  33.8818602  68.9815009 124.1613922  39.5494651  71.1890092
 124.1503799  40.4319366  70.8184025 123.2931302  39.1966201  70.9944629
 115.6696419  48.6974720  75.5492932 116.3824391  49.3322184  75.4768833
 115.1786447  48.7938586  74.7332934 117.3913946  42.6025972  67.1210223
 116.4570224  42.7227435  66.9514928 117.5690614  41.6998439  66.8570233
 112.8919134  35.9871668  69.2743485 112.5216921  35.4342709  69.9624390
 113.3878226  35.3829802  68.7218485 120.7786497  38.4443292  67.6560258
 121.2446949  39.2771283  67.5820560 121.2293998  37.9788273  68.3605516
 110.7208332  46.4469163  76.3698503 111.4217792  47.0805646  76.5227897
 110.2503447  46.7883895  75.6094142 118.8462728  44.7887113  64.6546410
 119.1222572  44.6743708  65.5640284 117.9767227  44.3904598  64.6158583
 118.7503160  30.8123879  71.6951159 117.8366240  31.0428105  71.8633366
 119.1796261  30.8962323  72.5465191 118.5209618  39.0013771  74.1951053
 117.8681069  39.2489678  73.5403506 118.8989998  38.1877909  73.8613530
 115.4816792  49.0373464  68.2979223 115.6639187  48.2195120  68.7606976
 116.3049778  49.2541156  67.8604113 115.8158958  47.9641649  65.5594272
 116.3446724  47.4534103  64.9464434 116.0787177  47.6484179  66.4239805
 114.5697191  39.7433582  80.6817090 113.8937828  39.6427711  81.3519465
 115.3924825  39.5872795  81.1453087 106.3176050  45.9805518  73.3029605
 106.9029487  45.2349206  73.4357509 106.1200889  46.2909475  74.1866269
 109.1714706  49.0156766  68.3192048 108.5025081  49.5002893  67.8356088
 109.0327575  49.2625986  69.2335426 100.9093705  38.5511118  72.0234048
 100.9477805  38.0174709  72.8171167 100.4033998  38.0246324  71.4045026
 113.3119974  51.0500509  74.9174706 113.8638282  51.2132131  75.6823791
 113.6526168  51.6404947  74.2454731 108.2884467  33.3975659  75.5196591
 108.3525794  34.2590490  75.1073988 108.2251588  32.7849661  74.7868949
 107.7636740  35.4698791  79.1669625 108.3908779  35.0875869  79.7807149
 106.9064659  35.2512993  79.5325317 118.1630849  45.8761767  80.7723360
 118.7070753  46.4891725  80.2778315 117.5817693  46.4341345  81.2890373
 104.5402283  37.2775221  65.0987980 104.8355724  36.3685899  65.0455033
 103.6390319  37.2562960  64.7768982 116.4488362  48.9982485  71.9038388
 116.3239501  48.1972224  71.3949334 117.1067453  49.4928678  71.4152358
 108.0696530  35.3531217  71.0815528 107.3483116  35.9667185  70.9423002
 108.8589786  35.8888982  71.0032174 118.5123270  46.7991505  73.5317938
 117.5653605  46.6796856  73.4596265 118.8606043  45.9114003  73.6144200
 110.8722843  32.6885644  77.3556180 111.3957245  32.9347940  78.1182489
 110.6535177  33.5205678  76.9359317 106.2690124  34.9589318  65.2227305
 105.9402831  34.0786697  65.0402411 106.6229495  34.9036987  66.1103694
 115.5169703  46.5944221  69.7322290 115.3694666  45.6660928  69.9129861
 116.3423197  46.6164312  69.2479366 109.3831948  35.2462288  65.5902783
 109.7228020  35.7748209  64.8681391 109.8304068  35.5842694  66.3661349
 119.1203825  47.4172780  70.8187163 120.0450373  47.2115641  70.6811614
 118.9519128  47.1689181  71.7276505 112.0775388  33.6299339  75.0405851
 111.7372209  32.8307152  75.4426531 111.3714395  33.9301050  74.4682684
 112.7291860  30.7148651  73.4933174 113.5517929  30.2409129  73.3712064
 112.9729924  31.4939135  73.9931860 111.3700095  33.7436910  63.7896075
 112.0908457  34.1218162  63.2859792 110.7465399  34.4625786  63.8931053
 115.5131218  34.4482059  64.7254408 115.7294832  35.3306696  64.4243236
 115.0325285  34.0568272  63.9960050 110.2530439  37.4067772  71.3025152
 110.1075020  37.7208075  72.1949434 109.7755643  38.0252672  70.7496051
 112.1126822  34.3970320  71.3506042 112.0988391  33.5011413  71.0138340
 112.8299250  34.4040984  71.9844328 113.9652953  34.8307660  73.3959169
 113.7070730  35.7524731  73.3943500 113.4337993  34.4338095  74.0859633
 118.9099141  47.9358447  66.1749255 119.0836019  47.3704870  65.4223107
 119.4028033  48.7359342  65.9928745 104.7276101  39.9473116  74.2412813
 104.1829569  40.7232924  74.3733088 105.6055451  40.2943921  74.0831935
 111.5163718  33.2784700  66.6193612 111.6379629  32.3501346  66.8184500
 111.2265760  33.2923386  65.7071927 114.3854908  30.9639610  69.7560332
 114.4076605  31.0278944  68.8012311 114.8022967  30.1244119  69.9500838
 124.7638532  40.6994870  67.7939554 125.2069678  39.9502195  67.3958678
 123.8865043  40.6905006  67.4113286 119.8974314  47.2525212  63.2746153
 120.5925218  47.8731904  63.4933468 120.2397464  46.4020563  63.5498531
 105.5142123  39.0743012  77.1342970 104.7723859  39.2225648  77.7207601
 105.1934867  39.3351278  76.2709720 121.7965737  44.7024917  64.8033484
 122.3217061  45.0412190  64.0782804 121.7088089  43.7671932  64.6196618
 113.4585786  48.6158991  76.9323360 113.7672912  48.3708137  77.8046060
 114.2561268  48.8205629  76.4442231 113.4806398  50.7696900  69.1628737
 113.0411388  50.2773279  69.8561594 114.2314515  50.2269868  68.9220812
 105.9598737  46.9608441  69.1653365 106.7856757  46.6612213  68.7852009
 105.6092789  46.1916064  69.6143154 110.9280270  46.3134909  71.2351039
 110.3060279  45.6505614  70.9353266 111.5985137  46.3396041  70.5524686
 104.1607342  44.8794768  70.1242299 103.3239250  44.4516942  69.9426300
 104.1330987  45.0727211  71.0613090 111.0004797  34.7916697  80.8283545
 111.0492953  35.6678820  80.4461314 111.5427311  34.2494090  80.2555188
 121.4859643  45.3357821  80.1084682 120.6955187  45.3181960  79.5689181
 121.2492998  45.8746114  80.8633718 121.6057518  42.1850287  77.4217410
 121.6555523  42.0200294  78.3632933 121.4971441  41.3177546  77.0315291
 110.4893777  44.8638833  64.7109499 110.6381897  45.5474297  64.0576172
 111.2960220  44.8443923  65.2258955 118.8961280  38.1681215  78.7376717
 119.7971143  38.0287680  78.4460715 118.9709255  38.3335670  79.6774894
 113.2304086  35.5448070  77.5829903 112.3607395  35.8381636  77.3112492
 113.4663566  36.1288515  78.3037167 123.1075715  44.6047229  77.6659432
 122.8160523  44.9677209  78.5022893 122.4947846  43.8914237  77.4872764
 124.3071397  42.1700108  70.1862002 125.1418289  42.6089912  70.3499562
 124.4430526  41.6938762  69.3670248 121.3562903  39.7279843  76.1339490
 121.8317025  39.9207490  75.3258341 120.4328468  39.7839029  75.8882873
 108.2446410  40.8904010  65.7170568 107.9992452  39.9866340  65.9150778
 108.4142324  40.8921161  64.7750046 115.9343120  31.7627687  75.0995324
 116.4525063  32.4988714  74.7741812 115.5798252  32.0691680  75.9342083
 107.5142057  36.6232368  63.2156730 106.8211302  36.6976723  62.5596765
 107.2693809  35.8592712  63.7378246 116.1855714  28.1827969  70.6196220
 116.4657467  27.5151158  71.2456647 116.9706321  28.3757065  70.1070884
 113.9889182  47.3586963  62.1821247 113.4163149  47.9777150  61.7291718
 114.5621976  47.9086325  62.7161169 120.0564572  36.6045603  74.3667795
 121.0081995  36.7043701  74.3880019 119.8868022  35.8123872  74.8765880
 118.0778952  33.6901186  74.5527196 117.4828884  33.9706199  73.8573685
 117.7928648  34.1795087  75.3243937 117.2086442  47.6424113  63.3129829
 118.1417115  47.5769675  63.5162704 117.1209655  48.4780380  62.8544361
 119.8374459  46.9589984  60.2733776 119.7588090  46.6249847  61.1669534
 120.6584125  47.4511752  60.2725249 122.5352650  39.8251723  73.4810095
 122.5028970  38.8867724  73.6669779 123.1453274  39.9035760  72.7475920
 114.3735981  38.6947776  59.5237299 115.3195085  38.5653984  59.5925717
 113.9950226  37.9562438  60.0006727 122.6847138  36.6162766  73.5268378
 122.1686187  35.8321223  73.3398307 123.5687087  36.2881483  73.6914898
 120.3457865  30.3603782  69.4864191 120.1482686  30.0518870  70.3707523
 120.9557571  31.0865421  69.6162121 128.3529200  40.8867730  72.6216132
 129.0832588  40.6253018  73.1823835 127.7436145  40.1496452  72.6618200
 126.4344497  39.0275592  73.2190583 125.7077660  38.8931557  72.6107075
 126.0191784  39.3352421  74.0247301 114.2574673  42.7465522  80.9837956
 115.1777683  42.9244121  81.1778003 114.2224256  41.8021567  80.8317655
 112.5578898  36.6197752  59.4592184 111.6510353  36.3230865  59.5354898
 112.8354879  36.3227570  58.5926471 103.4756838  37.9404116  69.9091231
 103.1559623  37.0869424  69.6165605 102.9290266  38.1552694  70.6649198
 107.2536746  40.6566557  73.6260737 107.4722756  41.5883665  73.6448771
 107.6662520  40.2974531  74.4115541 114.1740964  31.1634642  65.6136426
 113.3641692  30.8181727  65.9891672 114.8625381  30.8542186  66.2024037
 116.1031512  30.2412689  67.2360722 116.6562550  30.6608142  67.8950745
 116.3401598  29.3148437  67.2783678 112.1264611  36.2299762  83.0163486
 112.0261338  37.1794119  82.9475577 111.9086153  35.9018001  82.1439556
 111.3277682  33.4784688  59.6004163 112.1896846  33.8039586  59.8599981
 111.5128027  32.6916183  59.0877229 103.3445098  41.5607027  71.8784352
 102.6508570  41.1460980  71.3654307 104.0918089  41.6027564  71.2817771
 119.4810319  32.3513214  66.7439386 118.9008988  33.0098018  66.3617439
 119.2146252  31.5290559  66.3326804 117.9313885  31.7518272  68.9460707
 118.4313664  31.8634806  68.1375026 118.5749493  31.4479325  69.5861515
 111.9895881  39.6596901  81.8328548 111.5062963  40.4597261  82.0392437
 112.0756820  39.6704846  80.8795992 105.2581841  41.4925281  69.7550367
 105.2352529  41.5912968  68.8032250 105.5682477  42.3390432  70.0767533
 107.9169219  43.5501436  73.8696982 108.8712472  43.5185378  73.8026913
 107.7181742  43.0892060  74.6847207 108.5068601  42.1202552  76.4367779
 109.3261490  42.6146631  76.4602617 108.7805408  41.2034520  76.4085347
 118.2635197  34.5113304  65.7995735 117.3761052  34.7962955  65.5815929
 118.6789186  34.3507068  64.9523012 121.6149733  34.5359825  69.5150074
 122.3910123  35.0256278  69.7874691 120.8897867  34.9617880  69.9721943
 124.0522292  35.2487445  70.5724015 124.6466783  35.0083181  69.8617323
 124.1248875  34.5294575  71.1997551 106.2719447  49.0921056  70.8867179
 106.1373915  48.3321456  70.3205177 105.8551510  49.8161955  70.4195968
 117.4078410  44.2757979  59.8943755 118.1114261  44.4807982  60.5101410
 116.6841059  44.8434741  60.1592838 118.2376221  40.0267840  66.0146025
 118.1811422  40.4836392  65.1753657 118.7904563  39.2658525  65.8368868
 122.0481027  35.8157572  66.8396144 121.7917961  35.4154208  67.6704352
 121.4233895  36.5301366  66.7146284 126.3593365  38.5553645  69.3467436
 125.7992922  38.6246835  70.1198998 125.7536868  38.3794630  68.6266932
 109.4288573  49.9890373  71.0985622 109.3120957  50.9335805  70.9964312
 108.6081020  49.6863934  71.4871421 119.3165108  44.7140508  61.9442215
 120.1510712  44.2821707  61.7619690 119.1549451  44.5422522  62.8719109
 118.9711000  41.2172622  63.3098554 118.9159804  41.0516893  62.3686998
 118.3457055  41.9248654  63.4660744 103.7603515  36.4540686  77.1359976
 104.4062379  35.9439640  77.6247201 103.5520666  37.1909368  77.7103402
 116.2856907  43.5221533  82.6352117 117.1548067  43.6962186  82.2738752
 115.8063659  44.3415950  82.5127846 112.2807126  30.7180731  62.8883872
 112.2685795  31.6622570  63.0452143 113.1730547  30.5350876  62.5943334
 110.4543087  50.6418634  74.3141551 111.3570334  50.6742245  74.6308045
 110.2280458  49.7119085  74.3287886 112.2096689  49.3949621  70.9751629
 111.2592320  49.3951483  70.8616001 112.5129176  48.6482356  70.4587664
 116.0959245  27.3123507  67.1429809 115.3291641  26.7581994  67.2886492
 116.5069950  27.3845376  68.0043961 108.1001006  33.6008303  81.2334991
 108.9632468  33.2445108  81.4438315 107.5266417  33.2622198  81.9210395
 127.9449383  55.2310159  72.0397392 128.5827793  55.1116907  71.3360732
 127.8270226  56.1791003  72.0985344 124.7539089  55.1837587  71.9758916
 124.4157601  55.0678652  71.0879451 125.6228857  54.7828753  71.9559922
 120.6125905  57.0373064  67.9655807 120.0490770  56.9463001  67.1972095
 120.4978300  56.2172968  68.4458300 125.2358872  56.3372439  77.9345122
 125.2247513  55.9425237  77.0625625 125.3979512  55.6038512  78.5278893
 118.1590337  58.5324255  70.8040028 118.9511629  58.1915080  70.3886327
 118.3986987  58.6419231  71.7242181 126.1925464  60.7044032  63.2770272
 125.5413443  61.2898112  62.8904286 126.9869826  61.2350227  63.3365310
 120.1181091  57.7933169  63.6757406 120.8911967  57.2462156  63.5370282
 120.4706490  58.6577418  63.8871868 121.9566133  59.1209551  76.8824306
 121.6655999  60.0255182  76.7670972 122.5923118  59.1626079  77.5968375
 122.8822340  56.4986400  73.4725665 123.4785912  56.2742422  72.7582628
 122.9397312  55.7571145  74.0751113 122.4547369  53.9525835  61.3075856
 122.7072889  53.4307356  60.5459319 121.5171928  53.7891980  61.4102540
 127.4990651  52.9561613  69.1150600 128.2853741  52.5381036  68.7641017
 127.7629356  53.8607705  69.2832248 127.6700729  58.3934464  63.8139256
 127.0346562  58.4669090  64.5260161 127.3398135  58.9828062  63.1358336
 132.8999079  52.8936846  70.0183578 133.6324251  52.3236063  70.2521408
 132.1438434  52.5058447  70.4590084 122.1743657  55.8553941  63.5100231
 122.0579915  55.1798844  64.1781316 122.2845917  55.3686315  62.6932384
 124.5175198  55.3164088  67.2146921 124.1533406  54.7894709  67.9259842
 125.3742314  54.9262557  67.0413406 130.4224499  46.6058421  74.4778187
 130.0907824  47.4753832  74.2539402 129.8270112  46.2894705  75.1572217
 124.1580685  50.3453988  62.2108269 124.3255088  51.2134224  62.5778740
 123.9677854  50.5081269  61.2869558 126.9156018  58.8070967  73.8774099
 126.6156742  59.7096005  73.7689907 126.5707078  58.5403150  74.7295252
 120.3668500  55.2584763  69.9110804 119.4418996  55.1260977  70.1188496
 120.6152913  56.0378983  70.4080746 130.3153162  51.3253507  71.5571537
 129.4070040  51.2568915  71.2630298 130.2640758  51.8025452  72.3853362
 124.1369906  52.8011645  63.1954936 124.0169531  53.2468696  64.0340416
 123.4422495  53.1496963  62.6368474 117.7277311  54.9018037  70.7454593
 117.8569692  55.1552516  71.6594005 117.0474762  55.4945745  70.4259248
 121.8976798  65.5715287  66.8445067 121.8200828  66.5223112  66.9233548
 121.2938442  65.2261159  67.5019993 124.3894028  52.7443152  79.5006434
 123.6127362  53.3037072  79.4909299 125.0284591  53.2299935  80.0221304
 132.1814809  49.5269945  73.3349411 131.5389189  49.8202478  72.6889205
 131.6769737  49.4122865  74.1402607 129.8354972  53.2733118  64.0235270
 130.7472828  53.5060505  63.8482967 129.3264619  53.8570163  63.4610349
 122.6440400  55.5528606  79.0624401 123.3855085  56.0913650  78.7859225
 121.9377386  56.1794894  79.2195953 128.1195740  57.6957746  77.6596563
 128.5279096  57.2540157  76.9151195 127.3973001  57.1210374  77.9130755
 124.4726810  52.6330353  75.0330119 125.3188005  53.0569766  75.1764768
 124.4125448  51.9763977  75.7268683 128.4424555  58.2558937  71.4148851
 127.8133417  58.4204651  70.7124919 128.0550217  58.6700546  72.1859815
 132.3213787  59.1913375  68.7693215 131.6364825  59.5712276  68.2190248
 132.4057636  59.8008701  69.5025163 127.6226255  50.2934721  76.6911293
 127.3787187  51.0476782  76.1545569 127.8986186  50.6720069  77.5258540
 129.5764718  56.8373334  75.3688559 129.7881613  57.4805094  74.6922940
 129.5294466  56.0035650  74.9010489 127.1790947  49.4491154  72.2725131
 126.3175426  49.7472408  72.5641868 127.2053382  49.6661553  71.3406163
 123.9952516  57.9933345  68.6798936 124.4590862  58.2721048  67.8903559
 123.7309315  57.0916789  68.4972027 120.8876598  57.5404826  71.6178700
 121.4577955  57.9692095  70.9796184 121.4784709  57.2587411  72.3162885
 122.9321403  54.1156497  65.4888502 123.6345446  54.5677541  65.9562428
 122.6002031  53.4740316  66.1168395 121.3801764  52.7068254  79.8639711
 120.7500425  53.3884535  80.0975108 121.2737852  52.5951335  78.9192849
 116.6746737  52.3740050  70.7905635 115.8845790  52.6297578  70.3145746
 117.1657984  53.1888388  70.8957676 130.6910546  59.7145289  73.5410916
 131.5127990  59.3125476  73.2593598 130.6872949  59.6113523  74.4927032
 118.6261482  52.7384629  67.7489112 117.8292645  52.8503323  68.2672608
 118.3987074  53.0771281  66.8830002 124.4567150  59.2629332  75.6971627
 124.5211582  59.7249740  76.5329798 123.7478073  58.6326697  75.8253936
 114.9584439  52.6270540  73.2220626 115.2092478  53.5117550  73.4878202
 115.4943988  52.4475142  72.4495718 138.7816539  56.0584038  69.8895887
 138.0280248  55.4891436  69.7339892 138.9164080  56.0246702  70.8366522
 124.1715167  60.9297440  65.5650607 124.0360842  61.7748976  65.9935455
 124.7124980  61.1316717  64.8016541 120.6582507  47.0089020  82.2264962
 120.2649452  46.4555218  82.9012606 121.4748647  47.3199598  82.6171480
 117.6244565  58.4472878  66.1378532 118.1369085  59.2416128  66.2884097
 118.2767277  57.7499168  66.0712133 119.4339449  61.5638634  68.2201285
 119.6106078  62.4856599  68.0322269 120.2296283  61.2497053  68.6495665
 123.5750468  48.4246899  79.8185219 124.3160181  49.0254052  79.7389681
 123.8068391  47.6824537  79.2603261 118.7191806  53.6103266  78.0963448
 118.6045321  52.7088523  78.3970547 117.8636324  53.8566963  77.7448265
 125.7983644  61.5521006  79.6950949 125.3547498  60.7657385  79.3771853
 126.4600857  61.7400157  79.0294840 120.5570765  63.0816808  74.2211627
 121.1078190  62.9533871  73.4488621 119.7182241  63.3811697  73.8706520
 127.8964882  61.8323806  77.7232350 127.8783357  62.6532687  77.2312619
 128.8184802  61.7077881  77.9482491 124.3537936  59.3467936  78.5655859
 124.8866273  58.5856224  78.3355167 123.8252017  59.0541588  79.3080013
 127.5207631  44.4528002  74.0949500 127.1771900  45.3429643  74.0188611
 127.8886593  44.2629659  73.2319085 115.5893481  56.7761532  66.9138102
 116.4268703  57.1858541  66.6971810 115.7671749  55.8360974  66.8838296
 127.4857913  54.4436613  62.6021935 126.9704537  55.2141217  62.8410323
 127.2135222  53.7701749  63.2254997 125.0705024  49.2886314  67.6607174
 124.2146621  48.8993164  67.4812812 125.4831976  49.3678274  66.8006959
 126.6004171  46.8232657  72.0598734 126.0968967  46.7862792  71.2466539
 126.8934778  47.7325400  72.1195390 122.8447057  46.9071387  71.0664915
 123.7100054  46.7114195  70.7070805 122.9124566  46.6781738  71.9934272
 132.4592188  57.1968967  64.5375109 131.6821630  56.8580127  64.0930271
 133.1383669  57.2021591  63.8630074 127.2744217  52.3163705  64.4281717
 126.9694352  52.6309854  65.2791860 128.2274659  52.3945125  64.4709050
 125.7190648  58.4753928  66.0774671 125.1912010  57.7406688  65.7647908
 125.2178151  59.2528605  65.8314639 130.6983494  56.6702949  71.1941717
 130.0407169  57.3602210  71.2821846 131.5023894  57.0599381  71.5375703
 120.4509376  49.1373595  68.4381282 121.0253128  48.9148776  67.7054475
 121.0380359  49.2062289  69.1909883 129.5088953  55.0247321  69.2445659
 130.0220835  55.6577313  69.7467368 130.1590177  54.4248517  68.8789019
 120.7778963  51.1678056  62.4577167 119.9416275  51.5052742  62.7786442
 120.6383733  51.0327035  61.5204304 122.7532044  46.0114843  67.1656352
 122.0996456  45.6963861  66.5412966 122.7112518  45.3890584  67.8916174
 123.8643249  56.2934139  59.0809644 122.9570310  56.0623392  59.2800793
 124.3614281  55.4971758  59.2683625 126.7711328  65.0031646  62.0006330
 126.0973026  65.3063342  62.6091288 127.1577150  65.8060726  61.6511787
 125.9869784  52.4996777  71.4903999 125.0692346  52.7211724  71.3325687
 126.4029928  52.5743087  70.6315706 126.7704832  53.8988193  66.6206679
 127.5176651  54.4109590  66.3113801 127.0396421  53.5772245  67.4811073
 125.0431482  56.3946733  63.6033634 124.1342701  56.1105766  63.7006103
 125.0726566  56.8145812  62.7436941 130.2750750  60.0053323  67.3724801
 129.8213077  59.1644233  67.4289992 129.6444716  60.6414721  67.7099581
 129.2183669  50.9345309  68.6025469 128.4806426  50.4222695  68.9335711
 129.4710443  50.4945691  67.7908746 128.7183689  61.8429820  68.3074619
 129.0106663  62.4034877  67.5886985 129.2282309  62.1358381  69.0627779
 129.3195296  43.7121561  69.1967238 129.6254173  42.8518924  68.9093153
 130.0447901  44.3039181  68.9966232 115.6119652  54.1152247  67.5848836
 115.4144052  53.5221608  66.8599902 115.0566316  53.8104458  68.3024775
 123.5916376  54.0075354  69.7043429 123.6464986  53.0549190  69.6285906
 122.7807578  54.1634793  70.1884727 124.7407570  57.9355477  60.9421712
 124.3027000  57.2191336  60.4827350 125.4818011  58.1631592  60.3806804
 121.5308736  52.6252414  67.4633808 120.7176602  52.9246584  67.8699000
 122.0267730  52.2308102  68.1808290 123.6817314  62.6210171  69.3968073
 123.6393493  62.8471017  68.4676605 124.5980013  62.3873545  69.5453874
 127.1282948  53.0894238  76.2948702 127.4832335  53.3165711  77.1543168
 127.7755079  53.4212615  75.6725957 132.8580685  56.2112674  66.9998031
 132.7198583  56.4014270  66.0719220 132.5016903  56.9732057  67.4566082
 121.0222811  50.1970769  73.0795043 121.6622190  50.0559528  72.3818006
 120.1900341  49.9105283  72.7033645 132.8850064  58.2789201  72.0109302
 133.3186571  58.1864490  72.8592356 133.5981645  58.2546702  71.3729318
 121.7983115  59.4973200  69.1930035 122.5923713  59.0023520  68.9912610
 121.0874807  58.9691063  68.8297741 126.6177959  61.8791295  73.5442403
 126.6714981  62.4482232  74.3120119 125.7492741  62.0493180  73.1796440
 118.1065878  53.6416281  65.2689788 117.1763466  53.5800737  65.4859750
 118.2023350  53.1192234  64.4726429 118.0251427  50.1671094  67.8568030
 118.2858245  51.0816427  67.7477190 118.8468600  49.6995537  68.0064642
 119.4976353  51.5808851  75.0266854 120.1699406  51.3726214  74.3779503
 118.6706139  51.3830937  74.5872086 133.7465614  58.3212902  74.5442188
 133.9401504  59.2258712  74.7901463 133.6466232  57.8620321  75.3780773
 125.4001925  48.2070792  77.0432515 124.7529840  48.9060742  76.9496991
 126.1702940  48.6406936  77.4108763 128.8080723  58.4719644  80.1183068
 128.6566229  58.2430196  79.2013152 128.7985402  59.4290246  80.1314413
 125.5766059  56.0451557  75.1029335 126.5058119  56.1962717  74.9298302
 125.1557089  56.1335578  74.2477981 124.3754391  60.0702222  72.8727872
 124.2365476  59.7021006  73.7453811 123.5868987  60.5849861  72.7011830
 124.9702543  65.1711318  64.2153409 125.1454298  64.6999361  65.0299032
 124.2835331  65.7977084  64.4434670 125.9259606  59.4483824  70.2616710
 125.5909438  59.4084594  71.1574360 125.4263552  58.7828540  69.7887120
 119.9003850  54.8551454  75.7869291 119.7623648  54.1231693  76.3880830
 120.8108773  54.7660354  75.5053479 128.8618798  56.7939859  60.5353770
 128.2447968  56.0686687  60.4386823 128.3935286  57.5549219  60.1920844
 122.5286150  54.5671414  75.2752971 123.2385769  53.9264606  75.2339589
 122.4855459  54.8184309  76.1979152 130.5172929  61.5038767  78.1959550
 130.4585475  60.8197987  77.5290133 130.9192448  62.2457757  77.7440176
 121.2415084  51.5536632  77.0948610 120.7052441  51.1027370  77.7470207
 120.6531793  51.6882540  76.3519075 119.5363628  68.3200681  70.9893269
 119.7760226  68.9519205  71.6672288 118.6932824  67.9688721  71.2758628
 120.6517343  51.0125283  59.6575074 119.7746810  50.8914084  59.2937321
 121.1275096  50.2211361  59.4053963 130.5190336  59.4678351  76.4273530
 129.6317115  59.1304273  76.5499929 131.0888887  58.7361382  76.6642295
 112.1719484  55.8002443  69.7516581 112.8590523  55.4864173  69.1637597
 112.0167612  56.7043807  69.4783833 116.9754206  50.6892639  74.1801605
 116.8912394  50.0818309  73.4452015 116.1536912  51.1801658  74.1811101
 124.0491490  64.1279803  73.3934773 123.9761661  64.9334775  73.9054078
 123.6068883  64.3271769  72.5682794 123.8381269  63.3651573  66.9037595
 123.0548791  63.9073254  66.9975819 124.5374015  63.8825553  67.3031836
 127.1477920  49.1746203  69.5471800 127.6446619  48.4216165  69.2272870
 126.3764901  49.2110519  68.9815009 135.0007677  54.8786568  71.1890092
 134.9897553  55.7611284  70.8184025 134.1325056  54.5258119  70.9944629
 126.5090173  64.0266637  75.5492932 127.2218146  64.6614102  75.4768833
 126.0180202  64.1230503  74.7332934 128.2307700  57.9317890  67.1210223
 127.2963979  58.0519352  66.9514928 128.4084369  57.0290357  66.8570233
 123.7312888  51.3163586  69.2743485 123.3610676  50.7634626  69.9624390
 124.2271981  50.7121719  68.7218485 131.6180252  53.7735209  67.6560258
 132.0840704  54.6063201  67.5820560 132.0687752  53.3080191  68.3605516
 121.5602087  61.7761081  76.3698503 122.2611546  62.4097564  76.5227897
 121.0897202  62.1175812  75.6094142 129.6856483  60.1179031  64.6546410
 129.9616327  60.0035625  65.5640284 128.8160981  59.7196515  64.6158583
 129.5896914  46.1415796  71.6951159 128.6759994  46.3720023  71.8633366
 130.0190016  46.2254240  72.5465191 129.3603373  54.3305688  74.1951053
 128.7074823  54.5781596  73.5403506 129.7383753  53.5169826  73.8613530
 126.3210547  64.3665381  68.2979223 126.5032941  63.5487037  68.7606976
 127.1443533  64.5833074  67.8604113 126.6552712  63.2933567  65.5594272
 127.1840479  62.7826021  64.9464434 126.9180932  62.9776097  66.4239805
 125.4090946  55.0725499  80.6817090 124.7331583  54.9719629  81.3519465
 126.2318580  54.9164713  81.1453087 117.1569805  61.3097436  73.3029605
 117.7423242  60.5641124  73.4357509 116.9594643  61.6201393  74.1866269
 120.0108460  64.3448683  68.3192048 119.3418835  64.8294811  67.8356088
 119.8721330  64.5917904  69.2335426 111.7487460  53.8803036  72.0234048
 111.7871559  53.3466627  72.8171167 111.2427753  53.3538242  71.4045026
 124.1513729  66.3792427  74.9174706 124.7032037  66.5424048  75.6823791
 124.4919922  66.9696865  74.2454731 119.1278222  48.7267577  75.5196591
 119.1919548  49.5882407  75.1073988 119.0645342  48.1141578  74.7868949
 118.6030495  50.7990709  79.1669625 119.2302533  50.4167786  79.7807149
 117.7458413  50.5804911  79.5325317 129.0024603  61.2053684  80.7723360
 129.5464507  61.8183643  80.2778315 128.4211448  61.7633263  81.2890373
 115.3796037  52.6067138  65.0987980 115.6749478  51.6977817  65.0455033
 114.4784073  52.5854878  64.7768982 127.2882116  64.3274402  71.9038388
 127.1633255  63.5264142  71.3949334 127.9461207  64.8220596  71.4152358
 118.9090284  50.6823135  71.0815528 118.1876870  51.2959103  70.9423002
 119.6983540  51.2180900  71.0032174 129.3517024  62.1283422  73.5317938
 128.4047360  62.0088774  73.4596265 129.6999798  61.2405920  73.6144200
 121.7116598  48.0177561  77.3556180 122.2351000  48.2639858  78.1182489
 121.4928931  48.8497596  76.9359317 117.1083879  50.2881236  65.2227305
 116.7796585  49.4078615  65.0402411 117.4623250  50.2328905  66.1103694
 126.3563458  61.9236139  69.7322290 126.2088420  60.9952846  69.9129861
 127.1816951  61.9456229  69.2479366 120.2225702  50.5754206  65.5902783
 120.5621775  51.1040127  64.8681391 120.6697822  50.9134612  66.3661349
 129.9597580  62.7464697  70.8187163 130.8844127  62.5407559  70.6811614
 129.7912883  62.4981098  71.7276505 122.9169143  48.9591256  75.0405851
 122.5765963  48.1599069  75.4426531 122.2108149  49.2592967  74.4682684
 123.5685615  46.0440569  73.4933174 124.3911684  45.5701047  73.3712064
 123.8123678  46.8231053  73.9931860 122.2093849  49.0728827  63.7896075
 122.9302212  49.4510080  63.2859792 121.5859153  49.7917704  63.8931053
 126.3524972  49.7773976  64.7254408 126.5688586  50.6598614  64.4243236
 125.8719039  49.3860190  63.9960050 121.0924193  52.7359689  71.3025152
 120.9468774  53.0499993  72.1949434 120.6149397  53.3544590  70.7496051
 122.9520576  49.7262237  71.3506042 122.9382145  48.8303331  71.0138340
 123.6693004  49.7332901  71.9844328 124.8046707  50.1599578  73.3959169
 124.5464485  51.0816648  73.3943500 124.2731747  49.7630012  74.0859633
 129.7492896  63.2650365  66.1749255 129.9229773  62.6996787  65.4223107
 130.2421787  64.0651260  65.9928745 115.5669856  55.2765034  74.2412813
 115.0223324  56.0524842  74.3733088 116.4449205  55.6235838  74.0831935
 122.3557472  48.6076618  66.6193612 122.4773383  47.6793264  66.8184500
 122.0659515  48.6215304  65.7071927 125.2248663  46.2931528  69.7560332
 125.2470359  46.3570861  68.8012311 125.6416722  45.4536037  69.9500838
 135.6032287  56.0286788  67.7939554 136.0463433  55.2794113  67.3958678
 134.7258797  56.0196924  67.4113286 130.7368068  62.5817129  63.2746153
 131.4318973  63.2023822  63.4933468 131.0791218  61.7312480  63.5498531
 116.3535877  54.4034930  77.1342970 115.6117613  54.5517565  77.7207601
 116.0328622  54.6643196  76.2709720 132.6359491  60.0316835  64.8033484
 133.1610815  60.3704107  64.0782804 132.5481844  59.0963850  64.6196618
 124.2979540  63.9450908  76.9323360 124.6066667  63.7000055  77.8046060
 125.0955022  64.1497547  76.4442231 124.3200152  66.0988818  69.1628737
 123.8805142  65.6065197  69.8561594 125.0708269  65.5561786  68.9220812
 116.7992491  62.2900359  69.1653365 117.6250511  61.9904131  68.7852009
 116.4486543  61.5207981  69.6143154 121.7674024  61.6426827  71.2351039
 121.1454034  60.9797532  70.9353266 122.4378891  61.6687959  70.5524686
 115.0001096  60.2086685  70.1242299 114.1633004  59.7808860  69.9426300
 114.9724742  60.4019129  71.0613090 121.8398552  50.1208615  80.8283545
 121.8886707  50.9970738  80.4461314 122.3821066  49.5786008  80.2555188
 132.3253397  60.6649738  80.1084682 131.5348941  60.6473877  79.5689181
 132.0886752  61.2038032  80.8633718 132.4451272  57.5142205  77.4217410
 132.4949277  57.3492212  78.3632933 132.3365196  56.6469464  77.0315291
 121.3287531  60.1930750  64.7109499 121.4775652  60.8766215  64.0576172
 122.1353975  60.1735840  65.2258955 129.7355035  53.4973133  78.7376717
 130.6364898  53.3579598  78.4460715 129.8103009  53.6627588  79.6774894
 124.0697840  50.8739988  77.5829903 123.2001150  51.1673554  77.3112492
 124.3057321  51.4580433  78.3037167 133.9469469  59.9339146  77.6659432
 133.6554278  60.2969127  78.5022893 133.3341601  59.2206155  77.4872764
 135.1465152  57.4992026  70.1862002 135.9812043  57.9381830  70.3499562
 135.2824280  57.0230679  69.3670248 132.1956658  55.0571761  76.1339490
 132.6710779  55.2499407  75.3258341 131.2722223  55.1130947  75.8882873
 119.0840164  56.2195928  65.7170568 118.8386206  55.3158258  65.9150778
 119.2536079  56.2213079  64.7750046 126.7736874  47.0919604  75.0995324
 127.2918818  47.8280631  74.7741812 126.4192007  47.3983598  75.9342083
 118.3535812  51.9524286  63.2156730 117.6605057  52.0268641  62.5596765
 118.1087564  51.1884629  63.7378246 127.0249468  43.5119887  70.6196220
 127.3051222  42.8443076  71.2456647 127.8100075  43.7048983  70.1070884
 124.8282937  62.6878881  62.1821247 124.2556904  63.3069068  61.7291718
 125.4015730  63.2378243  62.7161169 130.8958327  51.9337521  74.3667795
 131.8475749  52.0335619  74.3880019 130.7261777  51.1415790  74.8765880
 128.9172706  49.0193104  74.5527196 128.3222638  49.2998117  73.8573685
 128.6322403  49.5087005  75.3243937 128.0480196  62.9716031  63.3129829
 128.9810870  62.9061593  63.5162704 127.9603409  63.8072298  62.8544361
 130.6768213  62.2881901  60.2733776 130.5981845  61.9541765  61.1669534
 131.4977880  62.7803669  60.2725249 133.3746404  55.1543641  73.4810095
 133.3422724  54.2159641  73.6669779 133.9847028  55.2327677  72.7475920
 125.2129735  54.0239694  59.5237299 126.1588840  53.8945902  59.5925717
 124.8343980  53.2854356  60.0006727 133.5240893  51.9454684  73.5268378
 133.0079941  51.1613141  73.3398307 134.4080841  51.6173401  73.6914898
 131.1851620  45.6895700  69.4864191 130.9876441  45.3810788  70.3707523
 131.7951325  46.4157339  69.6162121 139.1922954  56.2159647  72.6216132
 139.9226343  55.9544936  73.1823835 138.5829900  55.4788369  72.6618200
 137.2738251  54.3567510  73.2190583 136.5471415  54.2223475  72.6107075
 136.8585538  54.6644339  74.0247301 125.0968428  58.0757440  80.9837956
 126.0171437  58.2536039  81.1778003 125.0618011  57.1313485  80.8317655
 123.3972652  51.9489670  59.4592184 122.4904108  51.6522783  59.5354898
 123.6748633  51.6519488  58.5926471 114.3150593  53.2696033  69.9091231
 113.9953377  52.4161342  69.6165605 113.7684021  53.4844612  70.6649198
 118.0930500  55.9858474  73.6260737 118.3116510  56.9175582  73.6448771
 118.5056274  55.6266449  74.4115541 125.0134718  46.4926560  65.6136426
 124.2035446  46.1473645  65.9891672 125.7019135  46.1834103  66.2024037
 126.9425266  45.5704607  67.2360722 127.4956305  45.9900060  67.8950745
 127.1795353  44.6440355  67.2783678 122.9658366  51.5591680  83.0163486
 122.8655093  52.5086037  82.9475577 122.7479908  51.2309919  82.1439556
 122.1671437  48.8076605  59.6004163 123.0290601  49.1331504  59.8599981
 122.3521781  48.0208101  59.0877229 114.1838853  56.8898945  71.8784352
 113.4902324  56.4752898  71.3654307 114.9311844  56.9319481  71.2817771
 130.3204073  47.6805132  66.7439386 129.7402743  48.3389936  66.3617439
 130.0540006  46.8582476  66.3326804 128.7707640  47.0810189  68.9460707
 129.2707418  47.1926724  68.1375026 129.4143248  46.7771242  69.5861515
 122.8289636  54.9888819  81.8328548 122.3456717  55.7889179  82.0392437
 122.9150575  54.9996764  80.8795992 116.0975595  56.8217199  69.7550367
 116.0746283  56.9204886  68.8032250 116.4076232  57.6682349  70.0767533
 118.7562973  58.8793354  73.8696982 119.7106227  58.8477296  73.8026913
 118.5575497  58.4183977  74.6847207 119.3462355  57.4494470  76.4367779
 120.1655244  57.9438548  76.4602617 119.6199163  56.5326438  76.4085347
 129.1028951  49.8405222  65.7995735 128.2154807  50.1254873  65.5815929
 129.5182941  49.6798985  64.9523012 132.4543488  49.8651743  69.5150074
 133.2303878  50.3548196  69.7874691 131.7291622  50.2909797  69.9721943
 134.8916046  50.5779362  70.5724015 135.4860537  50.3375098  69.8617323
 134.9642630  49.8586493  71.1997551 117.1113202  64.4212973  70.8867179
 116.9767670  63.6613374  70.3205177 116.6945264  65.1453873  70.4195968
 128.2472165  59.6049897  59.8943755 128.9508015  59.8099899  60.5101410
 127.5234814  60.1726659  60.1592838 129.0769975  55.3559758  66.0146025
 129.0205177  55.8128309  65.1753657 129.6298318  54.5950443  65.8368868
 132.8874781  51.1449490  66.8396144 132.6311715  50.7446126  67.6704352
 132.2627649  51.8593284  66.7146284 137.1987119  53.8845563  69.3467436
 136.6386677  53.9538752  70.1198998 136.5930622  53.7086548  68.6266932
 120.2682328  65.3182290  71.0985622 120.1514712  66.2627723  70.9964312
 119.4474774  65.0155852  71.4871421 130.1558862  60.0432426  61.9442215
 130.9904466  59.6113624  61.7619690 129.9943205  59.8714440  62.8719109
 129.8104755  56.5464539  63.3098554 129.7553558  56.3808811  62.3686998
 129.1850810  57.2540572  63.4660744 114.5997270  51.7832604  77.1359976
 115.2456133  51.2731558  77.6247201 114.3914421  52.5201285  77.7103402
 127.1250662  58.8513451  82.6352117 127.9941821  59.0254103  82.2738752
 126.6457413  59.6707868  82.5127846 123.1200880  46.0472648  62.8883872
 123.1079550  46.9914488  63.0452143 124.0124302  45.8642794  62.5943334
 121.2936842  65.9710552  74.3141551 122.1964089  66.0034162  74.6308045
 121.0674212  65.0411003  74.3287886 123.0490444  64.7241539  70.9751629
 122.0986075  64.7243400  70.8616001 123.3522930  63.9774273  70.4587664
 126.9352999  42.6415425  67.1429809 126.1685395  42.0873912  67.2886492
 127.3463704  42.7137294  68.0043961 118.9394761  48.9300221  81.2334991
 119.8026222  48.5737026  81.4438315 118.3660171  48.5914116  81.9210395
 138.7843137  70.5602077  72.0397392 139.4221547  70.4408824  71.3360732
 138.6663980  71.5082921  72.0985344 135.5932844  70.5129505  71.9758916
 135.2551355  70.3970570  71.0879451 136.4622612  70.1120670  71.9559922
 131.4519659  72.3664982  67.9655807 130.8884525  72.2754919  67.1972095
 131.3372054  71.5464886  68.4458300 136.0752627  71.6664357  77.9345122
 136.0641267  71.2717155  77.0625625 136.2373266  70.9330430  78.5278893
 128.9984091  73.8616173  70.8040028 129.7905383  73.5206998  70.3886327
 129.2380742  73.9711148  71.7242181 137.0319218  76.0335949  63.2770272
 136.3807198  76.6190030  62.8904286 137.8263581  76.5642144  63.3365310
 130.9574845  73.1225086  63.6757406 131.7305721  72.5754074  63.5370282
 131.3100244  73.9869336  63.8871868 132.7959888  74.4501469  76.8824306
 132.5049754  75.3547100  76.7670972 133.4316872  74.4917996  77.5968375
 133.7216095  71.8278317  73.4725665 134.3179667  71.6034340  72.7582628
 133.7791066  71.0863063  74.0751113 133.2941123  69.2817753  61.3075856
 133.5466644  68.7599274  60.5459319 132.3565682  69.1183898  61.4102540
 138.3384406  68.2853531  69.1150600 139.1247495  67.8672954  68.7641017
 138.6023110  69.1899623  69.2832248 138.5094483  73.7226381  63.8139256
 137.8740316  73.7961008  64.5260161 138.1791890  74.3119980  63.1358336
 133.0137412  71.1845859  63.5100231 132.8973670  70.5090762  64.1781316
 133.1239672  70.6978232  62.6932384 135.3568953  70.6456006  67.2146921
 134.9927160  70.1186627  67.9259842 136.2136069  70.2554475  67.0413406
 134.9974440  65.6745905  62.2108269 135.1648842  66.5426142  62.5778740
 134.8071609  65.8373187  61.2869558 137.7549773  74.1362884  73.8774099
 137.4550496  75.0387923  73.7689907 137.4100832  73.8695067  74.7295252
 131.2062254  70.5876681  69.9110804 130.2812751  70.4552895  70.1188496
 131.4546668  71.3670900  70.4080746 141.1546917  66.6545424  71.5571537
 140.2463794  66.5860833  71.2630298 141.1034513  67.1317369  72.3853362
 134.9763661  68.1303563  63.1954936 134.8563286  68.5760614  64.0340416
 134.2816249  68.4788880  62.6368474 128.5671065  70.2309955  70.7454593
 128.6963447  70.4844434  71.6594005 127.8868517  70.8237663  70.4259248
 132.7370553  80.9007205  66.8445067 132.6594582  81.8515030  66.9233548
 132.1332196  80.5553077  67.5019993 135.2287783  68.0735070  79.5006434
 134.4521117  68.6328990  79.4909299 135.8678346  68.5591853  80.0221304
 133.4834155  70.8820523  79.0624401 134.2248839  71.4205567  78.7859225
 132.7771140  71.5086812  79.2195953 138.9589494  73.0249664  77.6596563
 139.3672850  72.5832074  76.9151195 138.2366756  72.4502291  77.9130755
 135.3120565  67.9622271  75.0330119 136.1581760  68.3861684  75.1764768
 135.2519202  67.3055895  75.7268683 139.2818309  73.5850854  71.4148851
 138.6527172  73.7496569  70.7124919 138.8943971  73.9992464  72.1859815
 138.4620010  65.6226639  76.6911293 138.2180942  66.3768699  76.1545569
 138.7379940  66.0011987  77.5258540 140.4158473  72.1665251  75.3688559
 140.6275368  72.8097011  74.6922940 140.3688221  71.3327568  74.9010489
 138.0184702  64.7783072  72.2725131 137.1569181  65.0764326  72.5641868
 138.0447136  64.9953471  71.3406163 134.8346271  73.3225263  68.6798936
 135.2984617  73.6012966  67.8903559 134.5703069  72.4208707  68.4972027
 131.7270352  72.8696744  71.6178700 132.2971709  73.2984012  70.9796184
 132.3178464  72.5879329  72.3162885 133.7715157  69.4448415  65.4888502
 134.4739200  69.8969459  65.9562428 133.4395786  68.8032234  66.1168395
 132.2195519  68.0360172  79.8639711 131.5894179  68.7176452  80.0975108
 132.1131606  67.9243253  78.9192849 127.5140491  67.7031968  70.7905635
 126.7239545  67.9589496  70.3145746 128.0051738  68.5180305  70.8957676
 129.4655236  68.0676547  67.7489112 128.6686400  68.1795241  68.2672608
 129.2380829  68.4063199  66.8830002 135.2960904  74.5921250  75.6971627
 135.3605337  75.0541657  76.5329798 134.5871828  73.9618615  75.8253936
 125.7978194  67.9562458  73.2220626 126.0486232  68.8409468  73.4878202
 126.3337742  67.7767060  72.4495718 135.0108922  76.2589358  65.5650607
 134.8754596  77.1040893  65.9935455 135.5518734  76.4608635  64.8016541
 131.4976261  62.3380937  82.2264962 131.1043207  61.7847136  82.9012606
 132.3142402  62.6491516  82.6171480 128.4638319  73.7764796  66.1378532
 128.9762840  74.5708046  66.2884097 129.1161032  73.0791086  66.0712133
 130.2733204  76.8930552  68.2201285 130.4499832  77.8148517  68.0322269
 131.0690037  76.5788971  68.6495665 134.4144222  63.7538816  79.8185219
 135.1553936  64.3545970  79.7389681 134.6462145  63.0116454  79.2603261
 129.5585560  68.9395184  78.0963448 129.4439075  68.0380441  78.3970547
 128.7030078  69.1858880  77.7448265 136.6377398  76.8812924  79.6950949
 136.1941252  76.0949303  79.3771853 137.2994612  77.0692075  79.0294840
 131.3964519  78.4108726  74.2211627 131.9471944  78.2825789  73.4488621
 130.5575995  78.7103615  73.8706520 138.7358636  77.1615724  77.7232350
 138.7177111  77.9824605  77.2312619 139.6578556  77.0369799  77.9482491
 135.1931690  74.6759853  78.5655859 135.7260027  73.9148142  78.3355167
 134.6645771  74.3833505  79.3080013 138.3601385  59.7819919  74.0949500
 138.0165655  60.6721561  74.0188611 138.7280348  59.5921577  73.2319085
 126.4287236  72.1053450  66.9138102 127.2662458  72.5150458  66.6971810
 126.6065504  71.1652892  66.8838296 138.3251668  69.7728530  62.6021935
 137.8098291  70.5433135  62.8410323 138.0528976  69.0993667  63.2254997
 135.9098779  64.6178231  67.6607174 135.0540375  64.2285082  67.4812812
 136.3225731  64.6970192  66.8006959 137.4397926  62.1524575  72.0598734
 136.9362721  62.1154710  71.2466539 137.7328532  63.0617317  72.1195390
 133.6840811  62.2363304  71.0664915 134.5493808  62.0406113  70.7070805
 133.7518320  62.0073656  71.9934272 138.1137971  67.6455623  64.4281717
 137.8088107  67.9601772  65.2791860 139.0668413  67.7237042  64.4709050
 136.5584403  73.8045846  66.0774671 136.0305765  73.0698605  65.7647908
 136.0571906  74.5820522  65.8314639 131.2903131  64.4665512  68.4381282
 131.8646882  64.2440694  67.7054475 131.8774113  64.5354207  69.1909883
 140.3482708  70.3539239  69.2445659 140.8614590  70.9869231  69.7467368
 140.9983932  69.7540435  68.8789019 131.6172718  66.4969973  62.4577167
 130.7810030  66.8344660  62.7786442 131.4777487  66.3618953  61.5204304
 133.5925798  61.3406761  67.1656352 132.9390211  61.0255778  66.5412966
 133.5506272  60.7182502  67.8916174 134.7037003  71.6226056  59.0809644
 133.7964065  71.3915310  59.2800793 135.2008035  70.8263675  59.2683625
 137.6105082  80.3323563  62.0006330 136.9366781  80.6355260  62.6091288
 137.9970904  81.1352644  61.6511787 136.8263539  67.8288695  71.4903999
 135.9086100  68.0503642  71.3325687 137.2423682  67.9035005  70.6315706
 137.6098586  69.2280110  66.6206679 138.3570405  69.7401508  66.3113801
 137.8790176  68.9064163  67.4811073 135.8825237  71.7238651  63.6033634
 134.9736456  71.4397684  63.7006103 135.9120320  72.1437730  62.7436941
 141.1144504  75.3345241  67.3724801 140.6606831  74.4936150  67.4289992
 140.4838471  75.9706639  67.7099581 140.0577424  66.2637227  68.6025469
 139.3200180  65.7514613  68.9335711 140.3104197  65.8237608  67.7908746
 139.5577443  77.1721737  68.3074619 139.8500418  77.7326794  67.5886985
 140.0676064  77.4650298  69.0627779 140.1589051  59.0413479  69.1967238
 140.4647928  58.1810842  68.9093153 140.8841656  59.6331099  68.9966232
 126.4513407  69.4444165  67.5848836 126.2537807  68.8513526  66.8599902
 125.8960071  69.1396375  68.3024775 134.4310131  69.3367272  69.7043429
 134.4858740  68.3841108  69.6285906 133.6201333  69.4926711  70.1884727
 135.5801324  73.2647395  60.9421712 135.1420754  72.5483254  60.4827350
 136.3211765  73.4923510  60.3806804 132.3702491  67.9544331  67.4633808
 131.5570356  68.2538502  67.8699000 132.8661485  67.5600020  68.1808290
 134.5211068  77.9502088  69.3968073 134.4787247  78.1762935  68.4676605
 135.4373767  77.7165463  69.5453874 137.9676702  68.4186156  76.2948702
 138.3226090  68.6457629  77.1543168 138.6148833  68.7504533  75.6725957
 131.8616565  65.5262687  73.0795043 132.5015945  65.3851446  72.3818006
 131.0294096  65.2397200  72.7033645 132.6376869  74.8265117  69.1930035
 133.4317468  74.3315437  68.9912610 131.9268562  74.2982980  68.8297741
 137.4571714  77.2083213  73.5442403 137.5108736  77.7774149  74.3120119
 136.5886495  77.3785098  73.1796440 128.9459633  68.9708199  65.2689788
 128.0157221  68.9092655  65.4859750 129.0417105  68.4484152  64.4726429
 128.8645182  65.4963012  67.8568030 129.1251999  66.4108345  67.7477190
 129.6862354  65.0287454  68.0064642 130.3370107  66.9100769  75.0266854
 131.0093160  66.7018131  74.3779503 129.5099894  66.7122855  74.5872086
 136.2395679  63.5362710  77.0432515 135.5923594  64.2352660  76.9496991
 137.0096694  63.9698854  77.4108763 139.6474477  73.8011562  80.1183068
 139.4959983  73.5722114  79.2013152 139.6379156  74.7582164  80.1314413
 136.4159813  71.3743475  75.1029335 137.3451873  71.5254635  74.9298302
 135.9950843  71.4627496  74.2477981 135.2148145  75.3994139  72.8727872
 135.0759231  75.0312924  73.7453811 134.4262741  75.9141779  72.7011830
 135.8096297  80.5003236  64.2153409 135.9848053  80.0291279  65.0299032
 135.1229085  81.1269002  64.4434670 136.7653360  74.7775742  70.2616710
 136.4303193  74.7376512  71.1574360 136.2657306  74.1120458  69.7887120
 130.7397604  70.1843372  75.7869291 130.6017402  69.4523611  76.3880830
 131.6502528  70.0952272  75.5053479 139.7012552  72.1231776  60.5353770
 139.0841723  71.3978605  60.4386823 139.2329040  72.8841137  60.1920844
 133.3679905  69.8963331  75.2752971 134.0779524  69.2556524  75.2339589
 133.3249213  70.1476226  76.1979152 132.0808839  66.8828549  77.0948610
 131.5446196  66.4319288  77.7470207 131.4925547  67.0174458  76.3519075
 130.3757382  83.6492599  70.9893269 130.6153981  84.2811123  71.6672288
 129.5326579  83.2980639  71.2758628 131.4911098  66.3417201  59.6575074
 130.6140564  66.2206001  59.2937321 131.9668851  65.5503279  59.4053963
 123.0113238  71.1294360  69.7516581 123.6984278  70.8156090  69.1637597
 122.8561367  72.0335725  69.4783833 127.8147960  66.0184557  74.1801605
 127.7306149  65.4110227  73.4452015 126.9930667  66.5093575  74.1811101
 134.8885244  79.4571721  73.3934773 134.8155416  80.2626692  73.9054078
 134.4462637  79.6563687  72.5682794 134.6775024  78.6943491  66.9037595
 133.8942546  79.2365171  66.9975819 135.3767769  79.2117471  67.3031836
 137.9871674  64.5038120  69.5471800 138.4840374  63.7508083  69.2272870
 137.2158656  64.5402437  68.9815009 137.3483928  79.3558555  75.5492932
 138.0611900  79.9906020  75.4768833 136.8573956  79.4522421  74.7332934
 139.0701455  73.2609808  67.1210223 138.1357733  73.3811270  66.9514928
 139.2478123  72.3582274  66.8570233 134.5706643  66.6455503  69.2743485
 134.2004430  66.0926544  69.9624390 135.0665735  66.0413637  68.7218485
 132.3995841  77.1052998  76.3698503 133.1005301  77.7389481  76.5227897
 131.9290956  77.4467730  75.6094142 140.5250237  75.4470948  64.6546410
 140.8010081  75.3327543  65.5640284 139.6554736  75.0488433  64.6158583
 140.4290669  61.4707714  71.6951159 139.5153749  61.7011941  71.8633366
 140.8583770  61.5546158  72.5465191 140.1997127  69.6597606  74.1951053
 139.5468578  69.9073513  73.5403506 140.5777507  68.8461744  73.8613530
 137.1604301  79.6957299  68.2979223 137.3426696  78.8778955  68.7606976
 137.9837287  79.9124991  67.8604113 137.4946467  78.6225484  65.5594272
 138.0234233  78.1117939  64.9464434 137.7574686  78.3068014  66.4239805
 136.2484700  70.4017417  80.6817090 135.5725337  70.3011546  81.3519465
 137.0712334  70.2456631  81.1453087 127.9963559  76.6389354  73.3029605
 128.5816996  75.8933041  73.4357509 127.7988398  76.9493310  74.1866269
 130.8502215  79.6740601  68.3192048 130.1812590  80.1586729  67.8356088
 130.7115084  79.9209821  69.2335426 122.5881214  69.2094954  72.0234048
 122.6265314  68.6758544  72.8171167 122.0821507  68.6830159  71.4045026
 134.9907483  81.7084344  74.9174706 135.5425791  81.8715966  75.6823791
 135.3313677  82.2988782  74.2454731 129.9671976  64.0559494  75.5196591
 130.0313303  64.9174325  75.1073988 129.9039097  63.4433496  74.7868949
 129.4424249  66.1282627  79.1669625 130.0696288  65.7459704  79.7807149
 128.5852168  65.9096829  79.5325317 139.8418358  76.5345602  80.7723360
 140.3858262  77.1475560  80.2778315 139.2605202  77.0925180  81.2890373
 126.2189792  67.9359056  65.0987980 126.5143233  67.0269734  65.0455033
 125.3177828  67.9146795  64.7768982 138.1275871  79.6566320  71.9038388
 138.0027010  78.8556060  71.3949334 138.7854962  80.1512513  71.4152358
 129.7484039  66.0115052  71.0815528 129.0270625  66.6251020  70.9423002
 130.5377295  66.5472817  71.0032174 140.1910779  77.4575340  73.5317938
 139.2441114  77.3380691  73.4596265 140.5393552  76.5697838  73.6144200
 132.5510352  63.3469479  77.3556180 133.0744754  63.5931776  78.1182489
 132.3322686  64.1789514  76.9359317 127.9477633  65.6173154  65.2227305
 127.6190339  64.7370532  65.0402411 128.3017004  65.5620822  66.1103694
 137.1957212  77.2528056  69.7322290 137.0482175  76.3244764  69.9129861
 138.0210706  77.2748147  69.2479366 131.0619456  65.9046123  65.5902783
 131.4015529  66.4332045  64.8681391 131.5091577  66.2426529  66.3661349
 133.7562897  64.2883174  75.0405851 133.4159718  63.4890987  75.4426531
 133.0501904  64.5884885  74.4682684 134.4079369  61.3732486  73.4933174
 135.2305438  60.8992965  73.3712064 134.6517433  62.1522970  73.9931860
 133.0487604  64.4020745  63.7896075 133.7695966  64.7801998  63.2859792
 132.4252908  65.1209622  63.8931053 137.1918727  65.1065894  64.7254408
 137.4082341  65.9890532  64.4243236 136.7112794  64.7152107  63.9960050
 131.9317948  68.0651607  71.3025152 131.7862529  68.3791910  72.1949434
 131.4543152  68.6836507  70.7496051 133.7914331  65.0554155  71.3506042
 133.7775900  64.1595248  71.0138340 134.5086759  65.0624819  71.9844328
 135.6440461  65.4891495  73.3959169 135.3858239  66.4108566  73.3943500
 135.1125502  65.0921930  74.0859633 140.5886650  78.5942282  66.1749255
 140.7623528  78.0288705  65.4223107 141.0815541  79.3943177  65.9928745
 126.4063610  70.6056952  74.2412813 125.8617078  71.3816760  74.3733088
 127.2842960  70.9527756  74.0831935 133.1951227  63.9368535  66.6193612
 133.3167138  63.0085182  66.8184500 132.9053269  63.9507221  65.7071927
 136.0642417  61.6223446  69.7560332 136.0864114  61.6862779  68.8012311
 136.4810476  60.7827954  69.9500838 127.1929632  69.7326848  77.1342970
 126.4511368  69.8809483  77.7207601 126.8722376  69.9935113  76.2709720
 135.1373295  79.2742826  76.9323360 135.4460421  79.0291973  77.8046060
 135.9348777  79.4789465  76.4442231 135.1593907  81.4280736  69.1628737
 134.7198897  80.9357114  69.8561594 135.9102024  80.8853703  68.9220812
 127.6386246  77.6192277  69.1653365 128.4644266  77.3196048  68.7852009
 127.2880298  76.8499899  69.6143154 132.6067779  76.9718745  71.2351039
 131.9847788  76.3089450  70.9353266 133.2772646  76.9979877  70.5524686
 125.8394851  75.5378603  70.1242299 125.0026759  75.1100777  69.9426300
 125.8118496  75.7311046  71.0613090 132.6792306  65.4500533  80.8283545
 132.7280462  66.3262656  80.4461314 133.2214820  64.9077926  80.2555188
 132.1681286  75.5222668  64.7109499 132.3169406  76.2058132  64.0576172
 132.9747729  75.5027758  65.2258955 134.9091595  66.2031905  77.5829903
 134.0394904  66.4965471  77.3112492 135.1451075  66.7872350  78.3037167
 129.9233919  71.5487846  65.7170568 129.6779961  70.6450176  65.9150778
 130.0929833  71.5504996  64.7750046 137.6130629  62.4211522  75.0995324
 138.1312572  63.1572549  74.7741812 137.2585761  62.7275515  75.9342083
 129.1929566  67.2816203  63.2156730 128.4998811  67.3560558  62.5596765
 128.9481318  66.5176547  63.7378246 137.8643223  58.8411805  70.6196220
 138.1444976  58.1734994  71.2456647 138.6493830  59.0340900  70.1070884
 135.6676691  78.0170799  62.1821247 135.0950658  78.6360986  61.7291718
 136.2409485  78.5670160  62.7161169 139.7566461  64.3485022  74.5527196
 139.1616393  64.6290035  73.8573685 139.4716157  64.8378923  75.3243937
 138.8873951  78.3007949  63.3129829 139.8204624  78.2353510  63.5162704
 138.7997164  79.1364216  62.8544361 136.0523490  69.3531611  59.5237299
 136.9982594  69.2237819  59.5925717 135.6737735  68.6146273  60.0006727
 135.9362182  73.4049357  80.9837956 136.8565192  73.5827956  81.1778003
 135.9011765  72.4605403  80.8317655 134.2366407  67.2781588  59.4592184
 133.3297862  66.9814700  59.5354898 134.5142388  66.9811406  58.5926471
 125.1544347  68.5987951  69.9091231 124.8347132  67.7453259  69.6165605
 124.6077775  68.8136529  70.6649198 128.9324255  71.3150392  73.6260737
 129.1510265  72.2467500  73.6448771 129.3450029  70.9558366  74.4115541
 135.8528473  61.8218477  65.6136426 135.0429201  61.4765562  65.9891672
 136.5412890  61.5126021  66.2024037 137.7819021  60.8996524  67.2360722
 138.3350059  61.3191978  67.8950745 138.0189107  59.9732272  67.2783678
 133.8052120  66.8883598  83.0163486 133.7048847  67.8377955  82.9475577
 133.5873662  66.5601837  82.1439556 133.0065191  64.1368523  59.6004163
 133.8684355  64.4623421  59.8599981 133.1915536  63.3500019  59.0877229
 125.0232607  72.2190863  71.8784352 124.3296079  71.8044815  71.3654307
 125.7705598  72.2611399  71.2817771 139.6101394  62.4102107  68.9460707
 140.1101173  62.5218642  68.1375026 140.2537002  62.1063160  69.5861515
 133.6683390  70.3180737  81.8328548 133.1850472  71.1181097  82.0392437
 133.7544329  70.3288682  80.8795992 126.9369350  72.1509116  69.7550367
 126.9140038  72.2496804  68.8032250 127.2469986  72.9974267  70.0767533
 129.5956728  74.2085271  73.8696982 130.5499981  74.1769214  73.8026913
 129.3969251  73.7475895  74.6847207 130.1856110  72.7786387  76.4367779
 131.0048999  73.2730466  76.4602617 130.4592917  71.8618356  76.4085347
 139.9422706  65.1697140  65.7995735 139.0548561  65.4546790  65.5815929
 140.3576695  65.0090903  64.9523012 127.9506956  79.7504891  70.8867179
 127.8161424  78.9905292  70.3205177 127.5339019  80.4745791  70.4195968
 139.0865919  74.9341814  59.8943755 139.7901770  75.1391817  60.5101410
 138.3628568  75.5018576  60.1592838 139.9163730  70.6851676  66.0146025
 139.8598931  71.1420227  65.1753657 140.4692072  69.9242360  65.8368868
 131.1076082  80.6474208  71.0985622 130.9908466  81.5919640  70.9964312
 130.2868529  80.3447769  71.4871421 140.6498509  71.8756457  63.3098554
 140.5947313  71.7100728  62.3686998 140.0244564  72.5832490  63.4660744
 125.4391024  67.1124521  77.1359976 126.0849888  66.6023475  77.6247201
 125.2308175  67.8493203  77.7103402 137.9644416  74.1805369  82.6352117
 138.8335576  74.3546021  82.2738752 137.4851168  74.9999786  82.5127846
 133.9594634  61.3764566  62.8883872 133.9473304  62.3206406  63.0452143
 134.8518056  61.1934711  62.5943334 132.1330596  81.3002470  74.3141551
 133.0357843  81.3326080  74.6308045 131.9067966  80.3702921  74.3287886
 133.8884198  80.0533456  70.9751629 132.9379829  80.0535318  70.8616001
 134.1916685  79.3066191  70.4587664 137.7746754  57.9707343  67.1429809
 137.0079150  57.4165829  67.2886492 138.1857459  58.0429211  68.0043961
 129.7788515  64.2592138  81.2334991 130.6419977  63.9028943  81.4438315
 129.2053926  63.9206033  81.9210395 139.8377846  89.1908091  70.8040028
 140.6299138  88.8498915  70.3886327 140.0774496  89.3003066  71.7242181
 139.4064820  85.5601872  70.7454593 139.5357201  85.8136351  71.6594005
 138.7262271  86.1529580  70.4259248 138.3534245  83.0323885  70.7905635
 137.5633299  83.2881414  70.3145746 138.8445493  83.8472223  70.8957676
 140.3048991  83.3968464  67.7489112 139.5080154  83.5087159  68.2672608
 140.0774583  83.7355117  66.8830002 136.6371948  83.2854376  73.2220626
 136.8879987  84.1701386  73.4878202 137.1731497  83.1058977  72.4495718
 139.3032074  89.1056713  66.1378532 139.8156594  89.8999963  66.2884097
 139.9554786  88.4083004  66.0712133 140.3979315  84.2687101  78.0963448
 140.2832830  83.3672359  78.3970547 139.5423833  84.5150798  77.7448265
 137.2680990  87.4345368  66.9138102 138.1056212  87.8442376  66.6971810
 137.4459258  86.4944810  66.8838296 137.2907161  84.7736083  67.5848836
 137.0931561  84.1805444  66.8599902 136.7353825  84.4688293  68.3024775
 139.7853387  84.3000117  65.2689788 138.8550975  84.2384572  65.4859750
 139.8810859  83.7776070  64.4726429 139.7038936  80.8254930  67.8568030
 139.9645754  81.7400263  67.7477190 140.5256109  80.3579372  68.0064642
 133.8506993  86.4586278  69.7516581 134.5378032  86.1448008  69.1637597
 133.6955121  87.3627643  69.4783833 138.6541715  81.3476475  74.1801605
 138.5699903  80.7402144  73.4452015 137.8324421  81.8385493  74.1811101
 138.8357314  91.9681271  73.3029605 139.4210751  91.2224959  73.4357509
 138.6382152  92.2785228  74.1866269 133.4274969  84.5386871  72.0234048
 133.4659068  84.0050462  72.8171167 132.9215261  84.0122077  71.4045026
 140.8065731  79.3851412  75.5196591 140.8707057  80.2466243  75.1073988
 140.7432851  78.7725414  74.7868949 140.2818003  81.4574544  79.1669625
 140.9090042  81.0751622  79.7807149 139.4245922  81.2388746  79.5325317
 137.0583546  83.2650974  65.0987980 137.3536987  82.3561652  65.0455033
 136.1571582  83.2438713  64.7768982 138.7871388  80.9465071  65.2227305
 138.4584094  80.0662450  65.0402411 139.1410759  80.8912740  66.1103694
 137.2457365  85.9348869  74.2412813 136.7010833  86.7108677  74.3733088
 138.1236714  86.2819674  74.0831935 138.0323386  85.0618765  77.1342970
 137.2905122  85.2101401  77.7207601 137.7116131  85.3227031  76.2709720
 138.4780000  92.9484194  69.1653365 139.3038020  92.6487966  68.7852009
 138.1274052  92.1791817  69.6143154 136.6788605  90.8670521  70.1242299
 135.8420513  90.4392695  69.9426300 136.6512251  91.0602964  71.0613090
 140.7627673  86.8779763  65.7170568 140.5173715  85.9742093  65.9150778
 140.9323588  86.8796914  64.7750046 140.0323321  82.6108121  63.2156730
 139.3392566  82.6852476  62.5596765 139.7875073  81.8468465  63.7378246
 135.9938102  83.9279869  69.9091231 135.6740886  83.0745177  69.6165605
 135.4471530  84.1428447  70.6649198 139.7718009  86.6442310  73.6260737
 139.9904019  87.5759418  73.6448771 140.1843783  86.2850284  74.4115541
 135.8626362  87.5482780  71.8784352 135.1689833  87.1336733  71.3654307
 136.6099353  87.5903317  71.2817771 137.7763104  87.4801034  69.7550367
 137.7533792  87.5788721  68.8032250 138.0863741  88.3266185  70.0767533
 138.7900711  95.0796809  70.8867179 138.6555179  94.3197209  70.3205177
 138.3732773  95.8037708  70.4195968 136.2784779  82.4416439  77.1359976
 136.9243642  81.9315393  77.6247201 136.0701930  83.1785121  77.7103402
 100.2189291  11.9193574  53.5690374 100.1413320  12.8701399  53.6478854
  99.6150934  11.5739447  54.2265300 102.4927659   7.2775727  52.2895913
 102.3573334   8.1227263  52.7180761 103.0337472   7.4795005  51.5261847
  97.7551942   7.9116921  54.9446592  97.9318570   8.8334886  54.7567576
  98.5508775   7.5975341  55.3740972  98.8783257   9.4295095  60.9456934
  99.4290682   9.3012159  60.1733928  98.0394733   9.7289984  60.5951827
 105.0923820  11.3509933  48.7251636 104.4185519  11.6541630  49.3336594
 105.4789642  12.1539013  48.3757093 102.0029806   8.9688458  56.1213379
 101.9605985   9.1949304  55.1921911 102.9192505   8.7351832  56.2699180
 104.9390451   8.2269582  60.2687710 104.9927474   8.7960519  61.0365425
 104.0705233   8.3971467  59.9041747 103.2915035  11.5189605  50.9398716
 103.4666791  11.0477649  51.7544338 102.6047823  12.1455372  51.1679976
  97.8576120  14.6678968  57.7138576  98.0972718  15.2997492  58.3917594
  97.0145317  14.3167008  58.0003935 102.3703982  10.4758091  60.1180080
 102.2974154  11.2813062  60.6299384 101.9281375  10.6750056  59.2928101
 102.1593762   9.7129861  53.6282901 101.3761284  10.2551541  53.7221126
 102.8586507  10.2303840  54.0277142 104.8302666  10.3744925  62.2738238
 105.5430638  11.0092389  62.2014140 104.3392694  10.4708791  61.4578240
  99.8814579   8.1239368  63.0943809 100.5824039   8.7575851  63.2473203
  99.4109694   8.4654100  62.3339448 104.6423039  10.7143669  55.0224530
 104.8245434   9.8965325  55.4852282 105.4656025  10.9311361  54.5849420
 104.9765205   9.6411854  52.2839578 105.5052971   9.1304308  51.6709740
 105.2393424   9.3254384  53.1485111  95.4782297   7.6575723  60.0274912
  96.0635734   6.9119411  60.1602816  95.2807136   7.9679680  60.9111576
  98.3320952  10.6926970  55.0437354  97.6631328  11.1773098  54.5601394
  98.1933822  10.9396191  55.9580733 102.4726221  12.7270714  61.6420013
 103.0244529  12.8902336  62.4069098 102.8132414  13.3175152  60.9700037
 105.6094608  10.6752690  58.6283695 105.4845748   9.8742429  58.1194640
 106.2673699  11.1698883  58.1397665 102.6192032  10.2929196  63.6568667
 102.9279159  10.0478342  64.5291367 103.4167514  10.4975834  63.1687537
 102.6412644  12.4467105  55.8874044 102.2017635  11.9543484  56.5806900
 103.3920761  11.9040073  55.6466119  95.1204983   8.6378646  55.8898672
  95.9463003   8.3382418  55.5097315  94.7699035   7.8686269  56.3388460
 100.0886517   7.9905114  57.9596345  99.4666526   7.3275819  57.6598573
 100.7591383   8.0166246  57.2769993  93.3213588   6.5564973  56.8487605
  92.4845497   6.1287147  56.6671606  93.2937234   6.7497416  57.7858396
 103.1495429   9.0357168  48.9066553 102.5769396   9.6547355  48.4537025
 103.7228223   9.5856530  49.4406475 106.3692689   9.3194318  50.0375135
 107.3023362   9.2539880  50.2408011 106.2815902  10.1550585  49.5789668
  95.4325694  10.7691260  57.6112486  95.2980162  10.0091661  57.0450484
  95.0157756  11.4932160  57.1441275  98.5894820  11.6660577  57.8230929
  98.4727204  12.6106010  57.7209619  97.7687266  11.3634139  58.2116728
  99.6149334  12.3188839  61.0386857 100.5176581  12.3512450  61.3553352
  99.3886704  11.3889290  61.0533193 101.3702936  11.0719826  57.6996936
 100.4198567  11.0721688  57.5861308 101.6735422  10.3252560  57.1832970
 117.1055630  16.9080364  58.7642698 117.7434040  16.7887112  58.0606038
 116.9876473  17.8561208  58.8230650 113.9145336  16.8607792  58.7004223
 113.5763848  16.7448857  57.8124758 114.7835104  16.4598957  58.6805229
 109.7732152  18.7143269  54.6901114 109.2097017  18.6233206  53.9217402
 109.6584547  17.8943173  55.1703606 114.3965119  18.0142644  64.6590428
 114.3853760  17.6195442  63.7870932 114.5585758  17.2808717  65.2524200
 107.3196584  20.2094460  57.5285334 108.1117876  19.8685285  57.1131634
 107.5593234  20.3189435  58.4487488 115.3531710  22.3814237  50.0015579
 114.7019690  22.9668317  49.6149592 116.1476073  22.9120431  50.0610616
 109.2787338  19.4703374  50.4002713 110.0518214  18.9232361  50.2615589
 109.6312736  20.3347623  50.6117174 111.1172380  20.7979756  63.6069612
 110.8262246  21.7025387  63.4916279 111.7529364  20.8396284  64.3213682
 112.0428587  18.1756604  60.1970972 112.6392159  17.9512627  59.4827935
 112.1003559  17.4341350  60.7996420 111.6153615  15.6296040  48.0321163
 111.8679136  15.1077561  47.2704626 110.6778174  15.4662185  48.1347847
 116.6596898  14.6331818  55.8395906 117.4459987  14.2151241  55.4886323
 116.9235603  15.5377910  56.0077555 116.8306976  20.0704668  50.5384563
 116.1952809  20.1439295  51.2505468 116.5004382  20.6598267  49.8603642
 111.3349904  17.5324146  50.2345538 111.2186162  16.8569049  50.9026622
 111.4452164  17.0456520  49.4177691 113.6781445  16.9934293  53.9392227
 113.3139652  16.4664914  54.6505149 114.5348561  16.6032762  53.7658713
 113.3186932  12.0224193  48.9353576 113.4861334  12.8904429  49.3024047
 113.1284101  12.1851474  48.0114865 116.0762265  20.4841171  60.6019406
 115.7762988  21.3866210  60.4935213 115.7313325  20.2173355  61.4540559
 109.5274747  16.9354968  56.6356110 108.6025243  16.8031182  56.8433802
 109.7759160  17.7149188  57.1326053 113.2976153  14.4781850  49.9200243
 113.1775778  14.9238901  50.7585723 112.6028741  14.8267168  49.3613781
 106.8883558  16.5788242  57.4699900 107.0175939  16.8322721  58.3839311
 106.2081009  17.1715950  57.1504555 111.0583045  27.2485492  53.5690374
 110.9807075  28.1993317  53.6478854 110.4544689  26.9031364  54.2265300
 113.5500275  14.4213357  66.2251741 112.7733609  14.9807277  66.2154605
 114.1890838  14.9070140  66.7466611 118.9961219  14.9503323  50.7480577
 119.9079075  15.1830710  50.5728274 118.4870866  15.5340367  50.1855655
 111.8046647  17.2298811  65.7869708 112.5461331  17.7683855  65.5104531
 111.0983633  17.8565099  65.9441259 117.2801987  19.3727951  64.3841869
 117.6885343  18.9310362  63.6396501 116.5579248  18.7980579  64.6376062
 113.6333057  14.3100558  61.7575426 114.4794252  14.7339971  61.9010075
 113.5731694  13.6534182  62.4513989 117.6030801  19.9329142  58.1394158
 116.9739664  20.0974856  57.4370226 117.2156463  20.3470751  58.9105122
 121.4820033  20.8683580  55.4938522 120.7971071  21.2482481  54.9435555
 121.5663883  21.4778906  56.2270470 118.7370965  18.5143539  62.0933865
 118.9487860  19.1575298  61.4168246 118.6900713  17.6805855  61.6255795
 113.1558763  19.6703550  55.4044243 113.6197109  19.9491253  54.6148866
 112.8915561  18.7686994  55.2217334 110.0482844  19.2175031  58.3424006
 110.6184201  19.6462300  57.7041491 110.6390956  18.9357616  59.0408192
 112.0927649  15.7926702  52.2133808 112.7951693  16.2447746  52.6807735
 111.7608278  15.1510521  52.8413701 110.5408011  14.3838459  66.5885018
 109.9106671  15.0654740  66.8220414 110.4344099  14.2721540  65.6438156
 105.8352983  14.0510255  57.5150942 105.0452037  14.3067783  57.0391052
 106.3264231  14.8658593  57.6202982 119.8516793  21.3915494  60.2656223
 120.6734237  20.9895681  59.9838904 119.8479196  21.2883728  61.2172338
 107.7867729  14.4154834  54.4734419 106.9898892  14.5273528  54.9917914
 107.5593321  14.7541486  53.6075309 113.6173396  20.9399537  62.4216933
 113.6817829  21.4019945  63.2575105 112.9084320  20.3096902  62.5499243
 104.1190686  14.3040745  59.9465933 104.3698725  15.1887755  60.2123509
 104.6550235  14.1245347  59.1741024 127.9422786  17.7354242  56.6141194
 127.1886494  17.1661641  56.4585199 128.0770327  17.7016907  57.5611829
 113.3321414  22.6067645  52.2895913 113.1967089  23.4519180  52.7180761
 113.8731226  22.8086922  51.5261847 106.7850811  20.1243083  52.8623839
 107.2975332  20.9186333  53.0129403 107.4373524  19.4269373  52.7957440
 108.5945696  23.2408839  54.9446592 108.7712324  24.1626804  54.7567576
 109.3902530  22.9267258  55.3740972 107.8798053  15.2873471  64.8208755
 107.7651568  14.3858728  65.1215854 107.0242570  15.5337168  64.4693571
 114.9589890  23.2291211  66.4196256 114.5153745  22.4427590  66.1017160
 115.6207104  23.4170362  65.7540146 109.7177011  24.7587013  60.9456934
 110.2684437  24.6304076  60.1733928 108.8788487  25.0581902  60.5951827
 117.0571128  23.5094011  64.4477657 117.0389604  24.3302892  63.9557926
 117.9791048  23.3848086  64.6727798 113.5144183  21.0238141  65.2901165
 114.0472519  20.2626429  65.0600473 112.9858264  20.7311792  66.0325320
 104.7499728  18.4531737  53.6383409 105.5874950  18.8628745  53.4217117
 104.9277996  17.5131179  53.6083603 116.6464160  16.1206818  49.3267242
 116.1310784  16.8911422  49.5655629 116.3741469  15.4471954  49.9500303
 121.6198434  18.8739172  51.2620416 120.8427877  18.5350332  50.8175578
 122.2989915  18.8791796  50.5875381 116.4350463  13.9933910  51.1527023
 116.1300599  14.3080059  52.0037166 117.3880906  14.0715330  51.1954356
 114.8796895  20.1524133  52.8019977 114.3518257  19.4176893  52.4893215
 114.3784398  20.9298810  52.5559946 119.8589741  18.3473154  57.9187024
 119.2013416  19.0372415  58.0067152 120.6630140  18.7369586  58.2621010
 109.6115623  10.8143799  55.1626589 110.1859375  10.5918981  54.4299782
 110.1986605  10.8832494  55.9155190 118.6695200  16.7017526  55.9690965
 119.1827082  17.3347518  56.4712675 119.3196424  16.1018722  55.6034325
 109.9385210  12.8448260  49.1822474 109.1022522  13.1822947  49.5031749
 109.7989980  12.7097240  48.2449611 113.0249495  17.9704343  45.8054950
 112.1176557  17.7393597  46.0046099 113.5220527  17.1741963  45.9928932
 115.9317574  26.6801851  48.7251636 115.2579273  26.9833547  49.3336594
 116.3183396  27.4830931  48.3757093 115.1476031  14.1766982  58.2149306
 114.2298592  14.3981929  58.0570994 115.5636175  14.2513292  57.3561013
 115.9311079  15.5758398  53.3451986 116.6782898  16.0879795  53.0359108
 116.2002668  15.2542450  54.2056380 114.2037729  18.0716938  50.3278940
 113.2948948  17.7875971  50.4251410 114.2332813  18.4916017  49.4682247
 119.4356996  21.6823528  54.0970108 118.9819323  20.8414438  54.1535298
 118.8050963  22.3184926  54.4344888 117.8789936  23.5200024  55.0319926
 118.1712910  24.0805082  54.3132292 118.3888556  23.8128585  55.7873085
 104.7725899  15.7922452  54.3094143 104.5750299  15.1991813  53.5845209
 104.2172563  15.4874663  55.0270081 112.7522623  15.6845559  56.4288736
 112.8071233  14.7319395  56.3531212 111.9413825  15.8404998  56.9130034
 113.9013817  19.6125682  47.6667019 113.4633247  18.8961541  47.2072656
 114.6424258  19.8401797  47.1052110 110.6914983  14.3022619  54.1879115
 109.8782848  14.6016789  54.5944307 111.1873977  13.9078307  54.9053597
 112.8423561  24.2980376  56.1213379 112.7999740  24.5241222  55.1921911
 113.7586260  24.0643750  56.2699180 116.2889195  14.7664443  63.0194008
 116.6438582  14.9935916  63.8788474 116.9361326  15.0982820  62.3971264
 122.0186931  17.8882879  53.7243337 121.8804830  18.0784475  52.7964527
 121.6623150  18.6502262  54.1811389 110.1829058  11.8740974  59.8040350
 110.8228437  11.7329733  59.1063313 109.3506588  11.5875488  59.4278951
 122.0456311  19.9559406  58.7354609 122.4792818  19.8634695  59.5837663
 122.7587892  19.9316906  58.0974625 110.9589361  21.1743405  55.9175342
 111.7529960  20.6793725  55.7157917 110.2481054  20.6461268  55.5543048
 115.7784206  23.5561500  60.2687710 115.8321228  24.1252436  61.0365425
 114.9098987  23.7263385  59.9041747 107.2672125  15.3186486  51.9935095
 106.3369713  15.2570942  52.2105057 107.3629597  14.7962439  51.1971736
 107.1857674  11.8441299  54.5813336 107.4464491  12.7586632  54.4722497
 108.0074846  11.3765742  54.7309949 108.6582599  13.2579056  61.7512161
 109.3305653  13.0496418  61.1024810 107.8312386  13.0601142  61.3117393
 122.9071861  19.9983107  61.2687494 123.1007751  20.9028917  61.5146769
 122.8072479  19.5390526  62.1026079 117.9686969  20.1489849  66.8428375
 117.8172476  19.9200401  65.9258459 117.9591649  21.1060451  66.8559720
 114.7372306  17.7221762  61.8274641 115.6664366  17.8732922  61.6543609
 114.3163336  17.8105783  60.9723288 113.5360637  21.7472427  59.5973179
 113.3971723  21.3791211  60.4699117 112.7475234  22.2620066  59.4257137
 114.1308789  26.8481523  50.9398716 114.3060545  26.3769566  51.7544338
 113.4441577  27.4747289  51.1679976 115.0865853  21.1254029  56.9862017
 114.7515685  21.0854799  57.8819667 114.5869798  20.4598745  56.5132427
 109.0610097  16.5321659  62.5114598 108.9229895  15.8001898  63.1126137
 109.9715020  16.4430559  62.2298786 118.0225044  18.4710064  47.2599076
 117.4054215  17.7456892  47.1632129 117.5541533  19.2319424  46.9166151
 111.6892397  16.2441619  61.9998278 112.3992016  15.6034811  61.9584896
 111.6461705  16.4954513  62.9224458 119.6779176  23.1808972  64.9204857
 119.6191722  22.4968192  64.2535440 120.0798694  23.9227962  64.4685483
 110.4021331  13.2306836  63.8193917 109.8658688  12.7797575  64.4715513
 109.8138040  13.3652745  63.0764381 108.6969875  29.9970886  57.7138576
 108.9366473  30.6289410  58.3917594 107.8539071  29.6458926  58.0003935
 109.8123590  12.6895488  46.3820381 108.9353057  12.5684289  46.0182627
 110.2881343  11.8981566  46.1299269 119.6796583  21.1448556  63.1518837
 118.7923362  20.8074478  63.2745235 120.2495134  20.4131587  63.3887602
 101.3325730  17.4772648  56.4761888 102.0196770  17.1634378  55.8882903
 101.1773859  18.3814012  56.2029139 106.1360452  12.3662844  60.9046912
 106.0518641  11.7588514  60.1697322 105.3143159  12.8571863  60.9056408
 113.2097737  25.8050008  60.1180080 113.1367908  26.6104980  60.6299384
 112.7675130  26.0041974  59.2928101 112.9987516  25.0421778  53.6282901
 112.2155038  25.5843458  53.7221126 113.6980261  25.5595758  54.0277142
 124.1613924  16.5556773  57.9135398 124.1503800  17.4381489  57.5429331
 123.2931303  16.2028324  57.7189935 115.6696420  25.7036842  62.2738238
 116.3824392  26.3384307  62.2014140 115.1786449  25.8000708  61.4578240
 117.3913947  19.6088095  53.8455530 116.4570226  19.7289557  53.6760234
 117.5690615  18.7060562  53.5815540 112.8919135  12.9933791  55.9988791
 112.5216923  12.4404831  56.6869697 113.3878228  12.3891924  55.4463791
 120.7786498  15.4505414  54.3805564 121.2446951  16.2833406  54.3065867
 121.2293999  14.9850396  55.0850823 110.7208334  23.4531286  63.0943809
 111.4217793  24.0867769  63.2473203 110.2503449  23.7946017  62.3339448
 118.8462729  21.7949236  51.3791716 119.1222573  21.6805830  52.2885590
 117.9767228  21.3966720  51.3403889 118.5209620  16.0075893  60.9196360
 117.8681070  16.2551801  60.2648812 118.8990000  15.1940031  60.5858837
 115.4816793  26.0435586  55.0224530 115.6639188  25.2257242  55.4852282
 116.3049780  26.2603279  54.5849420 115.8158959  24.9703771  52.2839578
 116.3446725  24.4596226  51.6709740 116.0787179  24.6546302  53.1485111
 114.5697193  16.7495704  67.4062397 113.8937830  16.6489834  68.0764772
 115.3924827  16.5934918  67.8698394 106.3176052  22.9867641  60.0274912
 106.9029489  22.2411329  60.1602816 106.1200890  23.2971597  60.9111576
 109.1714707  26.0218888  55.0437354 108.5025082  26.5065016  54.5601394
 109.0327577  26.2688109  55.9580733 100.9093706  15.5573241  58.7479355
 100.9477806  15.0236832  59.5416473 100.4033999  15.0308447  58.1290332
 113.3119976  28.0562632  61.6420013 113.8638284  28.2194253  62.4069098
 113.6526169  28.6467070  60.9700037 108.2884469  10.4037781  62.2441897
 108.3525795  11.2652612  61.8319295 108.2251589   9.7911783  61.5114256
 107.7636741  12.4760914  65.8914932 108.3908780  12.0937991  66.5052456
 106.9064660  12.2575116  66.2570624 118.1630850  22.8823889  67.4968667
 118.7070754  23.4953847  67.0023622 117.5817695  23.4403468  68.0135680
 104.5402284  14.2837343  51.8233286 104.8355725  13.3748022  51.7700340
 103.6390320  14.2625083  51.5014289 116.4488363  26.0044607  58.6283695
 116.3239502  25.2034347  58.1194640 117.1067454  26.4990801  58.1397665
 108.0696531  12.3593340  57.8060835 107.3483117  12.9729307  57.6668308
 108.8589787  12.8951105  57.7277481 118.5123271  23.8053627  60.2563245
 117.5653607  23.6858978  60.1841572 118.8606044  22.9176125  60.3389506
 106.2690126  11.9651441  51.9472612 105.9402832  11.0848820  51.7647718
 106.6229496  11.9099110  52.8349001 115.5169704  23.6006344  56.4567597
 115.3694667  22.6723051  56.6375167 116.3423198  23.6226434  55.9724672
 109.3831949  12.2524411  52.3148089 109.7228021  12.7810332  51.5926698
 109.8304069  12.5904817  53.0906656 119.1203826  24.4234902  57.5432470
 120.0450374  24.2177764  57.4056921 118.9519130  24.1751303  58.4521811
 111.3700096  10.7499032  50.5141382 112.0908458  11.1280285  50.0105099
 110.7465400  11.4687909  50.6176360 110.2530440  14.4129894  58.0270459
 110.1075021  14.7270197  58.9194740 109.7755644  15.0314795  57.4741358
 113.9652954  11.8369783  60.1204476 113.7070732  12.7586853  60.1188806
 113.4337994  11.4400217  60.8104940 118.9099143  24.9420570  52.8994561
 119.0836020  24.3766992  52.1468414 119.4028034  25.7421465  52.7174051
 104.7276102  16.9535239  60.9658120 104.1829570  17.7295047  61.0978394
 105.6055452  17.3006043  60.8077242 124.7638534  17.7056993  54.5184861
 125.2069680  16.9564318  54.1203984 123.8865044  17.6967129  54.1358593
 119.8974315  24.2587334  49.9991460 120.5925220  24.8794027  50.2178774
 120.2397465  23.4082685  50.2743837 105.5142124  16.0805135  63.8588277
 104.7723860  16.2287770  64.4452907 105.1934868  16.3413401  62.9955026
 121.7965738  21.7087040  51.5278790 122.3217062  22.0474312  50.8028110
 121.7088091  20.7734055  51.3441925 113.4585787  25.6221113  63.6568667
 113.7672913  25.3770260  64.5291367 114.2561269  25.8267752  63.1687537
 113.4806399  27.7759023  55.8874044 113.0411389  27.2835402  56.5806900
 114.2314516  27.2331991  55.6466119 105.9598738  23.9670564  55.8898672
 106.7856758  23.6674336  55.5097315 105.6092790  23.1978186  56.3388460
 110.9280271  23.3197032  57.9596345 110.3060280  22.6567737  57.6598573
 111.5985138  23.3458164  57.2769993 104.1607343  21.8856890  56.8487605
 103.3239251  21.4579065  56.6671606 104.1330988  22.0789334  57.7858396
 111.0004799  11.7978820  67.5528851 111.0492954  12.6740943  67.1706621
 111.5427313  11.2556213  66.9800494 121.4859644  22.3419943  66.8329988
 120.6955188  22.3244082  66.2934488 121.2492999  22.8808237  67.5879025
 121.6057519  19.1912410  64.1462717 121.6555524  19.0262417  65.0878240
 121.4971443  18.3239669  63.7560598 110.4893778  21.8700955  51.4354806
 110.6381898  22.5536420  50.7821479 111.2960221  21.8506045  51.9504262
 118.8961282  15.1743338  65.4622024 119.7971144  15.0349803  65.1706021
 118.9709256  15.3397793  66.4020201 113.2304087  12.5510192  64.3075210
 112.3607396  12.8443758  64.0357798 113.4663567  13.1350637  65.0282474
 123.1075716  21.6109351  64.3904738 122.8160524  21.9739332  65.2268199
 122.4947847  20.8976359  64.2118070 124.3071398  19.1762231  56.9107309
 125.1418290  19.6152035  57.0744869 124.4430527  18.7000884  56.0915554
 121.3562904  16.7341966  62.8584796 121.8317026  16.9269612  62.0503648
 120.4328470  16.7901152  62.6128180 108.2446411  17.8966133  52.4415875
 107.9992453  16.9928463  52.6396085 108.4142325  17.8983283  51.4995353
 107.5142058  13.6294491  49.9402036 106.8211303  13.7038846  49.2842072
 107.2693810  12.8654834  50.4623553 113.9889183  24.3649086  48.9066553
 113.4163151  24.9839273  48.4537025 114.5621977  24.9148447  49.4406475
 117.2086443  24.6486236  50.0375135 118.1417116  24.5831798  50.2408011
 117.1209656  25.4842503  49.5789668 119.8374460  23.9652106  46.9979083
 119.7588091  23.6311970  47.8914841 120.6584127  24.4573874  46.9970555
 122.5352651  16.8313846  60.2055402 122.5028971  15.8929846  60.3915085
 123.1453275  16.9097882  59.4721227 114.3735982  15.7009899  46.2482606
 115.3195087  15.5716107  46.3171024 113.9950227  14.9624560  46.7252034
 128.3529201  17.8929852  59.3461438 129.0832589  17.6315141  59.9069142
 127.7436146  17.1558574  59.3863506 126.4344498  16.0337715  59.9435890
 125.7077662  15.8993680  59.3352381 126.0191785  16.3414544  60.7492608
 114.2574675  19.7527645  67.7083263 115.1777684  19.9306244  67.9023309
 114.2224258  18.8083690  67.5562962 112.5578899  13.6259875  46.1837491
 111.6510355  13.3292988  46.2600205 112.8354880  13.3289693  45.3171777
 103.4756840  14.9466238  56.6336537 103.1559624  14.0931547  56.3410911
 102.9290268  15.1614816  57.3894505 107.2536747  17.6628679  60.3506044
 107.4722757  18.5945787  60.3694078 107.6662521  17.3036654  61.1360848
 112.1264612  13.2361885  69.7408793 112.0261339  14.1856242  69.6720884
 111.9086154  12.9080124  68.8684863 103.3445100  18.5669150  58.6029659
 102.6508571  18.1523103  58.0899613 104.0918091  18.6089686  58.0063078
 111.9895882  16.6659024  68.5573854 111.5062964  17.4659384  68.7637743
 112.0756821  16.6766969  67.6041298 105.2581842  18.4987404  56.4795674
 105.2352530  18.5975091  55.5277557 105.5682479  19.3452554  56.8012840
 107.9169220  20.5563559  60.5942288 108.8712473  20.5247501  60.5272220
 107.7181743  20.0954182  61.4092514 108.5068602  19.1264675  63.1613086
 109.3261491  19.6208753  63.1847923 108.7805410  18.2096643  63.1330653
 106.2719449  26.0983178  57.6112486 106.1373917  25.3383579  57.0450484
 105.8551511  26.8224078  57.1441275 117.4078412  21.2820102  46.6189061
 118.1114262  21.4870104  47.2346717 116.6841060  21.8496864  46.8838145
 118.2376222  17.0329963  52.7391332 118.1811423  17.4898514  51.8998964
 118.7904564  16.2720648  52.5614174 109.4288575  26.9952495  57.8230929
 109.3120959  27.9397928  57.7209619 108.6081021  26.6926057  58.2116728
 119.3165109  21.7202631  48.6687521 120.1510713  21.2883829  48.4864996
 119.1549452  21.5484645  49.5964416 118.9711001  18.2234744  50.0343861
 118.9159805  18.0579016  49.0932305 118.3457057  18.9310777  50.1906050
 103.7603516  13.4602809  63.8605283 104.4062380  12.9501763  64.3492508
 103.5520667  14.1971490  64.4348708 116.2856908  20.5283656  69.3597423
 117.1548068  20.7024308  68.9984058 115.8063660  21.3478073  69.2373153
 110.4543089  27.6480757  61.0386857 111.3570335  27.6804367  61.3553352
 110.2280459  26.7181208  61.0533193 112.2096691  26.4011744  57.6996936
 111.2592322  26.4013605  57.5861308 112.5129177  25.6544478  57.1832970
 108.1001007  10.6070426  67.9580297 108.9632469  10.2507230  68.1683622
 107.5266418  10.2684320  68.6455701 127.9449384  32.2372282  58.7642698
 128.5827794  32.1179029  58.0606038 127.8270227  33.1853126  58.8230650
 124.7539090  32.1899710  58.7004223 124.4157602  32.0740775  57.8124758
 125.6228859  31.7890875  58.6805229 120.6125906  34.0435186  54.6901114
 120.0490771  33.9525123  53.9217402 120.4978301  33.2235091  55.1703606
 125.2358873  33.3434562  64.6590428 125.2247514  32.9487360  63.7870932
 125.3979513  32.6100634  65.2524200 118.1590338  35.5386378  57.5285334
 118.9511630  35.1977203  57.1131634 118.3986988  35.6481353  58.4487488
 126.1925465  37.7106154  50.0015579 125.5413445  38.2960235  49.6149592
 126.9869828  38.2412349  50.0610616 120.1181092  34.7995291  50.4002713
 120.8911968  34.2524278  50.2615589 120.4706491  35.6639541  50.6117174
 121.9566135  36.1271674  63.6069612 121.6656001  37.0317304  63.4916279
 122.5923119  36.1688201  64.3213682 122.8822341  33.5048522  60.1970972
 123.4785914  33.2804545  59.4827935 122.9397313  32.7633268  60.7996420
 122.4547370  30.9587957  48.0321163 122.7072891  30.4369479  47.2704626
 121.5171929  30.7954103  48.1347847 127.4990653  29.9623736  55.8395906
 128.2853742  29.5443159  55.4886323 127.7629357  30.8669828  56.0077555
 127.6700730  35.3996586  50.5384563 127.0346563  35.4731213  51.2505468
 127.3398136  35.9890185  49.8603642 132.8999080  29.8998969  56.7428885
 133.6324252  29.3298186  56.9766714 132.1438436  29.5120569  57.1835390
 122.1743659  32.8616063  50.2345538 122.0579917  32.1860967  50.9026622
 122.2845919  32.3748437  49.4177691 124.5175200  32.3226211  53.9392227
 124.1533407  31.7956831  54.6505149 125.3742315  31.9324680  53.7658713
 130.4224500  23.6120543  61.2023493 130.0907825  24.4815954  60.9784708
 129.8270114  23.2956827  61.8817524 124.1580687  27.3516110  48.9353576
 124.3255089  28.2196347  49.3024047 123.9677856  27.5143392  48.0114865
 126.9156020  35.8133089  60.6019406 126.6156743  36.7158128  60.4935213
 126.5707079  35.5465272  61.4540559 120.3668501  32.2646886  56.6356110
 119.4418998  32.1323100  56.8433802 120.6152914  33.0441105  57.1326053
 130.3153164  28.3315629  58.2816843 129.4070041  28.2631038  57.9875604
 130.2640759  28.8087574  59.1098669 124.1369907  29.8073768  49.9200243
 124.0169533  30.2530818  50.7585723 123.4422496  30.1559085  49.3613781
 117.7277312  31.9080160  57.4699900 117.8569693  32.1614638  58.3839311
 117.0474764  32.5007868  57.1504555 121.8976800  42.5777409  53.5690374
 121.8200829  43.5285235  53.6478854 121.2938443  42.2323282  54.2265300
 124.3894029  29.7505275  66.2251741 123.6127363  30.3099195  66.2154605
 125.0284592  30.2362058  66.7466611 132.1814810  26.5332068  60.0594717
 131.5389190  26.8264601  59.4134512 131.6769738  26.4184988  60.8647914
 129.8354974  30.2795241  50.7480577 130.7472830  30.5122628  50.5728274
 129.3264621  30.8632285  50.1855655 122.6440402  32.5590728  65.7869708
 123.3855086  33.0975772  65.5104531 121.9377387  33.1857017  65.9441259
 128.1195741  34.7019869  64.3841869 128.5279097  34.2602279  63.6396501
 127.3973003  34.1272496  64.6376062 124.4726811  29.6392475  61.7575426
 125.3188006  30.0631889  61.9010075 124.4125449  28.9826100  62.4513989
 128.4424556  35.2621059  58.1394158 127.8133418  35.4266773  57.4370226
 128.0550218  35.6762669  58.9105122 132.3213788  36.1975497  55.4938522
 131.6364826  36.5774399  54.9435555 132.4057637  36.8070824  56.2270470
 127.6226257  27.2996844  63.4156600 127.3787188  28.0538904  62.8790875
 127.8986187  27.6782191  64.2503847 129.5764719  33.8435456  62.0933865
 129.7881615  34.4867216  61.4168246 129.5294468  33.0097773  61.6255795
 127.1790948  26.4553277  58.9970437 126.3175427  26.7534530  59.2887175
 127.2053383  26.6723676  58.0651470 123.9952518  34.9995467  55.4044243
 124.4590863  35.2783170  54.6148866 123.7309316  34.0978912  55.2217334
 120.8876599  34.5466949  58.3424006 121.4577956  34.9754217  57.7041491
 121.4784711  34.2649534  59.0408192 122.9321404  31.1218620  52.2133808
 123.6345447  31.5739663  52.6807735 122.6002032  30.4802439  52.8413701
 121.3801765  29.7130376  66.5885018 120.7500426  30.3946657  66.8220414
 121.2737853  29.6013458  65.6438156 116.6746738  29.3802172  57.5150942
 115.8845792  29.6359701  57.0391052 117.1657985  30.1950510  57.6202982
 130.6910547  36.7207412  60.2656223 131.5127991  36.3187599  59.9838904
 130.6872950  36.6175646  61.2172338 118.6261483  29.7446752  54.4734419
 117.8292646  29.8565446  54.9917914 118.3987075  30.0833404  53.6075309
 124.4567151  36.2691455  62.4216933 124.5211583  36.7311862  63.2575105
 123.7478075  35.6388820  62.5499243 114.9584441  29.6332663  59.9465933
 115.2092479  30.5179673  60.2123509 115.4943989  29.4537264  59.1741024
 138.7816540  33.0646160  56.6141194 138.0280249  32.4953558  56.4585199
 138.9164082  33.0308825  57.5611829 124.1715168  37.9359562  52.2895913
 124.0360843  38.7811098  52.7180761 124.7124981  38.1378840  51.5261847
 120.6582508  24.0151142  68.9510269 120.2649454  23.4617341  69.6257913
 121.4748648  24.3261721  69.3416786 117.6244566  35.4535000  52.8623839
 118.1369086  36.2478251  53.0129403 118.2767279  34.7561291  52.7957440
 119.4339451  38.5700757  54.9446592 119.6106079  39.4918721  54.7567576
 120.2296284  38.2559176  55.3740972 123.5750469  25.4309021  66.5430525
 124.3160182  26.0316175  66.4634988 123.8068392  24.6886659  65.9848568
 118.7191807  30.6165389  64.8208755 118.6045322  29.7150646  65.1215854
 117.8636325  30.8629085  64.4693571 125.7983645  38.5583129  66.4196256
 125.3547499  37.7719508  66.1017160 126.4600858  38.7462279  65.7540146
 120.5570766  40.0878931  60.9456934 121.1078191  39.9595994  60.1733928
 119.7182242  40.3873820  60.5951827 127.8964883  38.8385929  64.4477657
 127.8783358  39.6594810  63.9557926 128.8184803  38.7140004  64.6727798
 124.3537937  36.3530058  65.2901165 124.8866274  35.5918347  65.0600473
 123.8252018  36.0603710  66.0325320 127.5207632  21.4590124  60.8194807
 127.1771901  22.3491766  60.7433918 127.8886595  21.2691782  59.9564392
 115.5893483  33.7823655  53.6383409 116.4268705  34.1920663  53.4217117
 115.7671750  32.8423097  53.6083603 127.4857915  31.4498735  49.3267242
 126.9704538  32.2203340  49.5655629 127.2135223  30.7763872  49.9500303
 125.0705026  26.2948436  54.3852480 124.2146622  25.9055287  54.2058119
 125.4831978  26.3740397  53.5252266 126.6004172  23.8294779  58.7844040
 126.0968968  23.7924915  57.9711845 126.8934779  24.7387522  58.8440697
 122.8447058  23.9133509  57.7910222 123.7100055  23.7176318  57.4316111
 122.9124567  23.6843861  58.7179579 132.4592189  34.2031090  51.2620416
 131.6821632  33.8642250  50.8175578 133.1383670  34.2083713  50.5875381
 127.2744218  29.3225828  51.1527023 126.9694353  29.6371977  52.0037166
 128.2274660  29.4007247  51.1954356 125.7190650  35.4816051  52.8019977
 125.1912011  34.7468810  52.4893215 125.2178152  36.2590727  52.5559946
 130.6983496  33.6765071  57.9187024 130.0407170  34.3664333  58.0067152
 131.5023895  34.0661503  58.2621010 120.4509377  26.1435717  55.1626589
 121.0253129  25.9210899  54.4299782 121.0380360  26.2124412  55.9155190
 129.5088955  32.0309444  55.9690965 130.0220836  32.6639436  56.4712675
 130.1590178  31.4310640  55.6034325 120.7778964  28.1740178  49.1822474
 119.9416277  28.5114865  49.5031749 120.6383734  28.0389158  48.2449611
 122.7532045  23.0176966  53.8901658 122.0996457  22.7025983  53.2658273
 122.7112519  22.3952706  54.6161481 123.8643250  33.2996261  45.8054950
 122.9570312  33.0685515  46.0046099 124.3614282  32.5033880  45.9928932
 126.7711329  42.0093768  48.7251636 126.0973028  42.3125465  49.3336594
 127.1577151  42.8122849  48.3757093 125.9869785  29.5058900  58.2149306
 125.0692347  29.7273847  58.0570994 126.4029929  29.5805210  57.3561013
 126.7704833  30.9050315  53.3451986 127.5176652  31.4171712  53.0359108
 127.0396423  30.5834368  54.2056380 125.0431483  33.4008856  50.3278940
 124.1342703  33.1167889  50.4251410 125.0726567  33.8207935  49.4682247
 130.2750751  37.0115445  54.0970108 129.8213078  36.1706355  54.1535298
 129.6444717  37.6476844  54.4344888 129.2183670  27.9407431  55.3270775
 128.4806427  27.4284818  55.6581018 129.4710444  27.5007813  54.5154052
 128.7183690  38.8491942  55.0319926 129.0106664  39.4096999  54.3132292
 129.2282311  39.1420503  55.7873085 129.3195298  20.7183683  55.9212545
 129.6254174  19.8581047  55.6338460 130.0447902  21.3101304  55.7211539
 115.6119654  31.1214370  54.3094143 115.4144054  30.5283731  53.5845209
 115.0566318  30.8166580  55.0270081 123.5916377  31.0137477  56.4288736
 123.6464987  30.0611313  56.3531212 122.7807579  31.1696916  56.9130034
 124.7407571  34.9417600  47.6667019 124.3027001  34.2253459  47.2072656
 125.4818012  35.1693714  47.1052110 121.5308737  29.6314536  54.1879115
 120.7176603  29.9308707  54.5944307 122.0267731  29.2370225  54.9053597
 123.6817315  39.6272293  56.1213379 123.6393494  39.8533140  55.1921911
 124.5980014  39.3935668  56.2699180 127.1282949  30.0956361  63.0194008
 127.4832337  30.3227834  63.8788474 127.7755080  30.4274738  62.3971264
 132.8580686  33.2174797  53.7243337 132.7198585  33.4076393  52.7964527
 132.5016905  33.9794179  54.1811389 121.0222812  27.2032892  59.8040350
 121.6622191  27.0621651  59.1063313 120.1900343  26.9167405  59.4278951
 132.8850066  35.2851324  58.7354609 133.3186572  35.1926613  59.5837663
 133.5981646  35.2608824  58.0974625 121.7983116  36.5035322  55.9175342
 122.5923714  36.0085642  55.7157917 121.0874808  35.9753185  55.5543048
 126.6177960  38.8853418  60.2687710 126.6714983  39.4544354  61.0365425
 125.7492742  39.0555303  59.9041747 118.1065879  30.6478404  51.9935095
 117.1763468  30.5862859  52.2105057 118.2023351  30.1254357  51.1971736
 118.0251428  27.1733217  54.5813336 118.2858246  28.0878550  54.4722497
 118.8468601  26.7057659  54.7309949 119.4976354  28.5870974  61.7512161
 120.1699407  28.3788336  61.1024810 118.6706140  28.3893060  61.3117393
 133.7465615  35.3275024  61.2687494 133.9401505  36.2320835  61.5146769
 133.6466233  34.8682443  62.1026079 125.4001926  25.2132915  63.7677822
 124.7529841  25.9122865  63.6742298 126.1702941  25.6469059  64.1354070
 128.8080724  35.4781767  66.8428375 128.6566230  35.2492319  65.9258459
 128.7985403  36.4352368  66.8559720 125.5766060  33.0513680  61.8274641
 126.5058120  33.2024839  61.6543609 125.1557090  33.1397701  60.9723288
 124.3754392  37.0764344  59.5973179 124.2365478  36.7083129  60.4699117
 123.5868988  37.5911984  59.4257137 124.9702544  42.1773441  50.9398716
 125.1454300  41.7061484  51.7544338 124.2835332  42.8039207  51.1679976
 125.9259607  36.4545947  56.9862017 125.5909440  36.4146717  57.8819667
 125.4263553  35.7890663  56.5132427 119.9003851  31.8613577  62.5114598
 119.7623649  31.1293816  63.1126137 120.8108775  31.7722477  62.2298786
 128.8618799  33.8001981  47.2599076 128.2447969  33.0748809  47.1632129
 128.3935287  34.5611342  46.9166151 122.5286152  31.5733536  61.9998278
 123.2385770  30.9326728  61.9584896 122.4855460  31.8246431  62.9224458
 130.5172930  38.5100890  64.9204857 130.4585477  37.8260110  64.2535440
 130.9192449  39.2519880  64.4685483 121.2415086  28.5598754  63.8193917
 120.7052443  28.1089493  64.4715513 120.6531794  28.6944663  63.0764381
 119.5363629  45.3262803  57.7138576 119.7760227  45.9581328  58.3917594
 118.6932826  44.9750843  58.0003935 120.6517345  28.0187406  46.3820381
 119.7746811  27.8976206  46.0182627 121.1275098  27.2273484  46.1299269
 130.5190338  36.4740474  63.1518837 129.6317116  36.1366395  63.2745235
 131.0888889  35.7423505  63.3887602 112.1719485  32.8064565  56.4761888
 112.8590525  32.4926295  55.8882903 112.0167614  33.7105930  56.2029139
 116.9754207  27.6954762  60.9046912 116.8912396  27.0880431  60.1697322
 116.1536913  28.1863780  60.9056408 124.0491491  41.1341926  60.1180080
 123.9761663  41.9396897  60.6299384 123.6068884  41.3333892  59.2928101
 123.8381271  40.3713696  53.6282901 123.0548793  40.9135376  53.7221126
 124.5374016  40.8887676  54.0277142 127.1477921  26.1808325  56.2717107
 127.6446620  25.4278288  55.9518177 126.3764902  26.2172642  55.7060316
 135.0007678  31.8848691  57.9135398 134.9897554  32.7673406  57.5429331
 134.1325058  31.5320242  57.7189935 126.5090175  41.0328760  62.2738238
 127.2218147  41.6676225  62.2014140 126.0180203  41.1292626  61.4578240
 128.2307702  34.9380013  53.8455530 127.2963980  35.0581475  53.6760234
 128.4084370  34.0352479  53.5815540 123.7312890  28.3225708  55.9988791
 123.3610677  27.7696749  56.6869697 124.2271982  27.7183842  55.4463791
 131.6180253  30.7797332  54.3805564 132.0840705  31.6125323  54.3065867
 132.0687753  30.3142313  55.0850823 121.5602088  38.7823203  63.0943809
 122.2611548  39.4159686  63.2473203 121.0897203  39.1237935  62.3339448
 129.6856484  37.1241153  51.3791716 129.9616328  37.0097748  52.2885590
 128.8160983  36.7258638  51.3403889 129.5896916  23.1477919  58.4196466
 128.6759995  23.3782146  58.5878672 130.0190017  23.2316363  59.2710498
 129.3603374  31.3367811  60.9196360 128.7074824  31.5843718  60.2648812
 129.7383754  30.5231949  60.5858837 126.3210548  41.3727504  55.0224530
 126.5032943  40.5549160  55.4852282 127.1443534  41.5895196  54.5849420
 126.6552713  40.2995689  52.2839578 127.1840480  39.7888144  51.6709740
 126.9180933  39.9838219  53.1485111 125.4090947  32.0787622  67.4062397
 124.7331584  31.9781751  68.0764772 126.2318581  31.9226836  67.8698394
 117.1569806  38.3159558  60.0274912 117.7423243  37.5703246  60.1602816
 116.9594645  38.6263515  60.9111576 120.0108461  41.3510806  55.0437354
 119.3418837  41.8356933  54.5601394 119.8721331  41.5980026  55.9580733
 111.7487461  30.8865159  58.7479355 111.7871560  30.3528749  59.5416473
 111.2427754  30.3600364  58.1290332 124.1513730  43.3854549  61.6420013
 124.7032038  43.5486171  62.4069098 124.4919923  43.9758987  60.9700037
 119.1278223  25.7329699  62.2441897 119.1919550  26.5944530  61.8319295
 119.0645343  25.1203701  61.5114256 118.6030496  27.8052832  65.8914932
 119.2302535  27.4229909  66.5052456 117.7458415  27.5867034  66.2570624
 129.0024604  38.2115807  67.4968667 129.5464508  38.8245765  67.0023622
 128.4211449  38.7695385  68.0135680 115.3796039  29.6129261  51.8233286
 115.6749480  28.7039939  51.7700340 114.4784074  29.5917000  51.5014289
 127.2882117  41.3336525  58.6283695 127.1633257  40.5326265  58.1194640
 127.9461208  41.8282718  58.1397665 118.9090286  27.6885257  57.8060835
 118.1876871  28.3021225  57.6668308 119.6983541  28.2243022  57.7277481
 129.3517026  39.1345545  60.2563245 128.4047361  39.0150896  60.1841572
 129.6999799  38.2468043  60.3389506 121.7116599  25.0239684  64.0801487
 122.2351001  25.2701980  64.8427796 121.4928932  25.8559719  63.6604624
 117.1083880  27.2943358  51.9472612 116.7796586  26.4140737  51.7647718
 117.4623251  27.2391027  52.8349001 126.3563459  38.9298261  56.4567597
 126.2088421  38.0014969  56.6375167 127.1816952  38.9518352  55.9724672
 120.2225703  27.5816328  52.3148089 120.5621776  28.1102250  51.5926698
 120.6697824  27.9196734  53.0906656 129.9597581  39.7526820  57.5432470
 130.8844128  39.5469681  57.4056921 129.7912884  39.5043221  58.4521811
 122.9169144  25.9653379  61.7651157 122.5765964  25.1661192  62.1671837
 122.2108150  26.2655090  61.1927991 123.5685616  23.0502691  60.2178480
 124.3911685  22.5763170  60.0957371 123.8123679  23.8293175  60.7177167
 122.2093850  26.0790950  50.5141382 122.9302213  26.4572203  50.0105099
 121.5859155  26.7979827  50.6176360 126.3524973  26.7836099  51.4499714
 126.5688588  27.6660737  51.1488543 125.8719040  26.3922312  50.7205356
 121.0924195  29.7421812  58.0270459 120.9468775  30.0562115  58.9194740
 120.6149398  30.3606712  57.4741358 122.9520578  26.7324360  58.0751349
 122.9382146  25.8365453  57.7383646 123.6693006  26.7395024  58.7089635
 124.8046708  27.1661700  60.1204476 124.5464486  28.0878771  60.1188806
 124.2731749  26.7692135  60.8104940 129.7492897  40.2712487  52.8994561
 129.9229775  39.7058910  52.1468414 130.2421788  41.0713382  52.7174051
 115.5669857  32.2827156  60.9658120 115.0223325  33.0586964  61.0978394
 116.4449207  32.6297961  60.8077242 122.3557473  25.6138740  53.3438919
 122.4773385  24.6855387  53.5429806 122.0659516  25.6277426  52.4317234
 125.2248664  23.2993651  56.4805638 125.2470361  23.3632984  55.5257618
 125.6416723  22.4598159  56.6746145 135.6032288  33.0348910  54.5184861
 136.0463434  32.2856236  54.1203984 134.7258798  33.0259047  54.1358593
 130.7368070  39.5879252  49.9991460 131.4318974  40.2085944  50.2178774
 131.0791220  38.7374603  50.2743837 116.3535879  31.4097053  63.8588277
 115.6117615  31.5579688  64.4452907 116.0328623  31.6705318  62.9955026
 132.6359493  37.0378957  51.5278790 133.1610817  37.3766230  50.8028110
 132.5481845  36.1025973  51.3441925 124.2979541  40.9513031  63.6568667
 124.6066668  40.7062178  64.5291367 125.0955023  41.1559669  63.1687537
 124.3200153  43.1050941  55.8874044 123.8805144  42.6127319  56.5806900
 125.0708270  42.5623908  55.6466119 116.7992492  39.2962481  55.8898672
 117.6250512  38.9966253  55.5097315 116.4486544  38.5270104  56.3388460
 121.7674026  38.6488950  57.9596345 121.1454035  37.9859655  57.6598573
 122.4378892  38.6750082  57.2769993 115.0001097  37.2148808  56.8487605
 114.1633006  36.7870982  56.6671606 114.9724743  37.4081251  57.7858396
 121.8398553  27.1270738  67.5528851 121.8886708  28.0032861  67.1706621
 122.3821067  26.5848131  66.9800494 132.3253399  37.6711861  66.8329988
 131.5348942  37.6536000  66.2934488 132.0886753  38.2100155  67.5879025
 132.4451274  34.5204327  64.1462717 132.4949279  34.3554335  65.0878240
 132.3365197  33.6531586  63.7560598 121.3287532  37.1992873  51.4354806
 121.4775653  37.8828337  50.7821479 122.1353976  37.1797963  51.9504262
 129.7355036  30.5035255  65.4622024 130.6364899  30.3641720  65.1706021
 129.8103011  30.6689710  66.4020201 124.0697841  27.8802110  64.3075210
 123.2001151  28.1735676  64.0357798 124.3057322  28.4642555  65.0282474
 133.9469471  36.9401269  64.3904738 133.6554279  37.3031249  65.2268199
 133.3341602  36.2268277  64.2118070 135.1465153  34.5054149  56.9107309
 135.9812044  34.9443953  57.0744869 135.2824282  34.0292802  56.0915554
 132.1956659  32.0633883  62.8584796 132.6710780  32.2561530  62.0503648
 131.2722224  32.1193069  62.6128180 119.0840165  33.2258051  52.4415875
 118.8386207  32.3220381  52.6396085 119.2536080  33.2275201  51.4995353
 126.7736875  24.0981727  61.8240630 127.2918819  24.8342754  61.4987119
 126.4192008  24.4045720  62.6587389 118.3535813  28.9586408  49.9402036
 117.6605058  29.0330763  49.2842072 118.1087565  28.1946752  50.4623553
 127.0249469  20.5182010  57.3441527 127.3051223  19.8505199  57.9701953
 127.8100076  20.7111105  56.8316191 124.8282938  39.6941003  48.9066553
 124.2556905  40.3131191  48.4537025 125.4015732  40.2440365  49.4406475
 130.8958328  28.9399644  61.0913102 131.8475751  29.0397741  61.1125326
 130.7261778  28.1477912  61.6011186 128.9172707  26.0255227  61.2772503
 128.3222639  26.3060239  60.5818992 128.6322404  26.5149128  62.0489244
 128.0480198  39.9778154  50.0375135 128.9810871  39.9123715  50.2408011
 127.9603411  40.8134420  49.5789668 130.6768214  39.2944024  46.9979083
 130.5981846  38.9603888  47.8914841 131.4977881  39.7865792  46.9970555
 133.3746406  32.1605763  60.2055402 133.3422726  31.2221764  60.3915085
 133.9847029  32.2389800  59.4721227 125.2129736  31.0301816  46.2482606
 126.1588841  30.9008024  46.3171024 124.8343981  30.2916478  46.7252034
 133.5240894  28.9516807  60.2513685 133.0079943  28.1675263  60.0643614
 134.4080843  28.6235523  60.4160204 131.1851621  22.6957822  56.2109498
 130.9876442  22.3872910  57.0952829 131.7951327  23.4219461  56.3407427
 139.1922955  33.2221770  59.3461438 139.9226344  32.9607058  59.9069142
 138.5829901  32.4850492  59.3863506 137.2738253  31.3629633  59.9435890
 136.5471416  31.2285598  59.3352381 136.8585539  31.6706461  60.7492608
 125.0968429  35.0819562  67.7083263 126.0171438  35.2598161  67.9023309
 125.0618012  34.1375608  67.5562962 123.3972654  28.9551793  46.1837491
 122.4904109  28.6584905  46.2600205 123.6748635  28.6581611  45.3171777
 114.3150594  30.2758156  56.6336537 113.9953378  29.4223464  56.3410911
 113.7684022  30.4906734  57.3894505 118.0930502  32.9920597  60.3506044
 118.3116511  33.9237705  60.3694078 118.5056275  32.6328571  61.1360848
 125.0134719  23.4988682  52.3381732 124.2035448  23.1535767  52.7136978
 125.7019136  23.1896226  52.9269344 126.9425268  22.5766729  53.9606029
 127.4956306  22.9962183  54.6196052 127.1795354  21.6502477  54.0028985
 122.9658367  28.5653803  69.7408793 122.8655094  29.5148160  69.6720884
 122.7479909  28.2372042  68.8684863 122.1671438  25.8138728  46.3249470
 123.0290602  26.1393626  46.5845287 122.3521782  25.0270224  45.8122536
 114.1838854  33.8961068  58.6029659 113.4902325  33.4815020  58.0899613
 114.9311845  33.9381604  58.0063078 130.3204075  24.6867254  53.4684693
 129.7402744  25.3452058  53.0862746 130.0540007  23.8644599  53.0572111
 128.7707641  24.0872312  55.6706013 129.2707419  24.1988847  54.8620332
 129.4143249  23.7833365  56.3106822 122.8289637  31.9950942  68.5573854
 122.3456719  32.7951302  68.7637743 122.9150576  32.0058886  67.6041298
 116.0975597  33.8279321  56.4795674 116.0746285  33.9267009  55.5277557
 116.4076233  34.6744472  56.8012840 118.7562974  35.8855476  60.5942288
 119.7106228  35.8539419  60.5272220 118.5575498  35.4246100  61.4092514
 119.3462357  34.4556592  63.1613086 120.1655246  34.9500671  63.1847923
 119.6199164  33.5388560  63.1330653 129.1028953  26.8467345  52.5241041
 128.2154808  27.1316995  52.3061236 129.5182942  26.6861108  51.6768318
 132.4543489  26.8713866  56.2395381 133.2303879  27.3610318  56.5119997
 131.7291623  27.2971920  56.6967250 134.8916047  27.5841485  57.2969321
 135.4860538  27.3437221  56.5862629 134.9642631  26.8648615  57.9242858
 117.1113203  41.4275096  57.6112486 116.9767671  40.6675497  57.0450484
 116.6945265  42.1515996  57.1441275 128.2472166  36.6112019  46.6189061
 128.9508016  36.8162022  47.2346717 127.5234815  37.1788781  46.8838145
 129.0769976  32.3621881  52.7391332 129.0205178  32.8190432  51.8998964
 129.6298319  31.6012565  52.5614174 132.8874782  28.1511612  53.5641451
 132.6311717  27.7508248  54.3949659 132.2627650  28.8655406  53.4391590
 137.1987120  30.8907686  56.0712742 136.6386678  30.9600875  56.8444304
 136.5930624  30.7148670  55.3512239 120.2682329  42.3244413  57.8230929
 120.1514713  43.2689845  57.7209619 119.4474775  42.0217974  58.2116728
 130.1558864  37.0494549  48.6687521 130.9904468  36.6175747  48.4864996
 129.9943207  36.8776562  49.5964416 129.8104756  33.5526662  50.0343861
 129.7553560  33.3870933  49.0932305 129.1850811  34.2602695  50.1906050
 114.5997271  28.7894726  63.8605283 115.2456134  28.2793680  64.3492508
 114.3914422  29.5263408  64.4348708 127.1250663  35.8575574  69.3597423
 127.9941823  36.0316226  68.9984058 126.6457414  36.6769991  69.2373153
 123.1200881  23.0534771  49.6129179 123.1079551  23.9976611  49.7697450
 124.0124303  22.8704916  49.3188640 121.2936843  42.9772675  61.0386857
 122.1964090  43.0096285  61.3553352 121.0674213  42.0473126  61.0533193
 123.0490445  41.7303661  57.6996936 122.0986076  41.7305523  57.5861308
 123.3522931  40.9836396  57.1832970 126.9353001  19.6477547  53.8675116
 126.1685397  19.0936034  54.0131798 127.3463706  19.7199416  54.7289268
 118.9394762  25.9362343  67.9580297 119.8026223  25.5799148  68.1683622
 118.3660172  25.5976238  68.6455701 138.7843139  47.5664200  58.7642698
 139.4221549  47.4470947  58.0606038 138.6663982  48.5145044  58.8230650
 135.5932845  47.5191628  58.7004223 135.2551357  47.4032692  57.8124758
 136.4622613  47.1182793  58.6805229 131.4519661  49.3727104  54.6901114
 130.8884526  49.2817041  53.9217402 131.3372056  48.5527009  55.1703606
 136.0752628  48.6726479  64.6590428 136.0641269  48.2779278  63.7870932
 136.2373267  47.9392552  65.2524200 128.9984093  50.8678296  57.5285334
 129.7905385  50.5269120  57.1131634 129.2380743  50.9773271  58.4487488
 137.0319219  53.0398072  50.0015579 136.3807199  53.6252152  49.6149592
 137.8263582  53.5704267  50.0610616 130.9574847  50.1287209  50.4002713
 131.7305723  49.5816196  50.2615589 131.3100245  50.9931458  50.6117174
 132.7959889  51.4563591  63.6069612 132.5049755  52.3609222  63.4916279
 133.4316873  51.4980119  64.3213682 133.7216096  48.8340440  60.1970972
 134.3179668  48.6096462  59.4827935 133.7791068  48.0925185  60.7996420
 133.2941124  46.2879875  48.0321163 133.5466645  45.7661396  47.2704626
 132.3565683  46.1246021  48.1347847 138.3384407  45.2915653  55.8395906
 139.1247496  44.8735077  55.4886323 138.6023112  46.1961746  56.0077555
 138.5094485  50.7288504  50.5384563 137.8740318  50.8023130  51.2505468
 138.1791891  51.3182103  49.8603642 133.0137413  48.1907981  50.2345538
 132.8973671  47.5152884  50.9026622 133.1239673  47.7040355  49.4177691
 135.3568954  47.6518128  53.9392227 134.9927161  47.1248749  54.6505149
 136.2136070  47.2616597  53.7658713 134.9974441  42.6808028  48.9353576
 135.1648843  43.5488264  49.3024047 134.8071610  42.8435310  48.0114865
 137.7549774  51.1425007  60.6019406 137.4550497  52.0450046  60.4935213
 137.4100834  50.8757190  61.4540559 131.2062256  47.5938804  56.6356110
 130.2812752  47.4615018  56.8433802 131.4546669  48.3733023  57.1326053
 141.1546918  43.6607547  58.2816843 140.2463795  43.5922955  57.9875604
 141.1034514  44.1379492  59.1098669 134.9763662  45.1365685  49.9200243
 134.8563287  45.5822736  50.7585723 134.2816250  45.4851003  49.3613781
 128.5671067  47.2372077  57.4699900 128.6963448  47.4906556  58.3839311
 127.8868518  47.8299785  57.1504555 132.7370554  57.9069327  53.5690374
 132.6594584  58.8577152  53.6478854 132.1332198  57.5615200  54.2265300
 135.2287784  45.0797193  66.2251741 134.4521118  45.6391113  66.2154605
 135.8678347  45.5653976  66.7466611 133.4834156  47.8882646  65.7869708
 134.2248840  48.4267690  65.5104531 132.7771142  48.5148935  65.9441259
 138.9589496  50.0311786  64.3841869 139.3672852  49.5894197  63.6396501
 138.2366757  49.4564414  64.6376062 135.3120566  44.9684393  61.7575426
 136.1581761  45.3923807  61.9010075 135.2519203  44.3118017  62.4513989
 139.2818310  50.5912977  58.1394158 138.6527173  50.7558691  57.4370226
 138.8943972  51.0054587  58.9105122 138.4620011  42.6288762  63.4156600
 138.2180943  43.3830822  62.8790875 138.7379942  43.0074109  64.2503847
 140.4158474  49.1727374  62.0933865 140.6275369  49.8159134  61.4168246
 140.3688222  48.3389690  61.6255795 138.0184703  41.7845195  58.9970437
 137.1569182  42.0826448  59.2887175 138.0447137  42.0015593  58.0651470
 134.8346272  50.3287385  55.4044243 135.2984618  50.6075088  54.6148866
 134.5703070  49.4270830  55.2217334 131.7270353  49.8758867  58.3424006
 132.2971710  50.3046135  57.7041491 132.3178465  49.5941451  59.0408192
 133.7715158  46.4510537  52.2133808 134.4739202  46.9031581  52.6807735
 133.4395787  45.8094356  52.8413701 132.2195520  45.0422294  66.5885018
 131.5894180  45.7238575  66.8220414 132.1131608  44.9305376  65.6438156
 127.5140492  44.7094090  57.5150942 126.7239546  44.9651619  57.0391052
 128.0051740  45.5242428  57.6202982 129.4655238  45.0738669  54.4734419
 128.6686401  45.1857364  54.9917914 129.2380830  45.4125322  53.6075309
 135.2960905  51.5983373  62.4216933 135.3605338  52.0603780  63.2575105
 134.5871829  50.9680738  62.5499243 125.7978195  44.9624581  59.9465933
 126.0486234  45.8471591  60.2123509 126.3337744  44.7829182  59.1741024
 135.0108923  53.2651480  52.2895913 134.8754598  54.1103016  52.7180761
 135.5518735  53.4670758  51.5261847 131.4976263  39.3443060  68.9510269
 131.1043208  38.7909259  69.6257913 132.3142403  39.6553638  69.3416786
 128.4638320  50.7826918  52.8623839 128.9762841  51.5770168  53.0129403
 129.1161033  50.0853209  52.7957440 130.2733205  53.8992674  54.9446592
 130.4499833  54.8210639  54.7567576 131.0690039  53.5851094  55.3740972
 134.4144224  40.7600939  66.5430525 135.1553937  41.3608092  66.4634988
 134.6462146  40.0178577  65.9848568 129.5585562  45.9457306  64.8208755
 129.4439077  45.0442564  65.1215854 128.7030079  46.1921003  64.4693571
 136.6377399  53.8875047  66.4196256 136.1941253  53.1011425  66.1017160
 137.2994613  54.0754197  65.7540146 131.3964520  55.4170848  60.9456934
 131.9471946  55.2887912  60.1733928 130.5575996  55.7165737  60.5951827
 138.7358637  54.1677847  64.4477657 138.7177113  54.9886728  63.9557926
 139.6578557  54.0431922  64.6727798 135.1931692  51.6821976  65.2901165
 135.7260028  50.9210264  65.0600473 134.6645773  51.3895628  66.0325320
 138.3601386  36.7882042  60.8194807 138.0165656  37.6783684  60.7433918
 138.7280349  36.5983700  59.9564392 126.4287237  49.1115572  53.6383409
 127.2662459  49.5212581  53.4217117 126.6065505  48.1715015  53.6083603
 138.3251669  46.7790653  49.3267242 137.8098293  47.5495258  49.5655629
 138.0528978  46.1055789  49.9500303 135.9098780  41.6240354  54.3852480
 135.0540377  41.2347204  54.2058119 136.3225732  41.7032315  53.5252266
 137.4397927  39.1586697  58.7844040 136.9362722  39.1216832  57.9711845
 137.7328534  40.0679440  58.8440697 133.6840813  39.2425427  57.7910222
 134.5493810  39.0468236  57.4316111 133.7518322  39.0135779  58.7179579
 138.1137972  44.6517745  51.1527023 137.8088108  44.9663894  52.0037166
 139.0668415  44.7299165  51.1954356 136.5584404  50.8107969  52.8019977
 136.0305766  50.0760728  52.4893215 136.0571907  51.5882645  52.5559946
 131.2903132  41.4727635  55.1626589 131.8646884  41.2502816  54.4299782
 131.8774114  41.5416329  55.9155190 140.3482709  47.3601362  55.9690965
 140.8614591  47.9931354  56.4712675 140.9983933  46.7602557  55.6034325
 131.6172719  43.5032096  49.1822474 130.7810031  43.8406782  49.5031749
 131.4777489  43.3681076  48.2449611 133.5925800  38.3468884  53.8901658
 132.9390212  38.0317901  53.2658273 133.5506274  37.7244624  54.6161481
 134.7037004  48.6288179  45.8054950 133.7964066  48.3977432  46.0046099
 135.2008036  47.8325798  45.9928932 137.6105083  57.3385686  48.7251636
 136.9366782  57.6417383  49.3336594 137.9970905  58.1414766  48.3757093
 136.8263540  44.8350817  58.2149306 135.9086101  45.0565764  58.0570994
 137.2423684  44.9097128  57.3561013 137.6098588  46.2342233  53.3451986
 138.3570407  46.7463630  53.0359108 137.8790177  45.9126286  54.2056380
 135.8825238  48.7300774  50.3278940 134.9736457  48.4459806  50.4251410
 135.9120322  49.1499852  49.4682247 141.1144505  52.3407363  54.0970108
 140.6606832  51.4998273  54.1535298 140.4838472  52.9768762  54.4344888
 140.0577425  43.2699349  55.3270775 139.3200182  42.7576735  55.6581018
 140.3104198  42.8299731  54.5154052 139.5577445  54.1783860  55.0319926
 139.8500419  54.7388917  54.3132292 140.0676065  54.4712421  55.7873085
 140.1589052  36.0475601  55.9212545 140.4647929  35.1872965  55.6338460
 140.8841657  36.6393221  55.7211539 126.4513408  46.4506288  54.3094143
 126.2537808  45.8575648  53.5845209 125.8960072  46.1458498  55.0270081
 134.4310132  46.3429394  56.4288736 134.4858742  45.3903231  56.3531212
 133.6201334  46.4988833  56.9130034 135.5801326  50.2709517  47.6667019
 135.1420756  49.5545376  47.2072656 136.3211767  50.4985632  47.1052110
 132.3702492  44.9606454  54.1879115 131.5570357  45.2600625  54.5944307
 132.8661486  44.5662143  54.9053597 134.5211070  54.9564211  56.1213379
 134.4787248  55.1825057  55.1921911 135.4373769  54.7227586  56.2699180
 137.9676703  45.4248278  63.0194008 138.3226091  45.6519752  63.8788474
 138.6148835  45.7566655  62.3971264 131.8616567  42.5324810  59.8040350
 132.5015946  42.3913569  59.1063313 131.0294097  42.2459323  59.4278951
 132.6376870  51.8327240  55.9175342 133.4317469  51.3377560  55.7157917
 131.9268563  51.3045103  55.5543048 137.4571715  54.2145335  60.2687710
 137.5108737  54.7836272  61.0365425 136.5886496  54.3847221  59.9041747
 128.9459634  45.9770322  51.9935095 128.0157222  45.9154777  52.2105057
 129.0417106  45.4546274  51.1971736 128.8645183  42.5025135  54.5813336
 129.1252000  43.4170468  54.4722497 129.6862355  42.0349577  54.7309949
 130.3370108  43.9162892  61.7512161 131.0093162  43.7080254  61.1024810
 129.5099895  43.7184978  61.3117393 136.2395680  40.5424833  63.7677822
 135.5923595  41.2414782  63.6742298 137.0096696  40.9760977  64.1354070
 139.6474478  50.8073685  66.8428375 139.4959985  50.5784236  65.9258459
 139.6379158  51.7644286  66.8559720 136.4159815  48.3805597  61.8274641
 137.3451875  48.5316757  61.6543609 135.9950845  48.4689618  60.9723288
 135.2148146  52.4056262  59.5973179 135.0759232  52.0375046  60.4699117
 134.4262743  52.9203901  59.4257137 135.8096298  57.5065358  50.9398716
 135.9848054  57.0353402  51.7544338 135.1229086  58.1331125  51.1679976
 136.7653362  51.7837865  56.9862017 136.4303194  51.7438635  57.8819667
 136.2657307  51.1182581  56.5132427 130.7397606  47.1905495  62.5114598
 130.6017404  46.4585733  63.1126137 131.6502529  47.1014395  62.2298786
 139.7012553  49.1293899  47.2599076 139.0841724  48.4040727  47.1632129
 139.2329042  49.8903259  46.9166151 133.3679906  46.9025454  61.9998278
 134.0779525  46.2618646  61.9584896 133.3249214  47.1538349  62.9224458
 132.0808840  43.8890672  63.8193917 131.5446197  43.4381410  64.4715513
 131.4925549  44.0236581  63.0764381 130.3757384  60.6554721  57.7138576
 130.6153982  61.2873245  58.3917594 129.5326580  60.3042761  58.0003935
 131.4911099  43.3479323  46.3820381 130.6140565  43.2268124  46.0182627
 131.9668852  42.5565402  46.1299269 123.0113239  48.1356483  56.4761888
 123.6984279  47.8218213  55.8882903 122.8561368  49.0397848  56.2029139
 127.8147961  43.0246680  60.9046912 127.7306150  42.4172349  60.1697322
 126.9930668  43.5155698  60.9056408 134.8885246  56.4633844  60.1180080
 134.8155417  57.2688815  60.6299384 134.4462639  56.6625809  59.2928101
 134.6775025  55.7005614  53.6282901 133.8942547  56.2427294  53.7221126
 135.3767770  56.2179593  54.0277142 137.9871675  41.5100243  56.2717107
 138.4840375  40.7570205  55.9518177 137.2158657  41.5464560  55.7060316
 137.3483929  56.3620678  62.2738238 138.0611901  56.9968142  62.2014140
 136.8573958  56.4584544  61.4578240 139.0701456  50.2671930  53.8455530
 138.1357735  50.3873393  53.6760234 139.2478124  49.3644397  53.5815540
 134.5706644  43.6517626  55.9988791 134.2004432  43.0988666  56.6869697
 135.0665737  43.0475760  55.4463791 132.3995843  54.1115121  63.0943809
 133.1005302  54.7451604  63.2473203 131.9290958  54.4529853  62.3339448
 140.5250238  52.4533071  51.3791716 140.8010082  52.3389665  52.2885590
 139.6554737  52.0550556  51.3403889 140.4290670  38.4769837  58.4196466
 139.5153750  38.7074063  58.5878672 140.8583772  38.5608281  59.2710498
 140.1997129  46.6659729  60.9196360 139.5468579  46.9135636  60.2648812
 140.5777509  45.8523867  60.5858837 137.1604302  56.7019422  55.0224530
 137.3426697  55.8841078  55.4852282 137.9837288  56.9187114  54.5849420
 137.4946468  55.6287607  52.2839578 138.0234234  55.1180061  51.6709740
 137.7574688  55.3130137  53.1485111 136.2484702  47.4079540  67.4062397
 135.5725339  47.3073669  68.0764772 137.0712336  47.2518753  67.8698394
 127.9963561  53.6451476  60.0274912 128.5816998  52.8995164  60.1602816
 127.7988399  53.9555433  60.9111576 130.8502216  56.6802724  55.0437354
 130.1812591  57.1648851  54.5601394 130.7115086  56.9271944  55.9580733
 122.5881215  46.2157076  58.7479355 122.6265315  45.6820667  59.5416473
 122.0821508  45.6892282  58.1290332 134.9907485  58.7146467  61.6420013
 135.5425793  58.8778089  62.4069098 135.3313678  59.3050905  60.9700037
 129.9671978  41.0621617  62.2441897 130.0313304  41.9236448  61.8319295
 129.9039098  40.4495619  61.5114256 129.4424250  43.1344749  65.8914932
 130.0696289  42.7521827  66.5052456 128.5852169  42.9158951  66.2570624
 139.8418359  53.5407725  67.4968667 140.3858263  54.1537683  67.0023622
 139.2605204  54.0987303  68.0135680 126.2189793  44.9421179  51.8233286
 126.5143234  44.0331857  51.7700340 125.3177829  44.9208918  51.5014289
 138.1275872  56.6628443  58.6283695 138.0027011  55.8618182  58.1194640
 138.7854963  57.1574636  58.1397665 129.7484040  43.0177175  57.8060835
 129.0270626  43.6313143  57.6668308 130.5377296  43.5534940  57.7277481
 140.1910780  54.4637463  60.2563245 139.2441116  54.3442814  60.1841572
 140.5393553  53.5759961  60.3389506 132.5510354  40.3531602  64.0801487
 133.0744755  40.5993898  64.8427796 132.3322687  41.1851636  63.6604624
 127.9477635  42.6235276  51.9472612 127.6190341  41.7432655  51.7647718
 128.3017005  42.5682945  52.8349001 137.1957213  54.2590179  56.4567597
 137.0482176  53.3306886  56.6375167 138.0210707  54.2810270  55.9724672
 131.0619458  42.9108246  52.3148089 131.4015530  43.4394167  51.5926698
 131.5091578  43.2488652  53.0906656 133.7562899  41.2945297  61.7651157
 133.4159719  40.4953110  62.1671837 133.0501905  41.5947008  61.1927991
 134.4079370  38.3794609  60.2178480 135.2305440  37.9055087  60.0957371
 134.6517434  39.1585093  60.7177167 133.0487605  41.4082868  50.5141382
 133.7695967  41.7864120  50.0105099 132.4252909  42.1271744  50.6176360
 137.1918728  42.1128017  51.4499714 137.4082342  42.9952654  51.1488543
 136.7112795  41.7214230  50.7205356 131.9317949  45.0713730  58.0270459
 131.7862530  45.3854033  58.9194740 131.4543153  45.6898630  57.4741358
 133.7914332  42.0616278  58.0751349 133.7775901  41.1657371  57.7383646
 134.5086760  42.0686941  58.7089635 135.6440463  42.4953618  60.1204476
 135.3858241  43.4170689  60.1188806 135.1125503  42.0984052  60.8104940
 140.5886652  55.6004405  52.8994561 140.7623529  55.0350828  52.1468414
 141.0815543  56.4005300  52.7174051 126.4063611  47.6119074  60.9658120
 125.8617079  48.3878882  61.0978394 127.2842961  47.9589879  60.8077242
 133.1951228  40.9430658  53.3438919 133.3167139  40.0147304  53.5429806
 132.9053270  40.9569344  52.4317234 136.0642418  38.6285568  56.4805638
 136.0864115  38.6924902  55.5257618 136.4810477  37.7890077  56.6746145
 127.1929633  46.7388970  63.8588277 126.4511369  46.8871606  64.4452907
 126.8722377  46.9997236  62.9955026 135.1373296  56.2804949  63.6568667
 135.4460422  56.0354095  64.5291367 135.9348778  56.4851587  63.1687537
 135.1593908  58.4342858  55.8874044 134.7198898  57.9419237  56.5806900
 135.9102025  57.8915826  55.6466119 127.6386247  54.6254399  55.8898672
 128.4644267  54.3258171  55.5097315 127.2880299  53.8562022  56.3388460
 132.6067780  53.9780867  57.9596345 131.9847789  53.3151572  57.6598573
 133.2772647  54.0041999  57.2769993 125.8394852  52.5440726  56.8487605
 125.0026760  52.1162900  56.6671606 125.8118497  52.7373169  57.7858396
 132.6792308  42.4562655  67.5528851 132.7280463  43.3324778  67.1706621
 133.2214822  41.9140048  66.9800494 132.1681287  52.5284791  51.4354806
 132.3169407  53.2120255  50.7821479 132.9747730  52.5089881  51.9504262
 134.9091596  43.2094028  64.3075210 134.0394905  43.5027594  64.0357798
 135.1451076  43.7934473  65.0282474 129.9233920  48.5549968  52.4415875
 129.6779962  47.6512298  52.6396085 130.0929834  48.5567119  51.4995353
 137.6130630  39.4273645  61.8240630 138.1312574  40.1634672  61.4987119
 137.2585763  39.7337638  62.6587389 129.1929567  44.2878326  49.9402036
 128.4998812  44.3622681  49.2842072 128.9481319  43.5238670  50.4623553
 137.8643224  35.8473927  57.3441527 138.1444978  35.1797116  57.9701953
 138.6493831  36.0403023  56.8316191 135.6676692  55.0232921  48.9066553
 135.0950660  55.6423108  48.4537025 136.2409486  55.5732283  49.4406475
 139.7566462  41.3547144  61.2772503 139.1616394  41.6352157  60.5818992
 139.4716158  41.8441045  62.0489244 138.8873952  55.3070071  50.0375135
 139.8204625  55.2415633  50.2408011 138.7997165  56.1426338  49.5789668
 136.0523491  46.3593734  46.2482606 136.9982596  46.2299942  46.3171024
 135.6737736  45.6208396  46.7252034 135.9362183  50.4111480  67.7083263
 136.8565193  50.5890079  67.9023309 135.9011767  49.4667525  67.5562962
 134.2366408  44.2843710  46.1837491 133.3297864  43.9876823  46.2600205
 134.5142389  43.9873528  45.3171777 125.1544348  45.6050074  56.6336537
 124.8347133  44.7515382  56.3410911 124.6077777  45.8198652  57.3894505
 128.9324256  48.3212515  60.3506044 129.1510266  49.2529623  60.3694078
 129.3450030  47.9620489  61.1360848 135.8528474  38.8280600  52.3381732
 135.0429202  38.4827685  52.7136978 136.5412891  38.5188144  52.9269344
 137.7819022  37.9058647  53.9606029 138.3350061  38.3254100  54.6196052
 138.0189108  36.9794395  54.0028985 133.8052121  43.8945720  69.7408793
 133.7048848  44.8440077  69.6720884 133.5873663  43.5663959  68.8684863
 133.0065193  41.1430646  46.3249470 133.8684357  41.4685544  46.5845287
 133.1915537  40.3562141  45.8122536 125.0232608  49.2252985  58.6029659
 124.3296080  48.8106938  58.0899613 125.7705599  49.2673522  58.0063078
 139.6101396  39.4164230  55.6706013 140.1101174  39.5280764  54.8620332
 140.2537004  39.1125283  56.3106822 133.6683391  47.3242859  68.5573854
 133.1850473  48.1243219  68.7637743 133.7544330  47.3350804  67.6041298
 126.9369351  49.1571239  56.4795674 126.9140039  49.2558926  55.5277557
 127.2469988  50.0036390  56.8012840 129.5956729  51.2147394  60.5942288
 130.5499982  51.1831336  60.5272220 129.3969252  50.7538018  61.4092514
 130.1856111  49.7848510  63.1613086 131.0049000  50.2792589  63.1847923
 130.4592919  48.8680478  63.1330653 139.9422707  42.1759262  52.5241041
 139.0548562  42.4608913  52.3061236 140.3576696  42.0153026  51.6768318
 127.9506958  56.7567013  57.6112486 127.8161426  55.9967414  57.0450484
 127.5339020  57.4807913  57.1441275 139.0865921  51.9403937  46.6189061
 139.7901771  52.1453940  47.2346717 138.3628569  52.5080699  46.8838145
 139.9163731  47.6913798  52.7391332 139.8598932  48.1482350  51.8998964
 140.4692073  46.9304483  52.5614174 131.1076084  57.6536331  57.8230929
 130.9908468  58.5981763  57.7209619 130.2868530  57.3509892  58.2116728
 140.6498510  48.8818580  50.0343861 140.5947314  48.7162851  49.0932305
 140.0244566  49.5894612  50.1906050 125.4391025  44.1186644  63.8605283
 126.0849889  43.6085598  64.3492508 125.2308176  44.8555326  64.4348708
 137.9644417  51.1867491  69.3597423 138.8335577  51.3608144  68.9984058
 137.4851169  52.0061908  69.2373153 133.9594636  38.3826689  49.6129179
 133.9473306  39.3268528  49.7697450 134.8518058  38.1996834  49.3188640
 132.1330598  58.3064592  61.0386857 133.0357844  58.3388203  61.3553352
 131.9067968  57.3765043  61.0533193 133.8884200  57.0595579  57.6996936
 132.9379831  57.0597441  57.5861308 134.1916686  56.3128314  57.1832970
 137.7746755  34.9769465  53.8675116 137.0079151  34.4227952  54.0131798
 138.1857460  35.0491334  54.7289268 129.7788516  41.2654261  67.9580297
 130.6419978  40.9091066  68.1683622 129.2053927  40.9268156  68.6455701
 139.8377847  66.1970213  57.5285334 140.6299139  65.8561038  57.1131634
 140.0774497  66.3065188  58.4487488 139.4064821  62.5663995  57.4699900
 139.5357202  62.8198474  58.3839311 138.7262273  63.1591703  57.1504555
 138.3534247  60.0386008  57.5150942 137.5633301  60.2943536  57.0391052
 138.8445494  60.8534346  57.6202982 140.3048992  60.4030587  54.4734419
 139.5080155  60.5149281  54.9917914 140.0774584  60.7417239  53.6075309
 136.6371950  60.2916498  59.9465933 136.8879988  61.1763508  60.2123509
 137.1731498  60.1121100  59.1741024 139.3032075  66.1118836  52.8623839
 139.8156595  66.9062086  53.0129403 139.9554788  65.4145126  52.7957440
 140.3979316  61.2749224  64.8208755 140.2832831  60.3734481  65.1215854
 139.5423834  61.5212921  64.4693571 137.2680992  64.4407490  53.6383409
 138.1056214  64.8504498  53.4217117 137.4459259  63.5006932  53.6083603
 137.2907163  61.7798205  54.3094143 137.0931563  61.1867566  53.5845209
 136.7353827  61.4750416  55.0270081 139.7853388  61.3062239  51.9935095
 138.8550977  61.2446695  52.2105057 139.8810860  60.7838192  51.1971736
 139.7038937  57.8317052  54.5813336 139.9645755  58.7462385  54.4722497
 140.5256110  57.3641495  54.7309949 133.8506994  63.4648401  56.4761888
 134.5378034  63.1510131  55.8882903 133.6955122  64.3689765  56.2029139
 138.6541716  58.3538597  60.9046912 138.5699905  57.7464267  60.1697322
 137.8324422  58.8447616  60.9056408 138.8357315  68.9743394  60.0274912
 139.4210752  68.2287082  60.1602816 138.6382154  69.2847351  60.9111576
 133.4274970  61.5448994  58.7479355 133.4659069  61.0112585  59.5416473
 132.9215263  61.0184200  58.1290332 140.8065732  56.3913535  62.2441897
 140.8707059  57.2528365  61.8319295 140.7432852  55.7787536  61.5114256
 140.2818005  58.4636667  65.8914932 140.9090044  58.0813744  66.5052456
 139.4245924  58.2450869  66.2570624 137.0583548  60.2713096  51.8233286
 137.3536989  59.3623775  51.7700340 136.1571583  60.2500836  51.5014289
 138.7871389  57.9527194  51.9472612 138.4584095  57.0724573  51.7647718
 139.1410760  57.8974863  52.8349001 137.2457366  62.9410992  60.9658120
 136.7010834  63.7170800  61.0978394 138.1236716  63.2881796  60.8077242
 138.0323388  62.0680888  63.8588277 137.2905124  62.2163523  64.4452907
 137.7116132  62.3289154  62.9955026 138.4780001  69.9546317  55.8898672
 139.3038021  69.6550089  55.5097315 138.1274053  69.1853939  56.3388460
 136.6788606  67.8732643  56.8487605 135.8420515  67.4454818  56.6671606
 136.6512252  68.0665087  57.7858396 140.7627674  63.8841886  52.4415875
 140.5173716  62.9804216  52.6396085 140.9323589  63.8859036  51.4995353
 140.0323322  59.6170244  49.9402036 139.3392567  59.6914599  49.2842072
 139.7875074  58.8530587  50.4623553 135.9938103  60.9341991  56.6336537
 135.6740887  60.0807300  56.3410911 135.4471531  61.1490570  57.3894505
 139.7718011  63.6504432  60.3506044 139.9904020  64.5821540  60.3694078
 140.1843784  63.2912407  61.1360848 135.8626363  64.5544903  58.6029659
 135.1689834  64.1398856  58.0899613 136.6099354  64.5965439  58.0063078
 137.7763106  64.4863157  56.4795674 137.7533794  64.5850844  55.5277557
 138.0863742  65.3328307  56.8012840 138.7900712  72.0858931  57.6112486
 138.6555180  71.3259332  57.0450484 138.3732774  72.8099831  57.1441275
 136.2784780  59.4478562  63.8605283 136.9243643  58.9377516  64.3492508
 136.0701931  60.1847243  64.4348708 121.8976801  19.5839532  40.2935680
 121.8200830  20.5347357  40.3724161 121.2938444  19.2385405  40.9510607
 124.1715170  14.9421685  39.0141220 124.0360844  15.7873221  39.4426068
 124.7124982  15.1440963  38.2507154 119.4339452  15.5762879  41.6691898
 119.6106080  16.4980844  41.4812882 120.2296285  15.2621299  42.0986278
 120.5570767  17.0941053  47.6702241 121.1078192  16.9658116  46.8979235
 119.7182243  17.3935942  47.3197134 126.7711330  19.0155891  35.4496943
 126.0973029  19.3187588  36.0581901 127.1577152  19.8184971  35.1002400
 123.6817316  16.6334416  42.8458686 123.6393495  16.8595262  41.9167218
 124.5980015  16.3997790  42.9944487 126.6177962  15.8915540  46.9933016
 126.6714984  16.4606477  47.7610732 125.7492743  16.0617425  46.6287053
 124.9702545  19.1835563  37.6644022 125.1454301  18.7123606  38.4789645
 124.2835333  19.8101330  37.8925283 119.5363630  22.3324926  44.4383882
 119.7760229  22.9643450  45.1162901 118.6932827  21.9812966  44.7249242
 124.0491492  18.1404049  46.8425386 123.9761664  18.9459020  47.3544691
 123.6068885  18.3396014  46.0173408 123.8381272  17.3775819  40.3528208
 123.0548794  17.9197499  40.4466432 124.5374017  17.8949798  40.7522449
 126.5090176  18.0390883  48.9983545 127.2218148  18.6738347  48.9259447
 126.0180205  18.1354749  48.1823547 121.5602089  15.7885326  49.8189116
 122.2611549  16.4221809  49.9718510 121.0897204  16.1300058  49.0584755
 126.3210549  18.3789627  41.7469837 126.5032944  17.5611283  42.2097589
 127.1443535  18.5957319  41.3094726 126.6552715  17.3057812  39.0084885
 127.1840481  16.7950266  38.3955047 126.9180934  16.9900342  39.8730418
 117.1569807  15.3221681  46.7520219 117.7423244  14.5765369  46.8848123
 116.9594646  15.6325638  47.6356882 120.0108463  18.3572928  41.7682661
 119.3418838  18.8419056  41.2846701 119.8721332  18.6042149  42.6826039
 124.1513731  20.3916672  48.3665319 124.7032039  20.5548293  49.1314405
 124.4919925  20.9821110  47.6945344 127.2882119  18.3398647  45.3529001
 127.1633258  17.5388387  44.8439947 127.9461210  18.8344841  44.8642971
 124.2979543  17.9575154  50.3813974 124.6066669  17.7124300  51.2536673
 125.0955025  18.1621792  49.8932844 124.3200155  20.1113063  42.6119350
 123.8805145  19.6189442  43.3052207 125.0708272  19.5686031  42.3711425
 116.7992494  16.3024604  42.6143978 117.6250514  16.0028376  42.2342622
 116.4486546  15.5332226  43.0633767 121.7674027  15.6551072  44.6841652
 121.1454036  14.9921777  44.3843880 122.4378894  15.6812204  44.0015300
 115.0001099  14.2210931  43.5732912 114.1633007  13.7933105  43.3916913
 114.9724744  14.4143374  44.5103703 124.8282939  16.7003126  35.6311860
 124.2556906  17.3193313  35.1782332 125.4015733  17.2502488  36.1651782
 128.0480199  16.9840276  36.7620442 128.9810872  16.9185838  36.9653318
 127.9603412  17.8196543  36.3034975 117.1113204  18.4337218  44.3357793
 116.9767672  17.6737619  43.7695791 116.6945267  19.1578118  43.8686582
 120.2682330  19.3306535  44.5476235 120.1514714  20.2751968  44.4454926
 119.4474777  19.0280097  44.9362035 121.2936844  19.9834797  47.7632164
 122.1964091  20.0158408  48.0798659 121.0674215  19.0535248  47.7778500
 123.0490446  18.7365784  44.4242242 122.0986077  18.7367645  44.3106615
 123.3522933  17.9898518  43.9078277 138.7843140  24.5726322  45.4888005
 139.4221550  24.4533070  44.7851345 138.6663983  25.5207166  45.5475957
 135.5932846  24.5253750  45.4249530 135.2551358  24.4094815  44.5370064
 136.4622614  24.1244915  45.4050536 131.4519662  26.3789227  41.4146420
 130.8884527  26.2879164  40.6462708 131.3372057  25.5589131  41.8948913
 136.0752629  25.6788602  51.3835735 136.0641270  25.2841400  50.5116239
 136.2373269  24.9454675  51.9769506 128.9984094  27.8740418  44.2530641
 129.7905386  27.5331243  43.8376940 129.2380744  27.9835393  45.1732794
 137.0319221  30.0460194  36.7260885 136.3807200  30.6314275  36.3394899
 137.8263583  30.5766389  36.7855923 130.9574848  27.1349332  37.1248020
 131.7305724  26.5878319  36.9860896 131.3100247  27.9993581  37.3362481
 132.7959890  28.4625714  50.3314919 132.5049756  29.3671345  50.2161585
 133.4316875  28.5042241  51.0458989 133.7216097  25.8402562  46.9216279
 134.3179669  25.6158585  46.2073242 133.7791069  25.0987308  47.5241727
 138.3384408  22.2977776  42.5641213 139.1247498  21.8797199  42.2131630
 138.6023113  23.2023868  42.7322861 138.5094486  27.7350626  37.2629870
 137.8740319  27.8085253  37.9750774 138.1791892  28.3244225  36.5848949
 133.0137414  25.1970104  36.9590845 132.8973672  24.5215007  37.6271929
 133.1239674  24.7102478  36.1422998 135.3568955  24.6580251  40.6637534
 134.9927163  24.1310872  41.3750455 136.2136071  24.2678720  40.4904019
 137.7549775  28.1487129  47.3264713 137.4550499  29.0512168  47.2180520
 137.4100835  27.8819313  48.1785866 131.2062257  24.6000926  43.3601417
 130.2812753  24.4677140  43.5679109 131.4546670  25.3795145  43.8571360
 134.9763663  22.1427808  36.6445549 134.8563288  22.5884859  37.4831029
 134.2816252  22.4913126  36.0859087 128.5671068  24.2434200  44.1945206
 128.6963449  24.4968679  45.1084618 127.8868519  24.8361908  43.8749861
 132.7370555  34.9131450  40.2935680 132.6594585  35.8639275  40.3724161
 132.1332199  34.5677322  40.9510607 135.2287785  22.0859315  52.9497047
 134.4521119  22.6453235  52.9399912 135.8678348  22.5716098  53.4711917
 133.4834157  24.8944769  52.5115014 134.2248842  25.4329812  52.2349838
 132.7771143  25.5211057  52.6686566 138.9589497  27.0373909  51.1087176
 139.3672853  26.5956320  50.3641808 138.2366758  26.4626537  51.3621369
 135.3120567  21.9746516  48.4820733 136.1581762  22.3985929  48.6255382
 135.2519205  21.3180140  49.1759296 139.2818312  27.5975100  44.8639465
 138.6527174  27.7620814  44.1615533 138.8943974  28.0116709  45.6350429
 140.4158475  26.1789496  48.8179172 140.6275370  26.8221256  48.1413553
 140.3688223  25.3451813  48.3501102 134.8346273  27.3349508  42.1289550
 135.2984619  27.6137211  41.3394172 134.5703072  26.4332952  41.9462640
 131.7270355  26.8820989  45.0669313 132.2971712  27.3108258  44.4286798
 132.3178466  26.6003574  45.7653499 133.7715160  23.4572660  38.9379115
 134.4739203  23.9093704  39.4053041 133.4395788  22.8156479  39.5659008
 132.2195521  22.0484417  53.3130324 131.5894182  22.7300698  53.5465721
 132.1131609  21.9367498  52.3683463 127.5140494  21.7156213  44.2396248
 126.7239547  21.9713741  43.7636359 128.0051741  22.5304551  44.3448289
 129.4655239  22.0800792  41.1979725 128.6686402  22.1919486  41.7163221
 129.2380831  22.4187444  40.3320616 135.2960907  28.6045495  49.1462240
 135.3605339  29.0665902  49.9820412 134.5871830  27.9742860  49.2744550
 125.7978196  21.9686703  46.6711239 126.0486235  22.8533713  46.9368815
 126.3337745  21.7891305  45.8986331 135.0108924  30.2713603  39.0141220
 134.8754599  31.1165138  39.4426068 135.5518737  30.4732880  38.2507154
 128.4638322  27.7889041  39.5869145 128.9762842  28.5832291  39.7374710
 129.1161034  27.0915331  39.5202747 130.2733206  30.9054797  41.6691898
 130.4499835  31.8272762  41.4812882 131.0690040  30.5913216  42.0986278
 129.5585563  22.9519429  51.5454062 129.4439078  22.0504686  51.8461160
 128.7030081  23.1983126  51.1938878 136.6377401  30.8937169  53.1441562
 136.1941255  30.1073548  52.8262467 137.2994614  31.0816320  52.4785453
 131.3964522  32.4232971  47.6702241 131.9471947  32.2950034  46.8979235
 130.5575998  32.7227860  47.3197134 138.7358639  31.1739969  51.1722963
 138.7177114  31.9948850  50.6803233 139.6578559  31.0494044  51.3973105
 135.1931693  28.6884099  52.0146472 135.7260030  27.9272387  51.7845780
 134.6645774  28.3957750  52.7570626 126.4287238  26.1177695  40.3628716
 127.2662460  26.5274703  40.1462423 126.6065506  25.1777137  40.3328910
 136.5584405  27.8170091  39.5265284 136.0305767  27.0822851  39.2138521
 136.0571908  28.5944767  39.2805252 131.2903133  18.4789757  41.8871895
 131.8646885  18.2564939  41.1545088 131.8774116  18.5478452  42.6400497
 140.3482710  24.3663484  42.6936272 140.8614592  24.9993476  43.1957982
 140.9983934  23.7664680  42.3279632 131.6172720  20.5094218  35.9067781
 130.7810032  20.8468905  36.2277055 131.4777490  20.3743198  34.9694918
 137.6105085  34.3447809  35.4496943 136.9366783  34.6479505  36.0581901
 137.9970907  35.1476889  35.1002400 136.8263541  21.8412940  44.9394612
 135.9086103  22.0627887  44.7816300 137.2423685  21.9159250  44.0806320
 137.6098589  23.2404356  40.0697293 138.3570408  23.7525753  39.7604415
 137.8790178  22.9188408  40.9301686 135.8825239  25.7362896  37.0524247
 134.9736458  25.4521929  37.1496717 135.9120323  26.1561975  36.1927554
 141.1144507  29.3469486  40.8215415 140.6606834  28.5060396  40.8780605
 140.4838473  29.9830884  41.1590195 139.5577446  31.1845982  41.7565233
 139.8500420  31.7451040  41.0377598 140.0676066  31.4774543  42.5118392
 126.4513409  23.4568410  41.0339449 126.2537809  22.8637771  40.3090516
 125.8960073  23.1520621  41.7515388 134.4310133  23.3491517  43.1534042
 134.4858743  22.3965353  43.0776519 133.6201335  23.5050956  43.6375341
 132.3702493  21.9668577  40.9124421 131.5570359  22.2662747  41.3189613
 132.8661487  21.5724265  41.6298903 134.5211071  31.9626334  42.8458686
 134.4787250  32.1887180  41.9167218 135.4373770  31.7289708  42.9944487
 137.9676705  22.4310401  49.7439315 138.3226092  22.6581874  50.6033781
 138.6148836  22.7628778  49.1216570 131.8616568  19.5386932  46.5285656
 132.5015947  19.3975691  45.8308619 131.0294098  19.2521445  46.1524258
 132.6376872  28.8389363  42.6420649 133.4317470  28.3439683  42.4403224
 131.9268564  28.3107226  42.2788354 137.4571716  31.2207458  46.9933016
 137.5108738  31.7898394  47.7610732 136.5886498  31.3909343  46.6287053
 128.9459635  22.9832444  38.7180401 128.0157223  22.9216900  38.9350363
 129.0417107  22.4608397  37.9217043 128.8645184  19.5087257  41.3058643
 129.1252002  20.4232590  41.1967803 129.6862357  19.0411700  41.4555256
 130.3370110  20.9225014  48.4757467 131.0093163  20.7142376  47.8270116
 129.5099896  20.7247100  48.0362700 139.6474480  27.8135807  53.5673682
 139.4959986  27.5846359  52.6503765 139.6379159  28.7706409  53.5805027
 136.4159816  25.3867720  48.5519948 137.3451876  25.5378880  48.3788915
 135.9950846  25.4751741  47.6968595 135.2148148  29.4118385  46.3218486
 135.0759233  29.0437169  47.1944424 134.4262744  29.9266024  46.1502443
 135.8096300  34.5127481  37.6644022 135.9848055  34.0415524  38.4789645
 135.1229088  35.1393247  37.8925283 136.7653363  28.7899987  43.7107323
 136.4303195  28.7500757  44.6064973 136.2657309  28.1244703  43.2377734
 130.7397607  24.1967617  49.2359905 130.6017405  23.4647856  49.8371444
 131.6502530  24.1076517  48.9544092 133.3679907  23.9087577  48.7243584
 134.0779526  23.2680769  48.6830203 133.3249216  24.1600471  49.6469765
 132.0808841  20.8952794  50.5439224 131.5446198  20.4443533  51.1960820
 131.4925550  21.0298703  49.8009688 130.3757385  37.6616844  44.4383882
 130.6153983  38.2935368  45.1162901 129.5326581  37.3104884  44.7249242
 123.0113241  25.1418606  43.2007195 123.6984280  24.8280336  42.6128210
 122.8561369  26.0459970  42.9274446 127.8147963  20.0308802  47.6292218
 127.7306151  19.4234472  46.8942628 126.9930669  20.5217820  47.6301715
 134.8885247  33.4695966  46.8425386 134.8155418  34.2750938  47.3544691
 134.4462640  33.6687932  46.0173408 134.6775026  32.7067736  40.3528208
 133.8942548  33.2489416  40.4466432 135.3767772  33.2241716  40.7522449
 137.3483930  33.3682800  48.9983545 138.0611903  34.0030265  48.9259447
 136.8573959  33.4646666  48.1823547 139.0701457  27.2734053  40.5700837
 138.1357736  27.3935515  40.4005541 139.2478126  26.3706520  40.3060847
 134.5706645  20.6579749  42.7234098 134.2004433  20.1050789  43.4115003
 135.0665738  20.0537882  42.1709098 132.3995844  31.1177244  49.8189116
 133.1005303  31.7513727  49.9718510 131.9290959  31.4591975  49.0584755
 140.5250240  29.4595193  38.1037023 140.8010084  29.3451788  39.0130897
 139.6554738  29.0612678  38.0649196 140.1997130  23.6721851  47.6441666
 139.5468580  23.9197759  46.9894119 140.5777510  22.8585989  47.3104143
 137.1604304  33.7081544  41.7469837 137.3426698  32.8903200  42.2097589
 137.9837290  33.9249237  41.3094726 137.4946469  32.6349729  39.0084885
 138.0234236  32.1242184  38.3955047 137.7574689  32.3192260  39.8730418
 136.2484703  24.4141662  54.1307703 135.5725340  24.3135792  54.8010079
 137.0712337  24.2580876  54.5943701 127.9963562  30.6513599  46.7520219
 128.5816999  29.9057287  46.8848123 127.7988400  30.9617555  47.6356882
 130.8502217  33.6864846  41.7682661 130.1812592  34.1710974  41.2846701
 130.7115087  33.9334067  42.6826039 122.5881217  23.2219199  45.4724662
 122.6265316  22.6882790  46.2661780 122.0821510  22.6954404  44.8535639
 134.9907486  35.7208590  48.3665319 135.5425794  35.8840211  49.1314405
 135.3313679  36.3113027  47.6945344 129.9671979  18.0683739  48.9687204
 130.0313305  18.9298570  48.5564602 129.9039099  17.4557741  48.2359563
 129.4424252  20.1406872  52.6160238 130.0696290  19.7583949  53.2297763
 128.5852170  19.9221074  52.9815931 139.8418360  30.5469847  54.2213974
 140.3858264  31.1599805  53.7268929 139.2605205  31.1049426  54.7380987
 126.2189794  21.9483301  38.5478593 126.5143235  21.0393980  38.4945647
 125.3177830  21.9271041  38.2259595 138.1275873  33.6690565  45.3529001
 138.0027012  32.8680305  44.8439947 138.7854964  34.1636759  44.8642971
 129.7484041  20.0239298  44.5306142 129.0270627  20.6375265  44.3913615
 130.5377297  20.5597062  44.4522788 140.1910781  31.4699585  46.9808552
 139.2441117  31.3504936  46.9086878 140.5393555  30.5822083  47.0634813
 127.9477636  19.6297399  38.6717918 127.6190342  18.7494778  38.4893024
 128.3017007  19.5745067  39.5594307 137.1957215  31.2652301  43.1812904
 137.0482177  30.3369009  43.3620474 138.0210708  31.2872392  42.6969979
 131.0619459  19.9170369  39.0393396 131.4015532  20.4456290  38.3172004
 131.5091579  20.2550775  39.8151962 131.9317950  22.0775852  44.7515766
 131.7862531  22.3916155  45.6440047 131.4543154  22.6960753  44.1986664
 135.6440464  19.5015741  46.8449783 135.3858242  20.4232811  46.8434113
 135.1125504  19.1046175  47.5350247 140.5886653  32.6066528  39.6239868
 140.7623530  32.0412950  38.8713720 141.0815544  33.4067423  39.4419358
 126.4063613  24.6181197  47.6903427 125.8617081  25.3941005  47.8223701
 127.2842962  24.9652001  47.5322548 127.1929634  23.7451093  50.5833584
 126.4511370  23.8933728  51.1698214 126.8722379  24.0059359  49.7200333
 135.1373297  33.2867071  50.3813974 135.4460424  33.0416218  51.2536673
 135.9348779  33.4913710  49.8932844 135.1593909  35.4404981  42.6119350
 134.7198899  34.9481360  43.3052207 135.9102026  34.8977949  42.3711425
 127.6386248  31.6316522  42.6143978 128.4644268  31.3320294  42.2342622
 127.2880300  30.8624144  43.0633767 132.6067781  30.9842990  44.6841652
 131.9847791  30.3213695  44.3843880 133.2772648  31.0104122  44.0015300
 125.8394853  29.5502848  43.5732912 125.0026761  29.1225023  43.3916913
 125.8118499  29.7435292  44.5103703 132.6792309  19.4624778  54.2774158
 132.7280464  20.3386901  53.8951928 133.2214823  18.9202171  53.7045801
 132.1681288  29.5346913  38.1600112 132.3169409  30.2182378  37.5066785
 132.9747732  29.5152003  38.6749568 134.9091597  20.2156150  51.0320517
 134.0394907  20.5089716  50.7603105 135.1451078  20.7996595  51.7527780
 129.9233921  25.5612091  39.1661181 129.6779963  24.6574421  39.3641391
 130.0929836  25.5629241  38.2240659 129.1929569  21.2940449  36.6647343
 128.4998814  21.3684803  36.0087379 128.9481321  20.5300792  37.1868860
 135.6676694  32.0295044  35.6311860 135.0950661  32.6485231  35.1782332
 136.2409487  32.5794405  36.1651782 138.8873953  32.3132194  36.7620442
 139.8204627  32.2477756  36.9653318 138.7997166  33.1488461  36.3034975
 135.9362185  27.4173603  54.4328569 136.8565194  27.5952202  54.6268616
 135.9011768  26.4729648  54.2808269 125.1544350  22.6112196  43.3581844
 124.8347134  21.7577504  43.0656218 124.6077778  22.8260774  44.1139811
 128.9324257  25.3274637  47.0751350 129.1510267  26.2591745  47.0939384
 129.3450031  24.9682612  47.8606154 133.8052123  20.9007843  56.4654099
 133.7048850  21.8502200  56.3966191 133.5873665  20.5726082  55.5930169
 125.0232610  26.2315108  45.3274966 124.3296081  25.8169061  44.8144920
 125.7705601  26.2735644  44.7308384 133.6683393  24.3304982  55.2819161
 133.1850474  25.1305342  55.4883050 133.7544332  24.3412927  54.3286605
 126.9369352  26.1633362  43.2040980 126.9140040  26.2621049  42.2522864
 127.2469989  27.0098512  43.5258147 129.5956730  28.2209517  47.3187595
 130.5499984  28.1893459  47.2517526 129.3969254  27.7600140  48.1337821
 130.1856112  26.7910633  49.8858393 131.0049001  27.2854711  49.9093230
 130.4592920  25.8742601  49.8575960 127.9506959  33.7629136  44.3357793
 127.8161427  33.0029537  43.7695791 127.5339021  34.4870036  43.8686582
 131.1076085  34.6598453  44.5476235 130.9908469  35.6043886  44.4454926
 130.2868531  34.3572015  44.9362035 125.4391027  21.1248767  50.5850590
 126.0849890  20.6147720  51.0737815 125.2308178  21.8617448  51.1594015
 137.9644419  28.1929614  56.0842730 138.8335578  28.3670266  55.7229365
 137.4851170  29.0124031  55.9618459 132.1330599  35.3126715  47.7632164
 133.0357846  35.3450325  48.0798659 131.9067969  34.3827166  47.7778500
 133.8884201  34.0657702  44.4242242 132.9379832  34.0659563  44.3106615
 134.1916687  33.3190436  43.9078277 129.7788518  18.2716384  54.6825604
 130.6419979  17.9153188  54.8928928 129.2053928  17.9330278  55.3701008
 139.8377848  43.2032336  44.2530641 140.6299140  42.8623161  43.8376940
 140.0774499  43.3127311  45.1732794 139.4064822  39.5726117  44.1945206
 139.5357204  39.8260596  45.1084618 138.7262274  40.1653825  43.8749861
 138.3534248  37.0448130  44.2396248 137.5633302  37.3005659  43.7636359
 138.8445495  37.8596468  44.3448289 140.3048993  37.4092710  41.1979725
 139.5080157  37.5211404  41.7163221 140.0774586  37.7479362  40.3320616
 136.6371951  37.2978621  46.6711239 136.8879989  38.1825631  46.9368815
 137.1731499  37.1183222  45.8986331 139.3032076  43.1180958  39.5869145
 139.8156597  43.9124209  39.7374710 139.9554789  42.4207249  39.5202747
 140.3979317  38.2811347  51.5454062 140.2832832  37.3796604  51.8461160
 139.5423835  38.5275043  51.1938878 137.2680993  41.4469613  40.3628716
 138.1056215  41.8566621  40.1462423 137.4459261  40.5069055  40.3328910
 137.2907164  38.7860328  41.0339449 137.0931564  38.1929689  40.3090516
 136.7353828  38.4812538  41.7515388 139.7853390  38.3124362  38.7180401
 138.8550978  38.2508817  38.9350363 139.8810862  37.7900315  37.9217043
 139.7038939  34.8379175  41.3058643 139.9645756  35.7524508  41.1967803
 140.5256111  34.3703617  41.4555256 133.8506995  40.4710523  43.2007195
 134.5378035  40.1572253  42.6128210 133.6955124  41.3751888  42.9274446
 138.6541717  35.3600720  47.6292218 138.5699906  34.7526389  46.8942628
 137.8324424  35.8509738  47.6301715 138.8357316  45.9805516  46.7520219
 139.4210753  45.2349204  46.8848123 138.6382155  46.2909473  47.6356882
 133.4274971  38.5511117  45.4724662 133.4659071  38.0174707  46.2661780
 132.9215264  38.0246322  44.8535639 140.8065733  33.3975657  48.9687204
 140.8707060  34.2590488  48.5564602 140.7432854  32.7849659  48.2359563
 140.2818006  35.4698790  52.6160238 140.9090045  35.0875867  53.2297763
 139.4245925  35.2512992  52.9815931 137.0583549  37.2775219  38.5478593
 137.3536990  36.3685897  38.4945647 136.1571585  37.2562958  38.2259595
 138.7871390  34.9589316  38.6717918 138.4584096  34.0786695  38.4893024
 139.1410761  34.9036985  39.5594307 137.2457367  39.9473114  47.6903427
 136.7010835  40.7232922  47.8223701 138.1236717  40.2943919  47.5322548
 138.0323389  39.0743011  50.5833584 137.2905125  39.2225646  51.1698214
 137.7116133  39.3351276  49.7200333 138.4780003  46.9608439  42.6143978
 139.3038023  46.6612211  42.2342622 138.1274055  46.1916062  43.0633767
 136.6788608  44.8794766  43.5732912 135.8420516  44.4516940  43.3916913
 136.6512253  45.0727209  44.5103703 140.7627676  40.8904009  39.1661181
 140.5173718  39.9866339  39.3641391 140.9323590  40.8921159  38.2240659
 140.0323323  36.6232366  36.6647343 139.3392568  36.6976721  36.0087379
 139.7875075  35.8592710  37.1868860 135.9938104  37.9404114  43.3581844
 135.6740889  37.0869422  43.0656218 135.4471532  38.1552692  44.1139811
 139.7718012  40.6566555  47.0751350 139.9904022  41.5883663  47.0939384
 140.1843786  40.2974529  47.8606154 135.8626364  41.5607025  45.3274966
 135.1689836  41.1460978  44.8144920 136.6099355  41.6027562  44.7308384
 137.7763107  41.4925279  43.2040980 137.7533795  41.5912967  42.2522864
 138.0863743  42.3390430  43.5258147 138.7900713  49.0921054  44.3357793
 138.6555181  48.3321455  43.7695791 138.3732776  49.8161954  43.8686582
 136.2784781  36.4540684  50.5850590 136.9243645  35.9439638  51.0737815
 136.0701932  37.1909366  51.1594015  17.7987912  68.3689995 129.6543736
  17.1475892  68.9544075 129.2677750  18.5932275  68.8996190 129.7138773
  14.0609817  61.6171798 127.6849320  14.3135338  61.0953319 126.9232783
  13.1234377  61.4537944 127.7876004  19.2763178  66.0580427 130.1912720
  18.6409011  66.1315053 130.9033625  18.9460584  66.6474026 129.5131799
  13.5039247  73.2361250 133.2218531  13.4263277  74.1869075 133.3007011
  12.9000891  72.8907123 133.8793457  21.4417421  60.9379082 130.4008734
  22.3535277  61.1706468 130.2256431  20.9327068  61.5216126 129.8383812
  23.9276235  66.8559338 135.1466679  23.2427273  67.2358239 134.5963712
  24.0120085  67.4654665 135.8798627  15.7777616  68.5943403 131.9424071
  15.6423291  69.4394939 132.3708918  16.3187428  68.7962681 131.1790004
  19.0920362  62.1082576 128.9795399  18.5766986  62.8787181 129.2183787
  18.8197671  61.4347712 129.6028461  24.0654636  64.8614931 130.9148573
  23.2884079  64.5226090 130.4703735  24.7446117  64.8667554 130.2403538
  15.4705697  63.9580102 125.4583107  14.5632759  63.7269355 125.6574256
  15.9676729  63.1617721 125.6457089  18.3773776  72.6677609 128.3779793
  17.7035475  72.9709306 128.9864751  18.7639598  73.4706689 128.0285251
  16.6493931  64.0592697 129.9807097  15.7405150  63.7751729 130.0779567
  16.6789015  64.4791775 129.1210404  21.8813198  67.6699286 133.7498265
  21.4275525  66.8290196 133.8063455  21.2507165  68.3060685 134.0873045
  20.3246138  69.5075783 134.6848083  20.6169112  70.0680840 133.9660449
  20.8344758  69.8004344 135.4401242  16.3470019  65.6001440 127.3195176
  15.9089449  64.8837299 126.8600813  17.0880460  65.8277555 126.7580267
  24.4643133  63.8758637 133.3771495  24.3261032  64.0660233 132.4492684
  24.1079352  64.6378020 133.8339546  16.5764991  72.8357281 130.5926873
  16.7516747  72.3645325 131.4072495  15.8897780  73.4623048 130.8208133
  20.4681246  64.4585822 126.9127234  19.8510417  63.7332650 126.8160286
  19.9997735  65.2195182 126.5694308  15.4443718  71.0297537 133.2811058
  14.6611240  71.5719217 133.3749283  16.1436463  71.5471516 133.6805300
  21.2918932  67.7824994 131.0319873  21.5678775  67.6681588 131.9413747
  20.4223430  67.3842479 130.9932046  17.9272996  72.0311345 134.6752687
  18.1095390  71.2133001 135.1380439  18.7505982  72.2479037 134.2377577
  18.2615161  70.9579530 131.9367735  18.7902927  70.4471984 131.3237898
  18.5243381  70.6422060 132.8013268  21.3555345  70.9296328 132.5522718
  21.5292222  70.3642751 131.7996571  21.8484236  71.7297223 132.3702208
  27.2094736  63.6932751 134.1713018  27.6525882  62.9440076 133.7732141
  26.3321246  63.6842887 133.7886750  22.3430517  70.2463092 129.6519617
  23.0381422  70.8669785 129.8706931  22.6853667  69.3958444 129.9271995
  24.2421940  67.6962798 131.1806947  24.7673264  68.0350071 130.4556267
  24.1544293  66.7609813 130.9970082  12.9349980  67.8576714 131.0882963
  13.0838100  68.5412178 130.4349636  13.7416423  67.8381804 131.6032419
  16.4345386  70.3524844 128.5594710  15.8619353  70.9715031 128.1065182
  17.0078179  70.9024206 129.0934632  19.6542645  70.6361994 129.6903293
  20.5873318  70.5707556 129.8936168  19.5665858  71.4718261 129.2317825
  22.2830662  69.9527865 126.6507240  22.2044294  69.6187728 127.5442998
  23.1040329  70.4449633 126.6498712  16.8192184  61.6885657 125.9010763
  17.7651289  61.5591865 125.9699181  16.4406429  60.9500319 126.3780191
  15.0035101  59.6135633 125.8365648  14.0966557  59.3168746 125.9128362
  15.2811082  59.3165451 124.9699934  19.8534614  67.2695860 126.2717218
  20.5570464  67.4745863 126.8874874  19.1297263  67.8372622 126.5366302
  21.7621311  67.7078389 128.3215679  22.5966915  67.2759588 128.1393153
  21.6005654  67.5360403 129.2492573  21.4167203  64.2110503 129.6872018
  21.3616007  64.0454774 128.7460462  20.7913259  64.9186535 129.8434208
  30.3905586  78.2248040 138.4170855  31.0283996  78.1054788 137.7134195
  30.2726429  79.1728884 138.4758807  27.1995293  78.1775468 138.3532380
  26.8613804  78.0616533 137.4652915  28.0685061  77.7766634 138.3333386
  23.0582108  80.0310945 134.3429271  22.4946973  79.9400882 133.5745559
  22.9434503  79.2110849 134.8231763  20.6046540  81.5262136 137.1813491
  21.3967832  81.1852961 136.7659791  20.8443190  81.6357112 138.1015645
  28.6381667  83.6981913 129.6543736  27.9869647  84.2835993 129.2677750
  29.4326030  84.2288107 129.7138773  22.5637294  80.7871050 130.0530870
  23.3368170  80.2400037 129.9143746  22.9162693  81.6515299 130.2645332
  25.3278544  79.4924281 139.8499129  25.9242116  79.2680303 139.1356092
  25.3853515  78.7509026 140.4524577  24.9003572  76.9463716 127.6849320
  25.1529093  76.4245237 126.9232783  23.9628131  76.7829861 127.7876004
  29.9446855  75.9499494 135.4924063  30.7309944  75.5318917 135.1414480
  30.2085559  76.8545586 135.6605712  30.1156932  81.3872345 130.1912720
  29.4802765  81.4606971 130.9033625  29.7854339  81.9765943 129.5131799
  35.3455282  75.8874727 136.3957042  36.0780454  75.3173944 136.6294871
  34.5894638  75.4996328 136.8363547  24.6199861  78.8491822 129.8873695
  24.5036119  78.1736725 130.5554779  24.7302121  78.3624196 129.0705848
  26.9631402  78.3101969 133.5920384  26.5989609  77.7832590 134.3033306
  27.8198518  77.9200438 133.4186870  26.6036889  73.3391869 128.5881733
  26.7711291  74.2072105 128.9552204  26.4134058  73.5019150 127.6643022
  29.3612222  81.8008847 140.2547563  29.0612945  82.7033886 140.1463370
  29.0163281  81.5341031 141.1068716  22.8124703  78.2522644 136.2884268
  21.8875200  78.1198858 136.4961959  23.0609116  79.0316864 136.7854210
  32.7609366  74.3191388 137.9345000  31.8526243  74.2506796 137.6403761
  32.7096961  74.7963333 138.7626826  26.5826109  75.7949526 129.5728400
  26.4625735  76.2406577 130.4113880  25.8878698  76.1434844 129.0141938
  20.1733514  77.8955918 137.1228057  20.3025895  78.1490397 138.0367468
  19.4930966  78.4883626 136.8032712  24.3433002  88.5653168 133.2218531
  24.2657031  89.5160993 133.3007011  23.7394645  88.2199040 133.8793457
  34.6271012  72.5207826 139.7122874  33.9845392  72.8140359 139.0662669
  34.1225940  72.4060746 140.5176071  32.2811176  76.2670999 130.4008734
  33.1929032  76.4998386 130.2256431  31.7720823  76.8508043 129.8383812
  30.5651943  80.6895627 144.0370026  30.9735299  80.2478038 143.2924659
  29.8429205  80.1148255 144.2904219  30.8880758  81.2496818 137.7922315
  30.2589620  81.4142532 137.0898383  30.5006420  81.6638427 138.5633279
  34.7669990  82.1851256 135.1466679  34.0821028  82.5650157 134.5963712
  34.8513839  82.7946582 135.8798627  32.0220921  79.8311215 141.7462022
  32.2337817  80.4742974 141.0696403  31.9750670  78.9973531 141.2783952
  29.6247150  72.4429035 138.6498595  28.7631629  72.7410289 138.9415332
  29.6509585  72.6599434 137.7179627  26.4408720  80.9871226 135.0572400
  26.9047065  81.2658929 134.2677023  26.1765518  80.0854670 134.8745491
  23.3332801  80.5342707 137.9952163  23.9034158  80.9629976 137.3569648
  23.9240913  80.2525292 138.6936349  25.3777606  77.1094378 131.8661965
  26.0801649  77.5615422 132.3335892  25.0458234  76.4678197 132.4941858
  19.1202940  75.3677931 137.1679099  18.3301994  75.6235459 136.6919210
  19.6114187  76.1826269 137.2731139  33.1366749  82.7083170 139.9184380
  33.9584193  82.3063357 139.6367061  33.1329152  82.6051404 140.8700496
  21.0717685  75.7322510 134.1262576  20.2748848  75.8441204 134.6446071
  20.8443277  76.0709162 133.2603466  41.2272742  79.0521918 136.2669351
  40.4736451  78.4829317 136.1113356  41.3620284  79.0184583 137.2139986
  26.6171370  83.9235321 131.9424071  26.4817045  84.7686857 132.3708918
  27.1581183  84.1254598 131.1790004  20.0700768  81.4410759 132.5151996
  20.5825288  82.2354009 132.6657560  20.7223481  80.7437049 132.4485597
  21.8795653  84.5576515 134.5974749  22.0562281  85.4794480 134.4095733
  22.6752486  84.2434934 135.0269129  30.3421085  84.8261687 144.1005814
  30.3239560  85.6470568 143.6086083  31.2641005  84.7015762 144.3255955
  18.0349685  79.7699413 133.2911566  18.8724907  80.1796421 133.0745274
  18.2127952  78.8298855 133.2611760  29.9314117  77.4374494 128.9795399
  29.4160740  78.2079098 129.2183787  29.6591425  76.7639630 129.6028461
  27.5161228  72.2824195 134.0380638  26.6602824  71.8931045 133.8586276
  27.9288180  72.3616155 133.1780423  29.0460374  69.8170538 138.4372197
  28.5425170  69.7800673 137.6240003  29.3390981  70.7263281 138.4968854
  34.9048391  80.1906848 130.9148573  34.1277834  79.8518008 130.4703735
  35.5839872  80.1959472 130.2403538  29.7200420  75.3101586 130.8055180
  29.4150555  75.6247735 131.6565324  30.6730862  75.3883006 130.8482513
  28.1646852  81.4691809 132.4548134  27.6368213  80.7344569 132.1421372
  27.6634354  82.2466486 132.2088103  33.1439698  79.6640830 137.5715181
  32.4863372  80.3540091 137.6595309  33.9480097  80.0537262 137.9149167
  22.8965579  72.1311475 134.8154746  23.4709331  71.9086657 134.0827939
  23.4836562  72.2000170 135.5683347  31.9545157  78.0185202 135.6219122
  32.4677038  78.6515194 136.1240832  32.6046380  77.4186398 135.2562482
  23.2235166  74.1615937 128.8350631  22.3872479  74.4990623 129.1559906
  23.0839936  74.0264916 127.8977768  25.1988247  69.0052724 133.5429815
  24.5452659  68.6901742 132.9186430  25.1568721  68.3828465 134.2689638
  26.3099452  79.2872019 125.4583107  25.4026514  79.0561273 125.6574256
  26.8070484  78.4909639 125.6457089  29.2167531  87.9969527 128.3779793
  28.5429230  88.3001223 128.9864751  29.6033353  88.7998607 128.0285251
  28.4325987  75.4934658 137.8677463  27.5148549  75.7149605 137.7099151
  28.8486131  75.5680968 137.0089170  29.2161035  76.8926074 132.9980143
  29.9632854  77.4047471 132.6887265  29.4852625  76.5710126 133.8584537
  27.4887685  79.3884614 129.9807097  26.5798905  79.1043647 130.0779567
  27.5182769  79.8083693 129.1210404  32.7206953  82.9991204 133.7498265
  32.2669280  82.1582114 133.8063455  32.0900920  83.6352602 134.0873045
  31.6639872  73.9283190 134.9798932  30.9262629  73.4160576 135.3109175
  31.9166646  73.4883571 134.1682209  31.1639892  84.8367701 134.6848083
  31.4562866  85.3972758 133.9660449  31.6738513  85.1296262 135.4401242
  31.7651500  66.7059442 135.5740702  32.0710376  65.8456805 135.2866617
  32.4904105  67.2977062 135.3739696  18.0575856  77.1090128 133.9622300
  17.8600256  76.5159489 133.2373366  17.5022520  76.8042339 134.6798238
  26.0372579  77.0013235 136.0816893  26.0921189  76.0487071 136.0059369
  25.2263781  77.1572674 136.5658191  27.1863773  80.9293358 127.3195176
  26.7483203  80.2129217 126.8600813  27.9274214  81.1569473 126.7580267
  23.9764939  75.6190295 133.8407272  23.1632805  75.9184465 134.2472464
  24.4723934  75.2245983 134.5581754  26.1273517  85.6148052 135.7741536
  26.0849696  85.8408898 134.8450068  27.0436216  85.3811426 135.9227337
  35.3036888  79.2050555 133.3771495  35.1654787  79.3952151 132.4492684
  34.9473107  79.9669938 133.8339546  35.3306268  81.2727082 138.3882766
  35.7642774  81.1802371 139.2365820  36.0437848  81.2484583 137.7502782
  24.2439318  82.4911081 135.5703499  25.0379917  81.9961401 135.3686074
  23.5331010  81.9628944 135.2071205  29.0634162  84.8729176 139.9215867
  29.1171185  85.4420112 140.6893583  28.1948944  85.0431061 139.5569904
  20.5522081  76.6354162 131.6463252  19.6219670  76.5738618 131.8633214
  20.6479553  76.1130115 130.8499893  20.4707631  73.1608975 134.2341493
  20.7314448  74.0754308 134.1250654  21.2924803  72.6933418 134.3838106
  36.1921817  81.3150783 140.9215651  36.3857707  82.2196593 141.1674926
  36.0922435  80.8558202 141.7554237  31.2536926  81.4657525 146.4956532
  31.1022432  81.2368077 145.5786616  31.2441605  82.4228127 146.5087877
  28.0222262  79.0389438 141.4802799  28.9514322  79.1900598 141.3071766
  27.6013292  79.1273459 140.6251445  26.8210594  83.0640103 139.2501336
  26.6821680  82.6958887 140.1227274  26.0325190  83.5787742 139.0785294
  27.4158746  88.1649199 130.5926873  27.5910502  87.6937242 131.4072495
  26.7291534  88.7914965 130.8208133  28.3715809  82.4421705 136.6390174
  28.0365642  82.4022475 137.5347824  27.8719755  81.7766421 136.1660584
  32.9629132  84.4976648 144.5733014  32.9041679  83.8135868 143.9063597
  33.3648651  85.2395638 144.1213640  23.0973547  74.0063164 126.0348538
  22.2203013  73.8851965 125.6710785  23.5731300  73.2149242 125.7827427
  32.9646540  82.4616232 142.8046994  32.0773318  82.1242154 142.9273392
  33.5345091  81.7299263 143.0415759  26.2837473  86.3589454 133.2811058
  25.5004995  86.9011134 133.3749283  26.9830218  86.8763434 133.6805300
  29.5934123  72.1684084 135.9245264  30.0902822  71.4154046 135.6046334
  28.8221104  72.2048400 135.3588473  37.4463880  77.8724449 137.5663555
  37.4353757  78.7549165 137.1957488  36.5781260  77.5196000 137.3718092
  28.9546377  87.0204518 141.9266395  29.6674349  87.6551983 141.8542297
  28.4636405  87.1168384 141.1106397  30.6763904  80.9255771 133.4983687
  29.7420182  81.0457233 133.3288391  30.8540572  80.0228238 133.2343697
  26.1769092  74.3101467 135.6516948  25.8066879  73.7572507 136.3397854
  26.6728184  73.7059600 135.0991948  34.0636455  76.7673090 134.0333721
  34.5296907  77.6001082 133.9594024  34.5143955  76.3018072 134.7378980
  32.1312686  83.1116912 131.0319873  32.4072530  82.9973506 131.9413747
  31.2617185  82.7134396 130.9932046  32.0353118  69.1353677 138.0724623
  31.1216197  69.3657904 138.2406830  32.4646219  69.2192121 138.9238655
  31.8059576  77.3243569 140.5724517  31.1531026  77.5719477 139.9176969
  32.1839956  76.5107707 140.2386994  28.7666750  87.3603262 134.6752687
  28.9489145  86.5424918 135.1380439  29.5899736  87.5770955 134.2377577
  29.1008916  86.2871448 131.9367735  29.6296682  85.7763902 131.3237898
  29.3637135  85.9713978 132.8013268  22.4564663  87.3386564 134.6965511
  21.7875039  87.8232692 134.2129551  22.3177533  87.5855785 135.6108890
  17.8252241  75.6005019 131.4761444  18.1205682  74.6915698 131.4228497
  16.9240276  75.5792759 131.1542446  29.7338319  87.3212283 138.2811852
  29.6089459  86.5202023 137.7722797  30.3917410  87.8158477 137.7925822
  21.3546488  73.6761016 137.4588992  20.6333073  74.2896983 137.3196465
  22.1439743  74.2118781 137.3805638  31.7973228  85.1221303 139.9091402
  30.8503563  85.0026655 139.8369729  32.1456001  84.2343801 139.9917663
  19.5540082  73.2819117 131.6000769  19.2252788  72.4016496 131.4175875
  19.9079453  73.2266786 132.4877158  28.8019661  84.9174020 136.1095754
  28.6544623  83.9890727 136.2903324  29.6273155  84.9394110 135.6252829
  22.6681905  73.5692087 131.9676246  23.0077978  74.0978008 131.2454855
  23.1154026  73.9072493 132.7434813  32.4053783  85.7402578 137.1960627
  33.3300330  85.5345440 137.0585078  32.2369086  85.4918979 138.1049968
  24.6550052  72.0666708 130.1669539  25.3758415  72.4447961 129.6633256
  24.0315357  72.7855585 130.2704517  28.7981175  72.7711857 131.1027871
  29.0144790  73.6536495 130.8016700  28.3175242  72.3798071 130.3733513
  23.5380397  75.7297570 137.6798616  23.3924977  76.0437874 138.5722898
  23.0605600  76.3482471 137.1269515  25.3976780  72.7200118 137.7279506
  25.3838348  71.8241212 137.3911804  26.1149208  72.7270782 138.3617792
  32.1949099  86.2588246 132.5522718  32.3685977  85.6934668 131.7996571
  32.6877990  87.0589141 132.3702208  24.8013676  71.6014499 132.9967076
  24.9229587  70.6731145 133.1957963  24.5115718  71.6153185 132.0845391
  27.6704866  69.2869409 136.1333796  27.6926563  69.3508742 135.1785775
  28.0872925  68.4473918 136.3274302  38.0488490  79.0224669 134.1713018
  38.4919636  78.2731994 133.7732141  37.1715001  79.0134805 133.7886750
  33.1824272  85.5755010 129.6519617  33.8775176  86.1961703 129.8706931
  33.5247422  84.7250361 129.9271995  35.0815695  83.0254716 131.1806947
  35.6067019  83.3641988 130.4556267  34.9938047  82.0901731 130.9970082
  26.7656355  89.0926699 135.5402201  26.3261346  88.6003078 136.2335057
  27.5164472  88.5499667 135.2994276  24.2130228  84.6364708 137.6124502
  23.5910237  83.9735413 137.3126730  24.8835094  84.6625840 136.9298150
  34.7709601  83.6587619 146.4858145  33.9805144  83.6411758 145.9462645
  34.5342955  84.1975913 147.2407182  34.8907476  80.5080086 143.7990874
  34.9405481  80.3430093 144.7406397  34.7821399  79.6407345 143.4088755
  23.7743734  83.1868631 131.0882963  23.9231855  83.8704096 130.4349636
  24.5810178  83.1673721 131.6032419  36.3925673  82.9277027 144.0432895
  36.1010481  83.2907008 144.8796356  35.7797804  82.2144035 143.8646228
  37.5921355  80.4929907 136.5635466  38.4268246  80.9319711 136.7273026
  37.7280484  80.0168560 135.7443711  34.6412861  78.0509642 142.5112953
  35.1166982  78.2437288 141.7031805  33.7178426  78.1068828 142.2656337
  21.5296367  79.2133809 132.0944032  21.2842409  78.3096139 132.2924242
  21.6992282  79.2150959 131.1523510  20.7992015  74.9462167 129.5930193
  20.1061260  75.0206522 128.9370229  20.5543767  74.1822510 130.1151710
  27.2739140  85.6816762 128.5594710  26.7013107  86.3006949 128.1065182
  27.8471934  86.2316124 129.0934632  33.3414530  74.9275402 140.7441259
  34.2931953  75.0273500 140.7653483  33.1717980  74.1353670 141.2539343
  31.3628909  72.0130985 140.9300660  30.7678841  72.2935998 140.2347149
  31.0778606  72.5024886 141.7017401  30.4936400  85.9653912 129.6903293
  31.4267073  85.8999474 129.8936168  30.4059613  86.8010179 129.2317825
  33.1224416  85.2819782 126.6507240  33.0438048  84.9479646 127.5442998
  33.9434083  85.7741550 126.6498712  35.8202608  78.1481522 139.8583559
  35.7878928  77.2097522 140.0443243  36.4303231  78.2265558 139.1249384
  27.6585939  77.0177575 125.9010763  28.6045043  76.8883783 125.9699181
  27.2800183  76.2792236 126.3780191  35.9697096  74.9392565 139.9041842
  35.4536145  74.1551022 139.7171771  36.8537045  74.6111282 140.0688361
  33.6307823  68.6833581 135.8637655  33.4332644  68.3748669 136.7480987
  34.2407529  69.4095220 135.9935584  41.6379157  79.2097528 138.9989596
  42.3682546  78.9482817 139.5597299  41.0286103  78.4726250 139.0391664
  39.7194455  77.3505391 139.5964047  38.9927618  77.2161356 138.9880538
  39.3041741  77.6582220 140.4020765  25.8428856  74.9427551 125.8365648
  24.9360311  74.6460664 125.9128362  26.1204837  74.6457369 124.9699934
  16.7606796  76.2633914 136.2864694  16.4409580  75.4099223 135.9939068
  16.2140224  76.4782493 137.0422662  27.4590921  69.4864441 131.9909889
  26.6491650  69.1411526 132.3665135  28.1475338  69.1771984 132.5797501
  29.3881470  68.5642488 133.6134186  29.9412508  68.9837941 134.2724209
  29.6251556  67.6378236 133.6557142  24.6127640  71.8014486 125.9777627
  25.4746804  72.1269385 126.2373445  24.7977984  71.0145982 125.4650693
  32.7660277  70.6743013 133.1212850  32.1858946  71.3327817 132.7390903
  32.4996209  69.8520357 132.7100268  31.2163843  70.0748070 135.3234171
  31.7163621  70.1864605 134.5148489  31.8599451  69.7709123 135.9634979
  18.5431799  79.8155080 136.1323831  18.5202487  79.9142767 135.1805714
  18.8532435  80.6620230 136.4540997  31.5485155  72.8343103 132.1769198
  30.6611010  73.1192754 131.9589393  31.9639144  72.6736866 131.3296475
  34.8999691  72.8589624 135.8923538  35.6760081  73.3486076 136.1648155
  34.1747825  73.2847678 136.3495407  37.3372250  73.5717243 136.9497478
  37.9316740  73.3312979 136.2390787  37.4098833  72.8524374 137.5771015
  30.6928368  82.5987778 126.2717218  31.3964218  82.8037780 126.8874874
  29.9691017  83.1664540 126.5366302  31.5226179  78.3497639 132.3919489
  31.4661380  78.8066190 131.5527121  32.0754521  77.5888324 132.2142331
  35.3330984  74.1387371 133.2169608  35.0767919  73.7384007 134.0477816
  34.7083852  74.8531165 133.0919747  39.6443322  76.8783444 135.7240900
  39.0842880  76.9476633 136.4972462  39.0386826  76.7024429 135.0040396
  32.6015066  83.0370307 128.3215679  33.4360670  82.6051505 128.1393153
  32.4399409  82.8652321 129.2492573  32.2560958  79.5402420 129.6872018
  32.2009762  79.3746692 128.7460462  31.6307013  80.2478453 129.8434208
  25.5657083  69.0410529 129.2657336  25.5535753  69.9852369 129.4225607
  26.4580505  68.8580675 128.9716797  25.4946647  87.7179420 137.3525093
  24.5442278  87.7181281 137.2389465  25.7979133  86.9712154 136.8361127
  29.3809203  65.6353306 133.5203273  28.6141599  65.0811793 133.6659955
  29.7919908  65.7075175 134.3817425  41.2299341  93.5539958 138.4170855
  41.8677751  93.4346705 137.7134195  41.1120184  94.5020802 138.4758807
  38.0389047  93.5067386 138.3532380  37.7007559  93.3908451 137.4652915
  38.9078815  93.1058551 138.3333386  33.8975863  95.3602863 134.3429271
  33.3340728  95.2692799 133.5745559  33.7828258  94.5402767 134.8231763
  38.5208830  94.6602238 144.3118585  38.5097471  94.2655036 143.4399089
  38.6829469  93.9268310 144.9052357  31.4440295  96.8554054 137.1813491
  32.2361587  96.5144879 136.7659791  31.6836945  96.9649029 138.1015645
  39.4775421  99.0273830 129.6543736  38.8263401  99.6127911 129.2677750
  40.2719784  99.5580025 129.7138773  33.4031049  96.1162967 130.0530870
  34.1761925  95.5691954 129.9143746  33.7556447  96.9807217 130.2645332
  36.1672298  94.8216198 139.8499129  36.7635870  94.5972221 139.1356092
  36.2247270  94.0800944 140.4524577  35.7397326  92.2755634 127.6849320
  35.9922847  91.7537155 126.9232783  34.8021886  92.1121779 127.7876004
  40.7840609  91.2791412 135.4924063  41.5703698  90.8610835 135.1414480
  41.0479314  92.1837504 135.6605712  40.9550687  96.7164262 130.1912720
  40.3196520  96.7898889 130.9033625  40.6248093  97.3057861 129.5131799
  46.1849036  91.2166645 136.3957042  46.9174208  90.6465862 136.6294871
  45.4288392  90.8288246 136.8363547  35.4593615  94.1783739 129.8873695
  35.3429873  93.5028643 130.5554779  35.5695875  93.6916113 129.0705848
  37.8025156  93.6393887 133.5920384  37.4383363  93.1124508 134.3033306
  38.6592272  93.2492356 133.4186870  43.7074457  84.9288219 140.8551650
  43.3757781  85.7983630 140.6312865  43.1120070  84.6124503 141.5345681
  37.4430643  88.6683786 128.5881733  37.6105045  89.5364023 128.9552204
  37.2527812  88.8311068 127.6643022  40.2005976  97.1300765 140.2547563
  39.9006699  98.0325804 140.1463370  39.8557036  96.8632948 141.1068716
  33.6518458  93.5814562 136.2884268  32.7268954  93.4490776 136.4961959
  33.9002871  94.3608781 136.7854210  43.6003120  89.6483305 137.9345000
  42.6919997  89.5798714 137.6403761  43.5490716  90.1255250 138.7626826
  37.4219864  91.1241444 129.5728400  37.3019489  91.5698495 130.4113880
  36.7272452  91.4726761 129.0141938  31.0127269  93.2247836 137.1228057
  31.1419650  93.4782314 138.0367468  30.3324720  93.8175544 136.8032712
  35.1826756 103.8945086 133.2218531  35.1050786 104.8452911 133.3007011
  34.5788400 103.5490958 133.8793457  45.4664766  87.8499744 139.7122874
  44.8239147  88.1432277 139.0662669  44.9619695  87.7352664 140.5176071
  43.1204930  91.5962917 130.4008734  44.0322786  91.8290304 130.2256431
  42.6114577  92.1799961 129.8383812  41.4045698  96.0187545 144.0370026
  41.8129054  95.5769955 143.2924659  40.6822959  95.4440172 144.2904219
  37.7576768  90.9560152 141.4103583  38.6037963  91.3799565 141.5538232
  37.6975405  90.2993776 142.1042146  41.7274512  96.5788735 137.7922315
  41.0983375  96.7434450 137.0898383  41.3400174  96.9930345 138.5633279
  45.6063744  97.5143173 135.1466679  44.9214782  97.8942075 134.5963712
  45.6907594  98.1238500 135.8798627  40.9076213  88.6164520 143.0684757
  40.6637145  89.3706580 142.5319032  41.1836144  88.9949868 143.9032004
  42.8614676  95.1603132 141.7462022  43.0731571  95.8034892 141.0696403
  42.8144424  94.3265449 141.2783952  40.4640905  87.7720953 138.6498595
  39.6025384  88.0702206 138.9415332  40.4903340  87.9891352 137.7179627
  37.2802474  96.3163143 135.0572400  37.7440820  96.5950846 134.2677023
  37.0159272  95.4146588 134.8745491  34.1726555  95.8634625 137.9952163
  34.7427912  96.2921893 137.3569648  34.7634667  95.5817210 138.6936349
  36.2171360  92.4386296 131.8661965  36.9195404  92.8907340 132.3335892
  35.8851989  91.7970115 132.4941858  29.9596694  90.6969849 137.1679099
  29.1695748  90.9527377 136.6919210  30.4507942  91.5118186 137.2731139
  43.9760504  98.0375088 139.9184380  44.7977948  97.6355275 139.6367061
  43.9722907  97.9343322 140.8700496  31.9111440  91.0614428 134.1262576
  31.1142603  91.1733122 134.6446071  31.6837032  91.4001080 133.2603466
  52.0666497  94.3813836 136.2669351  51.3130205  93.8121234 136.1113356
  52.2014038  94.3476501 137.2139986  37.4565125  99.2527238 131.9424071
  37.3210800 100.0978774 132.3708918  37.9974937  99.4546516 131.1790004
  30.9094522  96.7702677 132.5151996  31.4219043  97.5645927 132.6657560
  31.5617235  96.0728967 132.4485597  32.7189407  99.8868433 134.5974749
  32.8956035 100.8086397 134.4095733  33.5146241  99.5726852 135.0269129
  36.8600426  86.7476697 146.1958682  37.6010139  87.3483851 146.1163145
  37.0918348  86.0054335 145.6376725  41.1814839 100.1553605 144.1005814
  41.1633315 100.9762486 143.6086083  42.1034759 100.0307680 144.3255955
  40.8057589  82.7757800 140.4722964  40.4621858  83.6659442 140.3962075
  41.1736551  82.5859458 139.6092549  28.8743439  95.0991331 133.2911566
  29.7118661  95.5088339 133.0745274  29.0521707  94.1590773 133.2611760
  40.7707871  92.7666411 128.9795399  40.2554495  93.5371016 129.2183787
  40.4985180  92.0931548 129.6028461  38.3554982  87.6116112 134.0380638
  37.4996579  87.2222963 133.8586276  38.7681934  87.6908073 133.1780423
  39.8854129  85.1462456 138.4372197  39.3818925  85.1092591 137.6240003
  40.1784736  86.0555198 138.4968854  36.1297015  85.2301185 137.4438379
  36.9950012  85.0343994 137.0844268  36.1974524  85.0011537 138.3707736
  45.7442145  95.5198766 130.9148573  44.9671588  95.1809926 130.4703735
  46.4233626  95.5251389 130.2403538  40.5594174  90.6393504 130.8055180
  40.2544310  90.9539653 131.6565324  41.5124617  90.7174923 130.8482513
  39.0040606  96.7983727 132.4548134  38.4761968  96.0636486 132.1421372
  38.5028109  97.5758403 132.2088103  43.9833452  94.9932747 137.5715181
  43.3257127  95.6832009 137.6595309  44.7873851  95.3829179 137.9149167
  33.7359334  87.4603393 134.8154746  34.3103086  87.2378575 134.0827939
  34.3230316  87.5292088 135.5683347  42.7938911  93.3477120 135.6219122
  43.3070793  93.9807112 136.1240832  43.4440135  92.7478316 135.2562482
  34.0628921  89.4907854 128.8350631  33.2266233  89.8282541 129.1559906
  33.9233691  89.3556834 127.8977768  36.0382002  84.3344642 133.5429815
  35.3846414  84.0193659 132.9186430  35.9962476  83.7120383 134.2689638
  37.1493206  94.6163937 125.4583107  36.2420268  94.3853191 125.6574256
  37.6464238  93.8201556 125.6457089  40.0561285 103.3261444 128.3779793
  39.3822984 103.6293141 128.9864751  40.4427107 104.1290525 128.0285251
  39.2719742  90.8226576 137.8677463  38.3542303  91.0441523 137.7099151
  39.6879886  90.8972886 137.0089170  40.0554790  92.2217991 132.9980143
  40.8026609  92.7339388 132.6887265  40.3246379  91.9002044 133.8584537
  38.3281440  94.7176532 129.9807097  37.4192659  94.4335565 130.0779567
  38.3576524  95.1375611 129.1210404  43.5600707  98.3283122 133.7498265
  43.1063034  97.4874031 133.8063455  42.9294674  98.9644520 134.0873045
  42.5033627  89.2575108 134.9798932  41.7656384  88.7452494 135.3109175
  42.7560400  88.8175489 134.1682209  42.0033647 100.1659618 134.6848083
  42.2956621 100.7264675 133.9660449  42.5132267 100.4588179 135.4401242
  42.6045254  82.0351360 135.5740702  42.9104131  81.1748723 135.2866617
  43.3297859  82.6268980 135.3739696  28.8969610  92.4382046 133.9622300
  28.6994010  91.8451407 133.2373366  28.3416274  92.1334256 134.6798238
  36.8766334  92.3305153 136.0816893  36.9314944  91.3778989 136.0059369
  36.0657536  92.4864592 136.5658191  38.0257528  96.2585276 127.3195176
  37.5876958  95.5421135 126.8600813  38.7667969  96.4861390 126.7580267
  34.8158694  90.9482212 133.8407272  34.0026559  91.2476383 134.2472464
  35.3117688  90.5537901 134.5581754  36.9667272 100.9439969 135.7741536
  36.9243451 101.1700816 134.8450068  37.8829971 100.7103344 135.9227337
  40.4132906  91.4124037 142.6722166  40.7682293  91.6395510 143.5316631
  41.0605037  91.7442414 142.0499421  46.1430642  94.5342473 133.3771495
  46.0048541  94.7244069 132.4492684  45.7866861  95.2961856 133.8339546
  34.3072769  88.5200568 139.4568507  34.9472148  88.3789327 138.7591470
  33.4750299  88.2335081 139.0807109  46.1700022  96.6019000 138.3882766
  46.6036529  96.5094289 139.2365820  46.8831603  96.5776500 137.7502782
  35.0833073  97.8202998 135.5703499  35.8773671  97.3253318 135.3686074
  34.3724765  97.2920861 135.2071205  39.9027917 100.2021094 139.9215867
  39.9564939 100.7712030 140.6893583  39.0342698 100.3722979 139.5569904
  31.3915836  91.9646080 131.6463252  30.4613424  91.9030536 131.8633214
  31.4873308  91.4422033 130.8499893  31.3101385  88.4900893 134.2341493
  31.5708202  89.4046226 134.1250654  32.1318557  88.0225335 134.3838106
  32.7826310  89.9038650 141.4040318  33.4549364  89.6956012 140.7552967
  31.9556097  89.7060736 140.9645550  47.0315572  96.6442700 140.9215651
  47.2251462  97.5488511 141.1674926  46.9316190  96.1850119 141.7554237
  38.6851882  86.5300591 143.4205979  38.0379797  87.2290541 143.3270455
  39.4552898  86.9636735 143.7882227  42.0930680  96.7949443 146.4956532
  41.9416187  96.5659995 145.5786616  42.0835360  97.7520045 146.5087877
  38.8616017  94.3681356 141.4802799  39.7908077  94.5192515 141.3071766
  38.4407047  94.4565377 140.6251445  37.6604348  98.3932020 139.2501336
  37.5215434  98.0250805 140.1227274  36.8718945  98.9079660 139.0785294
  38.2552500 103.4941117 130.5926873  38.4304256 103.0229160 131.4072495
  37.5685288 104.1206883 130.8208133  39.2109564  97.7713623 136.6390174
  38.8759396  97.7314393 137.5347824  38.7113509  97.1058339 136.1660584
  42.1468755  95.1169657 126.9127234  41.5297926  94.3916485 126.8160286
  41.6785244  95.8779018 126.5694308  35.8136108  92.8901212 141.6526435
  36.5235727  92.2494405 141.6113053  35.7705416  93.1414107 142.5752616
  43.8022887  99.8268566 144.5733014  43.7435433  99.1427786 143.9063597
  44.2042405 100.5687556 144.1213640  34.5265042  89.8766430 143.4722074
  33.9902399  89.4257169 144.1243671  33.9381751  90.0112339 142.7292539
  33.9367301  89.3355082 126.0348538  33.0596768  89.2143882 125.6710785
  34.4125054  88.5441160 125.7827427  43.8040294  97.7908150 142.8046994
  42.9167073  97.4534071 142.9273392  44.3738845  97.0591181 143.0415759
  30.2604163  89.0122438 140.5575069  30.1762352  88.4048107 139.8225479
  29.4386870  89.5031456 140.5584565  37.1231227 101.6881372 133.2811058
  36.3398749 102.2303052 133.3749283  37.8223972 102.2055352 133.6805300
  40.4327877  87.4976001 135.9245264  40.9296577  86.7445964 135.6046334
  39.6614859  87.5340318 135.3588473  48.2857635  93.2016367 137.5663555
  48.2747511  94.0841082 137.1957488  47.4175014  92.8487918 137.3718092
  39.7940131 102.3496436 141.9266395  40.5068103 102.9843901 141.8542297
  39.3030160 102.4460302 141.1106397  41.5157658  96.2547689 133.4983687
  40.5813937  96.3749151 133.3288391  41.6934327  95.3520155 133.2343697
  37.0162846  89.6393384 135.6516948  36.6460634  89.0864425 136.3397854
  37.5121939  89.0351518 135.0991948  44.9030209  92.0965008 134.0333721
  45.3690662  92.9293000 133.9594024  45.3537710  91.6309990 134.7378980
  42.9706441  98.4408829 131.0319873  43.2466284  98.3265424 131.9413747
  42.1010939  98.0426314 130.9932046  42.8746872  84.4645595 138.0724623
  41.9609952  84.6949822 138.2406830  43.3039974  84.5484039 138.9238655
  42.6453331  92.6535487 140.5724517  41.9924781  92.9011394 139.9176969
  43.0233711  91.8399625 140.2386994  39.6060505 102.6895180 134.6752687
  39.7882899 101.8716836 135.1380439  40.4293491 102.9062872 134.2377577
  39.9402670 101.6163365 131.9367735  40.4690436 101.1055820 131.3237898
  40.2030890 101.3005895 132.8013268  33.2958418 102.6678482 134.6965511
  32.6268793 103.1524610 134.2129551  33.1571288 102.9147702 135.6108890
  32.4128180  87.0497375 141.8970054  32.4769506  87.9112206 141.4847452
  32.3495300  86.4371377 141.1642413  28.6645995  90.9296937 131.4761444
  28.9599436  90.0207615 131.4228497  27.7634031  90.9084676 131.1542446
  40.5732074 102.6504201 138.2811852  40.4483213 101.8493941 137.7722797
  41.2311165 103.1450394 137.7925822  32.1940242  89.0052933 137.4588992
  31.4726828  89.6188901 137.3196465  32.9833498  89.5410698 137.3805638
  42.6366982 100.4513221 139.9091402  41.6897318 100.3318572 139.8369729
  42.9849755  99.5635719 139.9917663  34.9966556  86.3407360 143.7329644
  35.5200957  86.5869656 144.4955953  34.7778889  87.1727395 143.3132781
  30.3933837  88.6111035 131.6000769  30.0646543  87.7308413 131.4175875
  30.7473207  88.5558703 132.4877158  39.6413416 100.2465937 136.1095754
  39.4938378  99.3182645 136.2903324  40.4666909 100.2686028 135.6252829
  33.5075660  88.8984004 131.9676246  33.8471732  89.4269926 131.2454855
  33.9547780  89.2364410 132.7434813  43.2447537 101.0694496 137.1960627
  44.1694085 100.8637357 137.0585078  43.0762841 100.8210897 138.1049968
  36.2019101  87.2821055 141.4179314  35.8615921  86.4828868 141.8199994
  35.4958107  87.5822766 140.8456148  36.8535572  84.3670367 139.8706637
  37.6761642  83.8930846 139.7485528  37.0973636  85.1460851 140.3705324
  35.4943807  87.3958626 130.1669539  36.2152169  87.7739879 129.6633256
  34.8709111  88.1147503 130.2704517  39.6374930  88.1003775 131.1027871
  39.8538544  88.9828413 130.8016700  39.1568997  87.7089988 130.3733513
  34.3774151  91.0589488 137.6798616  34.2318732  91.3729791 138.5722898
  33.8999355  91.6774388 137.1269515  36.2370534  88.0492036 137.7279506
  36.2232103  87.1533129 137.3911804  36.9542962  88.0562700 138.3617792
  38.0896665  88.4829376 139.7732633  37.8314443  89.4046447 139.7716963
  37.5581705  88.0859811 140.4633097  43.0342854 101.5880163 132.5522718
  43.2079731 101.0226586 131.7996571  43.5271745 102.3881058 132.3702208
  35.6407430  86.9306416 132.9967076  35.7623341  86.0023063 133.1957963
  35.3509472  86.9445102 132.0845391  38.5098620  84.6161327 136.1333796
  38.5320317  84.6800660 135.1785775  38.9266679  83.7765835 136.3274302
  48.8882245  94.3516586 134.1713018  49.3313391  93.6023912 133.7732141
  48.0108755  94.3426723 133.7886750  44.0218026 100.9046928 129.6519617
  44.7168931 101.5253621 129.8706931  44.3641176 100.0542279 129.9271995
  45.9209449  98.3546633 131.1806947  46.4460773  98.6933906 130.4556267
  45.8331802  97.4193649 130.9970082  37.6050110 104.4218617 135.5402201
  37.1655100 103.9294995 136.2335057  38.3558227 103.8791584 135.2994276
  35.0523982  99.9656626 137.6124502  34.4303991  99.3027331 137.3126730
  35.7228849  99.9917758 136.9298150  45.6103355  98.9879537 146.4858145
  44.8198899  98.9703676 145.9462645  45.3736710  99.5267831 147.2407182
  45.7301230  95.8372003 143.7990874  45.7799235  95.6722011 144.7406397
  45.6215154  94.9699262 143.4088755  34.6137489  98.5160549 131.0882963
  34.7625609  99.1996013 130.4349636  35.4203932  98.4965639 131.6032419
  43.0204993  91.8202931 145.1150181  43.9214855  91.6809396 144.8234178
  43.0952967  91.9857386 146.0548358  37.3547798  89.1969786 143.9603367
  36.4851107  89.4903352 143.6885956  37.5907278  89.7810231 144.6810631
  47.2319427  98.2568945 144.0432895  46.9404235  98.6198925 144.8796356
  46.6191558  97.5435953 143.8646228  48.4315109  95.8221825 136.5635466
  49.2662001  96.2611629 136.7273026  48.5674238  95.3460478 135.7443711
  45.4806615  93.3801560 142.5112953  45.9560737  93.5729206 141.7031805
  44.5572181  93.4360745 142.2656337  32.3690122  94.5425727 132.0944032
  32.1236164  93.6388057 132.2924242  32.5386036  94.5442877 131.1523510
  40.0586832  85.4149403 141.4768787  40.5768776  86.1510430 141.1515276
  39.7041965  85.7213396 142.3115546  31.6385769  90.2754084 129.5930193
  30.9455014  90.3498439 128.9370229  31.3937521  89.5114428 130.1151710
  40.3099426  81.8349686 136.9969684  40.5901180  81.1672875 137.6230111
  41.0950033  82.0278781 136.4844348  38.1132894 101.0108679 128.5594710
  37.5406862 101.6298867 128.1065182  38.6865688 101.5608041 129.0934632
  44.1808284  90.2567320 140.7441259  45.1325707  90.3565417 140.7653483
  44.0111735  89.4645588 141.2539343  42.2022664  87.3422903 140.9300660
  41.6072596  87.6227916 140.2347149  41.9172361  87.8316804 141.7017401
  41.3330154 101.2945830 129.6903293  42.2660827 101.2291391 129.8936168
  41.2453367 102.1302096 129.2317825  43.9618171 100.6111700 126.6507240
  43.8831802 100.2771564 127.5442998  44.7827838 101.1033468 126.6498712
  46.6596362  93.4773439 139.8583559  46.6272682  92.5389440 140.0443243
  47.2696986  93.5557476 139.1249384  38.4979693  92.3469492 125.9010763
  39.4438798  92.2175700 125.9699181  38.1193938  91.6084154 126.3780191
  46.8090851  90.2684483 139.9041842  46.2929899  89.4842939 139.7171771
  47.6930799  89.9403199 140.0688361  44.4701578  84.0125498 135.8637655
  44.2726399  83.7040586 136.7480987  45.0801283  84.7387137 135.9935584
  52.4772912  94.5389446 138.9989596  53.2076300  94.2774734 139.5597299
  51.8679857  93.8018168 139.0391664  50.5588209  92.6797309 139.5964047
  49.8321373  92.5453274 138.9880538  50.1435496  92.9874137 140.4020765
  36.6822610  90.2719469 125.8365648  35.7754066  89.9752581 125.9128362
  36.9598591  89.9749287 124.9699934  27.6000551  91.5925832 136.2864694
  27.2803335  90.7391140 135.9939068  27.0533979  91.8074410 137.0422662
  38.2984676  84.8156358 131.9909889  37.4885404  84.4703443 132.3665135
  38.9869093  84.5063902 132.5797501  40.2275224  83.8934405 133.6134186
  40.7806263  84.3129859 134.2724209  40.4645311  82.9670153 133.6557142
  35.4521395  87.1306404 125.9777627  36.3140559  87.4561302 126.2373445
  35.6371739  86.3437900 125.4650693  43.6054031  86.0034930 133.1212850
  43.0252700  86.6619734 132.7390903  43.3389964  85.1812275 132.7100268
  42.0557598  85.4039988 135.3234171  42.5557376  85.5156523 134.5148489
  42.6993206  85.1001041 135.9634979  29.3825553  95.1446997 136.1323831
  29.3596241  95.2434685 135.1805714  29.6926190  95.9912148 136.4540997
  42.3878909  88.1635021 132.1769198  41.5004764  88.4484671 131.9589393
  42.8032898  88.0028784 131.3296475  45.7393445  88.1881542 135.8923538
  46.5153836  88.6777994 136.1648155  45.0141580  88.6139596 136.3495407
  48.1766004  88.9009161 136.9497478  48.7710495  88.6604897 136.2390787
  48.2492588  88.1816291 137.5771015  41.5322123  97.9279695 126.2717218
  42.2357973  98.1329698 126.8874874  40.8084772  98.4956457 126.5366302
  42.3619933  93.6789557 132.3919489  42.3055134  94.1358108 131.5527121
  42.9148275  92.9180241 132.2142331  46.1724739  89.4679289 133.2169608
  45.9161673  89.0675924 134.0477816  45.5477607  90.1823082 133.0919747
  50.4837077  92.2075362 135.7240900  49.9236635  92.2768551 136.4972462
  49.8780580  92.0316346 135.0040396  43.4408820  98.3662225 128.3215679
  44.2754424  97.9343423 128.1393153  43.2793163  98.1944238 129.2492573
  43.0954712  94.8694338 129.6872018  43.0403516  94.7038609 128.7460462
  42.4700768  95.5770371 129.8434208  36.4050838  84.3702447 129.2657336
  36.3929508  85.3144287 129.4225607  37.2974260  84.1872592 128.9716797
  36.3340402 103.0471337 137.3525093  35.3836033 103.0473199 137.2389465
  36.6372888 102.3004072 136.8361127  40.2202957  80.9645224 133.5203273
  39.4535353  80.4103710 133.6659955  40.6313662  81.0367092 134.3817425
  52.0693095 108.8831876 138.4170855  52.7071505 108.7638623 137.7134195
  51.9513938 109.8312720 138.4758807  48.8782802 108.8359304 138.3532380
  48.5401313 108.7200368 137.4652915  49.7472570 108.4350469 138.3333386
  44.7369617 110.6894780 134.3429271  44.1734482 110.5984717 133.5745559
  44.6222012 109.8694685 134.8231763  42.2834049 112.1845972 137.1813491
  43.0755341 111.8436796 136.7659791  42.5230699 112.2940947 138.1015645
  50.3169176 114.3565748 129.6543736  49.6657156 114.9419828 129.2677750
  51.1113539 114.8871943 129.7138773  44.2424803 111.4454885 130.0530870
  45.0155679 110.8983872 129.9143746  44.5950202 112.3099134 130.2645332
  47.0066053 110.1508116 139.8499129  47.6029625 109.9264138 139.1356092
  47.0641024 109.4092861 140.4524577  46.5791081 107.6047551 127.6849320
  46.8316602 107.0829072 126.9232783  45.6415640 107.4413697 127.7876004
  51.6234364 106.6083330 135.4924063  52.4097453 106.1902753 135.1414480
  51.8873068 107.5129422 135.6605712  51.7944441 112.0456180 130.1912720
  51.1590274 112.1190806 130.9033625  51.4641847 112.6349779 129.5131799
  57.0242791 106.5458563 136.3957042  57.7567963 105.9757780 136.6294871
  56.2682147 106.1580163 136.8363547  46.2987370 109.5075657 129.8873695
  46.1823628 108.8320561 130.5554779  46.4089630 109.0208031 129.0705848
  48.6418911 108.9685804 133.5920384  48.2777118 108.4416425 134.3033306
  49.4986026 108.5784273 133.4186870  54.5468211 100.2580137 140.8551650
  54.2151536 101.1275548 140.6312865  53.9513825  99.9416421 141.5345681
  48.2824398 103.9975704 128.5881733  48.4498800 104.8655940 128.9552204
  48.0921567 104.1602986 127.6643022  44.4912212 108.9106480 136.2884268
  43.5662709 108.7782694 136.4961959  44.7396625 109.6900699 136.7854210
  54.4396875 104.9775223 137.9345000  53.5313752 104.9090631 137.6403761
  54.3884470 105.4547168 138.7626826  48.2613618 106.4533361 129.5728400
  48.1413244 106.8990412 130.4113880  47.5666207 106.8018679 129.0141938
  41.8521023 108.5539753 137.1228057  41.9813404 108.8074232 138.0367468
  41.1718475 109.1467461 136.8032712  46.0220511 119.2237003 133.2218531
  45.9444540 120.1744828 133.3007011  45.4182154 118.8782876 133.8793457
  56.3058521 103.1791661 139.7122874  55.6632901 103.4724195 139.0662669
  55.8013449 103.0644582 140.5176071  53.9598685 106.9254835 130.4008734
  54.8716541 107.1582221 130.2256431  53.4508332 107.5091879 129.8383812
  48.5970522 106.2852069 141.4103583  49.4431717 106.7091483 141.5538232
  48.5369160 105.6285694 142.1042146  52.5668267 111.9080653 137.7922315
  51.9377129 112.0726367 137.0898383  52.1793929 112.3222263 138.5633279
  56.4457499 112.8435091 135.1466679  55.7608537 113.2233992 134.5963712
  56.5301348 113.4530418 135.8798627  51.7469968 103.9456438 143.0684757
  51.5030900 104.6998498 142.5319032  52.0229898 104.3241785 143.9032004
  51.3034659 103.1012871 138.6498595  50.4419138 103.3994124 138.9415332
  51.3297094 103.3183269 137.7179627  48.1196229 111.6455061 135.0572400
  48.5834574 111.9242764 134.2677023  47.8553027 110.7438506 134.8745491
  45.0120310 111.1926543 137.9952163  45.5821667 111.6213811 137.3569648
  45.6028422 110.9109127 138.6936349  47.0565115 107.7678214 131.8661965
  47.7589158 108.2199257 132.3335892  46.7245743 107.1262032 132.4941858
  40.7990449 106.0261766 137.1679099  40.0089503 106.2819295 136.6919210
  41.2901696 106.8410104 137.2731139  42.7505194 106.3906345 134.1262576
  41.9536357 106.5025040 134.6446071  42.5230786 106.7292998 133.2603466
  62.9060251 109.7105754 136.2669351  62.1523960 109.1413152 136.1113356
  63.0407793 109.6768418 137.2139986  48.2958879 114.5819156 131.9424071
  48.1604554 115.4270692 132.3708918  48.8368692 114.7838434 131.1790004
  41.7488277 112.0994594 132.5151996  42.2612797 112.8937844 132.6657560
  42.4010990 111.4020885 132.4485597  43.5583162 115.2160350 134.5974749
  43.7349790 116.1378315 134.4095733  44.3539995 114.9018770 135.0269129
  47.6994180 102.0768615 146.1958682  48.4403893 102.6775768 146.1163145
  47.9312103 101.3346253 145.6376725  51.6451343  98.1049718 140.4722964
  51.3015612  98.9951360 140.3962075  52.0130306  97.9151376 139.6092549
  39.7137194 110.4283248 133.2911566  40.5512416 110.8380257 133.0745274
  39.8915461 109.4882691 133.2611760  51.6101626 108.0958329 128.9795399
  51.0948249 108.8662934 129.2183787  51.3378934 107.4223465 129.6028461
  49.1948737 102.9408030 134.0380638  48.3390333 102.5514880 133.8586276
  49.6075689 103.0199991 133.1780423  50.7247883 100.4754373 138.4372197
  50.2212679 100.4384508 137.6240003  51.0178490 101.3847116 138.4968854
  46.9690769 100.5593103 137.4438379  47.8343766 100.3635912 137.0844268
  47.0368278 100.3303455 138.3707736  56.5835900 110.8490684 130.9148573
  55.8065343 110.5101843 130.4703735  57.2627381 110.8543307 130.2403538
  51.3987929 105.9685421 130.8055180  51.0938064 106.2831570 131.6565324
  52.3518371 106.0466841 130.8482513  49.8434361 112.1275645 132.4548134
  49.3155722 111.3928404 132.1421372  49.3421863 112.9050321 132.2088103
  54.8227207 110.3224665 137.5715181  54.1650881 111.0123926 137.6595309
  55.6267606 110.7121097 137.9149167  44.5753088 102.7895311 134.8154746
  45.1496840 102.5670492 134.0827939  45.1624071 102.8584005 135.5683347
  53.6332666 108.6769038 135.6219122  54.1464547 109.3099030 136.1240832
  54.2833889 108.0770233 135.2562482  44.9022675 104.8199772 128.8350631
  44.0659988 105.1574458 129.1559906  44.7627445 104.6848752 127.8977768
  46.8775756  99.6636560 133.5429815  46.2240168  99.3485577 132.9186430
  46.8356230  99.0412300 134.2689638  47.9886961 109.9455855 125.4583107
  47.0814023 109.7145108 125.6574256  48.4857993 109.1493474 125.6457089
  50.8955040 118.6553362 128.3779793  50.2216739 118.9585059 128.9864751
  51.2820862 119.4582442 128.0285251  50.1113496 106.1518493 137.8677463
  49.1936058 106.3733440 137.7099151  50.5273640 106.2264804 137.0089170
  50.8948544 107.5509909 132.9980143  51.6420363 108.0631306 132.6887265
  51.1640134 107.2293962 133.8584537  49.1675194 110.0468450 129.9807097
  48.2586414 109.7627482 130.0779567  49.1970278 110.4667528 129.1210404
  54.3994462 113.6575039 133.7498265  53.9456789 112.8165949 133.8063455
  53.7688428 114.2936438 134.0873045  53.3427381 104.5867025 134.9798932
  52.6050138 104.0744411 135.3109175  53.5954155 104.1467407 134.1682209
  52.8427401 115.4951536 134.6848083  53.1350375 116.0556593 133.9660449
  53.3526022 115.7880097 135.4401242  53.4439009  97.3643277 135.5740702
  53.7497885  96.5040641 135.2866617  54.1691613  97.9560897 135.3739696
  39.7363365 107.7673964 133.9622300  39.5387765 107.1743325 133.2373366
  39.1810029 107.4626174 134.6798238  47.7160088 107.6597070 136.0816893
  47.7708698 106.7070907 136.0059369  46.9051290 107.8156509 136.5658191
  48.8651282 111.5877193 127.3195176  48.4270712 110.8713052 126.8600813
  49.6061723 111.8153308 126.7580267  45.6552448 106.2774130 133.8407272
  44.8420314 106.5768301 134.2472464  46.1511443 105.8829819 134.5581754
  47.8061026 116.2731887 135.7741536  47.7637205 116.4992733 134.8450068
  48.7223725 116.0395262 135.9227337  51.2526660 106.7415955 142.6722166
  51.6076048 106.9687428 143.5316631  51.8998791 107.0734331 142.0499421
  56.9824397 109.8634390 133.3771495  56.8442296 110.0535986 132.4492684
  56.6260616 110.6253773 133.8339546  45.1466523 103.8492486 139.4568507
  45.7865902 103.7081245 138.7591470  44.3144054 103.5626999 139.0807109
  45.9226827 113.1494916 135.5703499  46.7167425 112.6545236 135.3686074
  45.2118519 112.6212779 135.2071205  42.2309590 107.2937998 131.6463252
  41.3007179 107.2322453 131.8633214  42.3267062 106.7713950 130.8499893
  42.1495140 103.8192811 134.2341493  42.4101957 104.7338144 134.1250654
  42.9712312 103.3517253 134.3838106  43.6220065 105.2330568 141.4040318
  44.2943118 105.0247930 140.7552967  42.7949851 105.0352654 140.9645550
  49.5245637 101.8592509 143.4205979  48.8773552 102.5582458 143.3270455
  50.2946652 102.2928653 143.7882227  49.7009771 109.6973274 141.4802799
  50.6301831 109.8484433 141.3071766  49.2800801 109.7857294 140.6251445
  48.4998103 113.7223938 139.2501336  48.3609189 113.3542722 140.1227274
  47.7112699 114.2371577 139.0785294  49.0946255 118.8233034 130.5926873
  49.2698011 118.3521078 131.4072495  48.4079043 119.4498801 130.8208133
  50.0503318 113.1005541 136.6390174  49.7153151 113.0606311 137.5347824
  49.5507264 112.4350257 136.1660584  52.9862510 110.4461575 126.9127234
  52.3691680 109.7208403 126.8160286  52.5178998 111.2070935 126.5694308
  46.6529863 108.2193130 141.6526435  47.3629481 107.5786322 141.6113053
  46.6099171 108.4706025 142.5752616  45.3658797 105.2058348 143.4722074
  44.8296154 104.7549086 144.1243671  44.7775505 105.3404257 142.7292539
  44.7761056 104.6646999 126.0348538  43.8990522 104.5435800 125.6710785
  45.2518809 103.8733078 125.7827427  41.0997918 104.3414356 140.5575069
  41.0156107 103.7340025 139.8225479  40.2780624 104.8323374 140.5584565
  47.9624982 117.0173290 133.2811058  47.1792504 117.5594970 133.3749283
  48.6617727 117.5347269 133.6805300  51.2721632 102.8267919 135.9245264
  51.7690331 102.0737881 135.6046334  50.5008613 102.8632236 135.3588473
  59.1251389 108.5308285 137.5663555  59.1141265 109.4133000 137.1957488
  58.2568769 108.1779835 137.3718092  52.3551413 111.5839606 133.4983687
  51.4207691 111.7041069 133.3288391  52.5328081 110.6812073 133.2343697
  47.8556601 104.9685302 135.6516948  47.4854388 104.4156342 136.3397854
  48.3515693 104.3643436 135.0991948  55.7423964 107.4256926 134.0333721
  56.2084416 108.2584917 133.9594024  56.1931464 106.9601907 134.7378980
  53.8100195 113.7700747 131.0319873  54.0860039 113.6557341 131.9413747
  52.9404694 113.3718232 130.9932046  53.7140627  99.7937513 138.0724623
  52.8003706 100.0241739 138.2406830  54.1433728  99.8775957 138.9238655
  53.4847085 107.9827405 140.5724517  52.8318535 108.2303312 139.9176969
  53.8627465 107.1691543 140.2386994  50.4454259 118.0187098 134.6752687
  50.6276654 117.2008754 135.1380439  51.2687245 118.2354790 134.2377577
  50.7796425 116.9455283 131.9367735  51.3084191 116.4347737 131.3237898
  51.0424644 116.6297813 132.8013268  44.1352172 117.9970400 134.6965511
  43.4662548 118.4816527 134.2129551  43.9965042 118.2439620 135.6108890
  43.2521934 102.3789293 141.8970054  43.3163261 103.2404124 141.4847452
  43.1889055 101.7663295 141.1642413  39.5039750 106.2588855 131.4761444
  39.7993191 105.3499533 131.4228497  38.6027785 106.2376594 131.1542446
  43.0333997 104.3344851 137.4588992  42.3120582 104.9480819 137.3196465
  43.8227252 104.8702616 137.3805638  45.8360310 101.6699278 143.7329644
  46.3594712 101.9161574 144.4955953  45.6172643 102.5019312 143.3132781
  41.2327591 103.9402952 131.6000769  40.9040297 103.0600331 131.4175875
  41.5866962 103.8850621 132.4877158  50.4807170 115.5757855 136.1095754
  50.3332132 114.6474562 136.2903324  51.3060664 115.5977946 135.6252829
  44.3469414 104.2275922 131.9676246  44.6865487 104.7561843 131.2454855
  44.7941535 104.5656328 132.7434813  47.0412855 102.6112973 141.4179314
  46.7009675 101.8120786 141.8199994  46.3351861 102.9114684 140.8456148
  47.6929327  99.6962285 139.8706637  48.5155396  99.2222763 139.7485528
  47.9367390 100.4752769 140.3705324  46.3337561 102.7250544 130.1669539
  47.0545924 103.1031796 129.6633256  45.7102866 103.4439420 130.2704517
  50.4768684 103.4295693 131.1027871  50.6932299 104.3120330 130.8016700
  49.9962751 103.0381906 130.3733513  45.2167906 106.3881406 137.6798616
  45.0712486 106.7021709 138.5722898  44.7393109 107.0066306 137.1269515
  47.0764289 103.3783954 137.7279506  47.0625857 102.4825047 137.3911804
  47.7936717 103.3854618 138.3617792  48.9290419 103.8121294 139.7732633
  48.6708197 104.7338365 139.7716963  48.3975460 103.4151729 140.4633097
  53.8736608 116.9172081 132.5522718  54.0473486 116.3518504 131.7996571
  54.3665499 117.7172976 132.3702208  46.4801185 102.2598334 132.9967076
  46.6017096 101.3314980 133.1957963  46.1903227 102.2737020 132.0845391
  49.3492375  99.9453244 136.1333796  49.3714072 100.0092578 135.1785775
  49.7660434  99.1057753 136.3274302  59.7275999 109.6808504 134.1713018
  60.1707145 108.9315829 133.7732141  58.8502510 109.6718640 133.7886750
  54.8611781 116.2338846 129.6519617  55.5562685 116.8545538 129.8706931
  55.2034931 115.3834197 129.9271995  56.7603204 113.6838551 131.1806947
  57.2854528 114.0225824 130.4556267  56.6725556 112.7485566 130.9970082
  48.4443864 119.7510534 135.5402201  48.0048855 119.2586913 136.2335057
  49.1951981 119.2083502 135.2994276  45.8917737 115.2948543 137.6124502
  45.2697746 114.6319248 137.3126730  46.5622603 115.3209675 136.9298150
  45.4531243 113.8452467 131.0882963  45.6019364 114.5287931 130.4349636
  46.2597687 113.8257557 131.6032419  48.1941552 104.5261704 143.9603367
  47.3244862 104.8195270 143.6885956  48.4301033 105.1102149 144.6810631
  59.2708864 111.1513742 136.5635466  60.1055755 111.5903546 136.7273026
  59.4067993 110.6752396 135.7443711  43.2083876 109.8717644 132.0944032
  42.9629918 108.9679974 132.2924242  43.3779791 109.8734795 131.1523510
  50.8980586 100.7441321 141.4768787  51.4162530 101.4802348 141.1515276
  50.5435719 101.0505314 142.3115546  42.4779524 105.6046002 129.5930193
  41.7848769 105.6790357 128.9370229  42.2331276 104.8406346 130.1151710
  51.1493180  97.1641603 136.9969684  51.4294934  96.4964792 137.6230111
  51.9343787  97.3570699 136.4844348  48.9526649 116.3400597 128.5594710
  48.3800616 116.9590784 128.1065182  49.5259443 116.8899959 129.0934632
  55.0202039 105.5859237 140.7441259  55.9719462 105.6857335 140.7653483
  54.8505489 104.7937506 141.2539343  53.0416418 102.6714820 140.9300660
  52.4466350 102.9519833 140.2347149  52.7566115 103.1608721 141.7017401
  52.1723909 116.6237747 129.6903293  53.1054582 116.5583309 129.8936168
  52.0847122 117.4594014 129.2317825  54.8011925 115.9403618 126.6507240
  54.7225557 115.6063481 127.5442998  55.6221592 116.4325386 126.6498712
  57.4990117 108.8065357 139.8583559  57.4666437 107.8681358 140.0443243
  58.1090740 108.8849394 139.1249384  49.3373447 107.6761410 125.9010763
  50.2832552 107.5467618 125.9699181  48.9587692 106.9376072 126.3780191
  57.6484605 105.5976400 139.9041842  57.1323654 104.8134857 139.7171771
  58.5324554 105.2695117 140.0688361  55.3095332  99.3417416 135.8637655
  55.1120153  99.0332504 136.7480987  55.9195038 100.0679055 135.9935584
  47.5216365 105.6011386 125.8365648  46.6147820 105.3044499 125.9128362
  47.7992346 105.3041204 124.9699934  38.4394305 106.9217750 136.2864694
  38.1197089 106.0683058 135.9939068  37.8927733 107.1366328 137.0422662
  49.1378430 100.1448276 131.9909889  48.3279159  99.7995361 132.3665135
  49.8262847  99.8355820 132.5797501  51.0668979  99.2226323 133.6134186
  51.6200017  99.6421776 134.2724209  51.3039065  98.2962071 133.6557142
  46.2915149 102.4598322 125.9777627  47.1534313 102.7853220 126.2373445
  46.4765493 101.6729817 125.4650693  54.4447786 101.3326848 133.1212850
  53.8646455 101.9911652 132.7390903  54.1783718 100.5104193 132.7100268
  52.8951352 100.7331906 135.3234171  53.3951130 100.8448440 134.5148489
  53.5386960 100.4292959 135.9634979  40.2219308 110.4738915 136.1323831
  40.1989996 110.5726602 135.1805714  40.5319944 111.3204066 136.4540997
  53.2272664 103.4926938 132.1769198  52.3398519 103.7776589 131.9589393
  53.6426653 103.3320702 131.3296475  56.5787200 103.5173459 135.8923538
  57.3547590 104.0069912 136.1648155  55.8535334 103.9431514 136.3495407
  59.0159759 104.2301079 136.9497478  59.6104249 103.9896815 136.2390787
  59.0886342 103.5108209 137.5771015  52.3715877 113.2571613 126.2717218
  53.0751727 113.4621616 126.8874874  51.6478526 113.8248375 126.5366302
  53.2013688 109.0081474 132.3919489  53.1448889 109.4650026 131.5527121
  53.7542030 108.2472159 132.2142331  57.0118493 104.7971206 133.2169608
  56.7555428 104.3967842 134.0477816  56.3871361 105.5115000 133.0919747
  61.3230831 107.5367279 135.7240900  60.7630389 107.6060469 136.4972462
  60.7174335 107.3608264 135.0040396  54.2802575 113.6954142 128.3215679
  55.1148179 113.2635341 128.1393153  54.1186918 113.5236156 129.2492573
  53.9348467 110.1986256 129.6872018  53.8797271 110.0330527 128.7460462
  53.3094522 110.9062288 129.8434208  47.2444592  99.6994365 129.2657336
  47.2323262 100.6436204 129.4225607  48.1368014  99.5164510 128.9716797
  47.1734156 118.3763255 137.3525093  46.2229787 118.3765117 137.2389465
  47.4766642 117.6295990 136.8361127  51.0596712  96.2937141 133.5203273
  50.2929108  95.7395628 133.6659955  51.4707417  96.3659010 134.3817425
  57.4184835 122.9339469 127.6849320  57.6710356 122.4120990 126.9232783
  56.4809394 122.7705614 127.7876004  57.1381124 124.8367575 129.8873695
  57.0217382 124.1612478 130.5554779  57.2483384 124.3499949 129.0705848
  59.1218152 119.3267622 128.5881733  59.2892554 120.1947858 128.9552204
  58.9315321 119.4894903 127.6643022  59.1007373 121.7825279 129.5728400
  58.9806998 122.2282330 130.4113880  58.4059961 122.1310597 129.0141938
  53.5898949 121.7198263 134.1262576  52.7930112 121.8316957 134.6446071
  53.3624541 122.0584915 133.2603466  62.4495380 123.4250247 128.9795399
  61.9342004 124.1954851 129.2183787  62.1772689 122.7515383 129.6028461
  55.7416430 120.1491690 128.8350631  54.9053742 120.4866376 129.1559906
  55.6021200 120.0140669 127.8977768  57.7169511 114.9928477 133.5429815
  57.0633923 114.6777495 132.9186430  57.6749985 114.3704218 134.2689638
  58.8280715 125.2747772 125.4583107  57.9207777 125.0437026 125.6574256
  59.3251747 124.4785392 125.6457089  50.5757119 123.0965881 133.9622300
  50.3781519 122.5035242 133.2373366  50.0203783 122.7918092 134.6798238
  59.7045037 126.9169111 127.3195176  59.2664467 126.2004970 126.8600813
  60.4455478 127.1445226 126.7580267  53.0703345 122.6229915 131.6463252
  52.1400933 122.5614371 131.8633214  53.1660817 122.1005868 130.8499893
  52.9888894 119.1484728 134.2341493  53.2495711 120.0630061 134.1250654
  53.8106066 118.6809171 134.3838106  63.8256264 125.7753493 126.9127234
  63.2085435 125.0500321 126.8160286  63.3572753 126.5362853 126.5694308
  55.6154810 119.9938917 126.0348538  54.7384277 119.8727718 125.6710785
  56.0912563 119.2024995 125.7827427  50.3433504 121.5880772 131.4761444
  50.6386945 120.6791451 131.4228497  49.4421540 121.5668512 131.1542446
  52.0721346 119.2694870 131.6000769  51.7434052 118.3892249 131.4175875
  52.4260716 119.2142539 132.4877158  55.1863169 119.5567840 131.9676246
  55.5259241 120.0853761 131.2454855  55.6335289 119.8948246 132.7434813
  57.1731316 118.0542461 130.1669539  57.8939678 118.4323714 129.6633256
  56.5496620 118.7731338 130.2704517  61.3162439 118.7587610 131.1027871
  61.5326053 119.6412248 130.8016700  60.8356506 118.3673824 130.3733513
  57.3194939 117.5890252 132.9967076  57.4410850 116.6606898 133.1957963
  57.0296981 117.6028938 132.0845391  54.0477631 125.2009562 132.0944032
  53.8023673 124.2971892 132.2924242  54.2173545 125.2026712 131.1523510
  53.3173278 120.9337920 129.5930193  52.6242523 121.0082275 128.9370229
  53.0725030 120.1698263 130.1151710  60.1767202 123.0053328 125.9010763
  61.1226307 122.8759536 125.9699181  59.7981447 122.2667990 126.3780191
  58.3610119 120.9303304 125.8365648  57.4541575 120.6336417 125.9128362
  58.6386100 120.6333122 124.9699934  59.9772185 115.4740194 131.9909889
  59.1672913 115.1287279 132.3665135  60.6656602 115.1647737 132.5797501
  61.9062733 114.5518241 133.6134186  62.4593772 114.9713694 134.2724209
  62.1432820 113.6253989 133.6557142  57.1308904 117.7890239 125.9777627
  57.9928068 118.1145138 126.2373445  57.3159248 117.0021735 125.4650693
  58.0838347 115.0286282 129.2657336  58.0717017 115.9728122 129.4225607
  58.9761769 114.8456428 128.9716797  61.8990466 111.6229059 133.5203273
  61.1322862 111.0687546 133.6659955  62.3101171 111.6950928 134.3817425
  17.7987914  45.3752117 116.3789042  17.1475893  45.9606198 115.9923056
  18.5932277  45.9058312 116.4384080  14.0609819  38.6233921 114.4094627
  14.3135339  38.1015442 113.6478090  13.1234378  38.4600066 114.5121310
  19.2763179  43.0642549 116.9158027  18.6409012  43.1377176 117.6278931
  18.9460585  43.6536148 116.2377106  13.5039248  50.2423373 119.9463837
  13.4263278  51.1931198 120.0252318  12.9000892  49.8969245 120.6038764
  21.4417422  37.9441204 117.1254040  22.3535278  38.1768591 116.9501738
  20.9327069  38.5278248 116.5629119  23.9276237  43.8621460 121.8711986
  23.2427275  44.2420362 121.3209019  24.0120086  44.4716787 122.6043933
  15.7777617  45.6005526 118.6669377  15.6423292  46.4457061 119.0954225
  16.3187430  45.8024803 117.9035311  19.0920364  39.1144699 115.7040706
  18.5766987  39.8849303 115.9429093  18.8197672  38.4409835 116.3273767
  24.0654638  41.8677053 117.6393879  23.2884080  41.5288213 117.1949041
  24.7446119  41.8729677 116.9648844  15.4705699  40.9642224 112.1828414
  14.5632760  40.7331478 112.3819563  15.9676731  40.1679844 112.3702396
  18.3773778  49.6739732 115.1025100  17.7035476  49.9771428 115.7110058
  18.7639600  50.4768812 114.7530557  16.6493932  41.0654819 116.7052404
  15.7405151  40.7813852 116.8024874  16.6789016  41.4853898 115.8455711
  21.8813200  44.6761409 120.4743572  21.4275527  43.8352319 120.5308762
  21.2507166  45.3122807 120.8118352  20.3246139  46.5137905 121.4093390
  20.6169113  47.0742963 120.6905755  20.8344759  46.8066466 122.1646549
  16.3470020  42.6063563 114.0440483  15.9089450  41.8899422 113.5846120
  17.0880461  42.8339678 113.4825574  24.4643135  40.8820760 120.1016801
  24.3261033  41.0722356 119.1737990  24.1079354  41.6440143 120.5584852
  16.5764993  49.8419404 117.3172179  16.7516748  49.3707447 118.1317802
  15.8897781  50.4685170 117.5453440  20.4681248  41.4647945 113.6372540
  19.8510418  40.7394773 113.5405593  19.9997736  42.2257305 113.2939614
  15.4443720  48.0359659 120.0056365  14.6611241  48.5781339 120.0994590
  16.1436465  48.5533639 120.4050606  21.2918933  44.7887116 117.7565180
  21.5678777  44.6743711 118.6659054  20.4223432  44.3904601 117.7177353
  17.9272997  49.0373467 121.3997994  18.1095391  48.2195123 121.8625746
  18.7505983  49.2541160 120.9622884  18.2615162  47.9641652 118.6613042
  18.7902929  47.4534107 118.0483204  18.5243382  47.6484183 119.5258575
  21.3555346  47.9358451 119.2768025  21.5292223  47.3704873 118.5241878
  21.8484237  48.7359346 119.0947515  27.2094737  40.6994874 120.8958325
  27.6525883  39.9502199 120.4977448  26.3321247  40.6905010 120.5132057
  22.3430518  47.2525215 116.3764923  23.0381423  47.8731908 116.5952238
  22.6853668  46.4020566 116.6517301  24.2421941  44.7024921 117.9052254
  24.7673266  45.0412193 117.1801574  24.1544294  43.7671936 117.7215389
  12.9349981  44.8638836 117.8128270  13.0838102  45.5474301 117.1594942
  13.7416425  44.8443926 118.3277725  16.4345387  47.3586967 115.2840017
  15.8619354  47.9777154 114.8310489  17.0078180  47.9086328 115.8179939
  19.6542647  47.6424117 116.4148599  20.5873320  47.5769679 116.6181475
  19.5665859  48.4780384 115.9563132  22.2830663  46.9589987 113.3752547
  22.2044295  46.6249851 114.2688305  23.1040330  47.4511755 113.3744019
  16.8192185  38.6947780 112.6256069  17.7651290  38.5653988 112.6944487
  16.4406430  37.9562441 113.1025498  15.0035102  36.6197756 112.5610955
  14.0966558  36.3230869 112.6373668  15.2811083  36.3227574 111.6945241
  19.8534615  44.2757983 112.9962525  20.5570465  44.4807985 113.6120181
  19.1297264  44.8434745 113.2611609  21.7621312  44.7140512 115.0460985
  22.5966916  44.2821710 114.8638460  21.6005655  44.5422526 115.9737880
  21.4167205  41.2172625 116.4117324  21.3616008  41.0516897 115.4705769
  20.7913260  41.9248658 116.5679514  30.3905588  55.2310163 125.1416162
  31.0283997  55.1116910 124.4379502  30.2726430  56.1791007 125.2004114
  27.1995294  55.1837591 125.0777687  26.8613805  55.0678656 124.1898221
  28.0685062  54.7828756 125.0578693  23.0582109  57.0373067 121.0674578
  22.4946975  56.9463004 120.2990865  22.9434505  56.2172972 121.5477070
  20.6046541  58.5324259 123.9058798  21.3967833  58.1915084 123.4905097
  20.8443192  58.6419234 124.8260951  28.6381668  60.7044035 116.3789042
  27.9869648  61.2898116 115.9923056  29.4326031  61.2350230 116.4384080
  22.5637295  57.7933172 116.7776177  23.3368171  57.2462159 116.6389053
  22.9162694  58.6577422 116.9890638  24.4022338  59.1209555 129.9843076
  24.1112204  60.0255185 129.8689742  25.0379322  59.1626082 130.6987146
  25.3278545  56.4986403 126.5744436  25.9242117  56.2742425 125.8601399
  25.3853516  55.7571149 127.1769884  24.9003573  53.9525838 114.4094627
  25.1529094  53.4307360 113.6478090  23.9628132  53.7891984 114.5121310
  29.9446856  52.9561617 122.2169370  30.7309945  52.5381040 121.8659787
  30.2085560  53.8607709 122.3851018  30.1156933  58.3934467 116.9158027
  29.4802766  58.4669094 117.6278931  29.7854340  58.9828066 116.2377106
  35.3455283  52.8936850 123.1202348  36.0780455  52.3236067 123.3540178
  34.5894639  52.5058450 123.5608854  24.6199862  55.8553944 116.6119002
  24.5036120  55.1798848 117.2800086  24.7302122  55.3686318 115.7951155
  26.9631403  55.3164091 120.3165691  26.5989610  54.7894712 121.0278612
  27.8198519  54.9262561 120.1432176  26.6036890  50.3453991 115.3127039
  26.7711292  51.2134228 115.6797510  26.4134059  50.5081273 114.3888329
  29.3612223  58.8070970 126.9792870  29.0612946  59.7096009 126.8708677
  29.0163283  58.5403153 127.8314023  22.8124704  55.2584767 123.0129574
  21.8875201  55.1260981 123.2207266  23.0609118  56.0378986 123.5099517
  32.7609367  51.3253510 124.6590307  31.8526244  51.2568919 124.3649068
  32.7096963  51.8025455 125.4872133  26.5826111  52.8011649 116.2973706
  26.4625736  53.2468699 117.1359187  25.8878699  53.1496966 115.7387244
  20.1733516  54.9018040 123.8473363  20.3025897  55.1552519 124.7612775
  19.4930967  55.4945748 123.5278018  24.3433003  65.5715290 119.9463837
  24.2657033  66.5223116 120.0252318  23.7394646  65.2261163 120.6038764
  34.6271013  49.5269949 126.4368181  33.9845393  49.8202482 125.7907976
  34.1225942  49.4122869 127.2421378  32.2811177  53.2733122 117.1254040
  33.1929033  53.5060509 116.9501738  31.7720824  53.8570166 116.5629119
  30.5651945  57.6957750 130.7615333  30.9735301  57.2540160 130.0169965
  29.8429206  57.1210377 131.0149526  30.8880759  58.2558940 124.5167622
  30.2589622  58.4204654 123.8143690  30.5006421  58.6700550 125.2878586
  34.7669991  59.1913378 121.8711986  34.0821029  59.5712280 121.3209019
  34.8513840  59.8008705 122.6043933  32.0220923  56.8373337 128.4707329
  32.2337818  57.4805097 127.7941710  31.9750671  56.0035654 128.0029259
  29.6247152  49.4491158 125.3743901  28.7631631  49.7472411 125.6660639
  29.6509586  49.6661557 124.4424934  26.4408721  57.9933348 121.7817707
  26.9047067  58.2721051 120.9922329  26.1765519  57.0916793 121.5990798
  23.3332802  57.5404830 124.7197470  23.9034159  57.9692098 124.0814955
  23.9240914  57.2587415 125.4181656  25.3777607  54.1156501 118.5907272
  26.0801650  54.5677544 119.0581198  25.0458236  53.4740320 119.2187165
  19.1202941  52.3740053 123.8924406  18.3301995  52.6297582 123.4164516
  19.6114188  53.1888391 123.9976446  33.1366751  59.7145293 126.6429686
  33.9584194  59.3125480 126.3612368  33.1329153  59.6113527 127.5945802
  21.0717686  52.7384633 120.8507882  20.2748850  52.8503327 121.3691378
  20.8443279  53.0771285 119.9848773  26.9023354  59.2629336 128.7990397
  26.9667787  59.7249743 129.6348569  26.1934278  58.6326701 128.9272707
  41.2272744  56.0584041 122.9914658  40.4736452  55.4891439 122.8358662
  41.3620285  56.0246706 123.9385293  26.6171372  60.9297443 118.6669377
  26.4817047  61.7748979 119.0954225  27.1581184  61.1316721 117.9035311
  20.0700769  58.4472881 119.2397302  20.5825290  59.2416132 119.3902867
  20.7223482  57.7499172 119.1730904  21.8795654  61.5638638 121.3220055
  22.0562282  62.4856602 121.1341039  22.6752487  61.2497057 121.7514435
  28.2439848  61.5521010 132.7969719  27.8003702  60.7657388 132.4790624
  28.9057062  61.7400160 132.1313610  23.0026969  63.0816811 127.3230398
  23.5534394  62.9533875 126.5507392  22.1638445  63.3811701 126.9725291
  30.3421086  61.8323810 130.8251121  30.3239562  62.6532691 130.3331390
  31.2641006  61.7077885 131.0501262  18.0349686  56.7761536 120.0156873
  18.8724908  57.1858544 119.7990581  18.2127954  55.8360978 119.9857067
  29.9314118  54.4436616 115.7040706  29.4160741  55.2141221 115.9429093
  29.6591426  53.7701753 116.3273767  27.5161229  49.2886317 120.7625944
  26.6602825  48.8993168 120.5831583  27.9288181  49.3678278 119.9025730
  29.0460376  46.8232660 125.1617504  28.5425171  46.7862796 124.3485309
  29.3390983  47.7325403 125.2214161  34.9048392  57.1968971 117.6393879
  34.1277835  56.8580131 117.1949041  35.5839873  57.2021594 116.9648844
  29.7200421  52.3163708 117.5300487  29.4150557  52.6309858 118.3810630
  30.6730863  52.3945128 117.5727820  28.1646853  58.4753932 119.1793441
  27.6368215  57.7406691 118.8666678  27.6634356  59.2528608 118.9333409
  33.1439699  56.6702952 124.2960487  32.4863373  57.3602214 124.3840616
  33.9480098  57.0599384 124.6394474  22.8965581  49.1373598 121.5400052
  23.4709333  48.9148780 120.8073245  23.4836563  49.2062293 122.2928654
  31.9545158  55.0247325 122.3464429  32.4677040  55.6577317 122.8486139
  32.6046382  54.4248520 121.9807789  23.2235168  51.1678059 115.5595938
  22.3872480  51.5052746 115.8805212  23.0839937  51.0327039 114.6223075
  25.1988248  46.0114847 120.2675122  24.5452661  45.6963864 119.6431737
  25.1568722  45.3890587 120.9934945  26.3099453  56.2934142 112.1828414
  25.4026515  56.0623396 112.3819563  26.8070485  55.4971761 112.3702396
  29.2167532  65.0031649 115.1025100  28.5429231  65.3063346 115.7110058
  29.6033354  65.8060730 114.7530557  28.4325989  52.4996781 124.5922770
  27.5148550  52.7211728 124.4344458  28.8486132  52.5743091 123.7334477
  29.2161036  53.8988196 119.7225450  29.9632855  54.4109593 119.4132572
  29.4852626  53.5772249 120.5829843  27.4887687  56.3946737 116.7052404
  26.5798906  56.1105770 116.8024874  27.5182770  56.8145815 115.8455711
  32.7206954  60.0053326 120.4743572  32.2669281  59.1644236 120.5308762
  32.0900921  60.6414725 120.8118352  31.6639874  50.9345312 121.7044239
  30.9262630  50.4222699 122.0354482  31.9166647  50.4945694 120.8927516
  31.1639893  61.8429823 121.4093390  31.4562868  62.4034880 120.6905755
  31.6738514  62.1358384 122.1646549  31.7651501  43.7121564 122.2986008
  32.0710378  42.8518928 122.0111923  32.4904106  44.3039185 122.0985002
  18.0575857  54.1152251 120.6867606  17.8600257  53.5221612 119.9618673
  17.5022521  53.8104461 121.4043545  26.0372581  54.0075358 122.8062199
  26.0921190  53.0549194 122.7304676  25.2263783  54.1634797 123.2903498
  27.1863774  57.9355481 114.0440483  26.7483204  57.2191340 113.5846120
  27.9274215  58.1631595 113.4825574  23.9764941  52.6252417 120.5652578
  23.1632806  52.9246588 120.9717770  24.4723935  52.2308106 121.2827061
  26.1273518  62.6210174 122.4986843  26.0849697  62.8471021 121.5695375
  27.0436217  62.3873549 122.6472644  35.3036889  56.2112678 120.1016801
  35.1654788  56.4014274 119.1737990  34.9473108  56.9732060 120.5584852
  35.3306269  58.2789205 125.1128073  35.7642776  58.1864494 125.9611127
  36.0437850  58.2546705 124.4748089  24.2439319  59.4973203 122.2948806
  25.0379918  59.0023523 122.0931381  23.5331012  58.9691066 121.9316511
  29.0634164  61.8791299 126.6461173  29.1171186  62.4482235 127.4138889
  28.1948945  62.0493184 126.2815210  20.5522083  53.6416285 118.3708558
  19.6219671  53.5800740 118.5878521  20.6479555  53.1192238 117.5745200
  20.4707632  50.1671098 120.9586800  20.7314449  51.0816431 120.8495961
  21.2924804  49.6995540 121.1083413  36.1921818  58.3212905 127.6460958
  36.3857708  59.2258716 127.8920233  36.0922437  57.8620324 128.4799543
  31.2536927  58.4719648 133.2201839  31.1022433  58.2430200 132.3031922
  31.2441607  59.4290249 133.2333184  28.0222263  56.0451561 128.2048105
  28.9514323  56.1962720 128.0317072  27.6013293  56.1335582 127.3496752
  26.8210595  60.0702225 125.9746643  26.6821681  59.7021010 126.8472581
  26.0325191  60.5849865 125.8030601  27.4158747  65.1711322 117.3172179
  27.5910503  64.6999365 118.1317802  26.7291535  65.7977088 117.5453440
  28.3715810  59.4483828 123.3635481  28.0365643  59.4084598 124.2593130
  27.8719756  58.7828544 122.8905891  31.3075002  56.7939862 113.6372540
  30.6904173  56.0686690 113.5405593  30.8391491  57.5549223 113.2939614
  32.9629134  61.5038771 131.2978321  32.9041680  60.8197991 130.6308904
  33.3648652  62.2457761 130.8458947  21.9819833  68.3200684 124.0912039
  22.2216431  68.9519209 124.7691058  21.1389029  67.9688724 124.3777399
  23.0973548  51.0125287 112.7593845  22.2203014  50.8914087 112.3956091
  23.5731301  50.2211365 112.5072733  32.9646541  59.4678355 129.5292300
  32.0773320  59.1304276 129.6518699  33.5345092  58.7361386 129.7661066
  14.6175688  55.8002446 122.8535352  15.3046728  55.4864176 122.2656367
  14.4623817  56.7043811 122.5802603  26.4947694  64.1279807 126.4953543
  26.4217866  64.9334778 127.0072848  26.0525087  64.3271773 125.6701565
  26.2837474  63.3651577 120.0056365  25.5004996  63.9073257 120.0994590
  26.9830219  63.8825557 120.4050606  29.5934124  49.1746206 122.6490570
  30.0902824  48.4216169 122.3291641  28.8221106  49.2110523 122.0833780
  37.4463882  54.8786572 124.2908862  37.4353758  55.7611287 123.9202795
  36.5781261  54.5258123 124.0963399  28.9546378  64.0266641 128.6511702
  29.6674350  64.6614106 128.5787604  28.4636407  64.1230507 127.8351704
  30.6763905  57.9317894 120.2228994  29.7420184  58.0519356 120.0533698
  30.8540573  57.0290360 119.9589004  26.1769093  51.3163589 122.3762255
  25.8066880  50.7634630 123.0643161  26.6728185  50.7121723 121.8237255
  34.0636456  53.7735213 120.7579028  34.5296908  54.6063204 120.6839331
  34.5143957  53.3080194 121.4624286  24.0058291  61.7761084 129.4717273
  24.7067751  62.4097567 129.6246667  23.5353406  62.1175816 128.7112912
  32.1312687  60.1179034 117.7565180  32.4072531  60.0035629 118.6659054
  31.2617186  59.7196519 117.7177353  32.0353119  46.1415800 124.7969929
  31.1216199  46.3720027 124.9652136  32.4646220  46.2254244 125.6483962
  31.8059577  54.3305692 127.2969823  31.1531028  54.5781599 126.6422276
  32.1839957  53.5169830 126.9632301  28.7666751  64.3665385 121.3997994
  28.9489146  63.5487041 121.8625746  29.5899737  64.5833077 120.9622884
  29.1008917  63.2933570 118.6613042  29.6296683  62.7826025 118.0483204
  29.3637136  62.9776100 119.5258575  19.6026010  61.3097439 126.4048376
  20.1879446  60.5641127 126.5376280  19.4050848  61.6201396 127.2885040
  22.4564665  64.3448687 121.4210818  21.7875040  64.8294814 120.9374858
  22.3177534  64.5917907 122.3354197  26.5969933  66.3792430 128.0193476
  27.1488241  66.5424052 128.7842562  26.9376127  66.9696868 127.3473501
  31.4480808  61.2053688 133.8742131  31.9920712  61.8183646 133.3797086
  30.8667652  61.7633266 134.3909144  17.8252242  52.6067142 118.2006750
  18.1205683  51.6977820 118.1473804  16.9240278  52.5854881 117.8787753
  29.7338321  64.3274406 125.0057159  29.6089460  63.5264146 124.4968104
  30.3917412  64.8220599 124.5171129  21.3546489  50.6823138 124.1834299
  20.6333075  51.2959106 124.0441772  22.1439745  51.2180903 124.1050945
  31.7973229  62.1283426 126.6336709  30.8503565  62.0088777 126.5615035
  32.1456002  61.2405924 126.7162970  19.5540083  50.2881239 118.3246075
  19.2252790  49.4078618 118.1421181  19.9079454  50.2328908 119.2122465
  28.8019662  61.9236142 122.8341061  28.6544625  60.9952850 123.0148631
  29.6273156  61.9456233 122.3498136  22.6681907  50.5754209 118.6921553
  23.0077979  51.1040130 117.9700161  23.1154027  50.9134615 119.4680120
  32.4053784  62.7464701 123.9205934  33.3300332  62.5407562 123.7830385
  32.2369087  62.4981102 124.8295275  24.6550054  49.0728831 116.8914846
  25.3758416  49.4510084 116.3878563  24.0315358  49.7917708 116.9949824
  28.7981177  49.7773980 117.8273178  29.0144791  50.6598618 117.5262006
  28.3175244  49.3860193 117.0978820  23.5380398  52.7359693 124.4043923
  23.3924979  53.0499996 125.2968204  23.0605602  53.3544593 123.8514821
  25.3976781  49.7262241 124.4524812  25.3838350  48.8303334 124.1157110
  26.1149209  49.7332905 125.0863098  32.1949100  63.2650368 119.2768025
  32.3685978  62.6996791 118.5241878  32.6877992  64.0651263 119.0947515
  24.8013677  48.6076621 119.7212382  24.9229588  47.6793267 119.9203270
  24.5115719  48.6215307 118.8090698  27.6704867  46.2931532 122.8579102
  27.6926564  46.3570865 121.9031082  28.0872926  45.4536040 123.0519608
  38.0488491  56.0286791 120.8958325  38.4919638  55.2794116 120.4977448
  37.1715002  56.0196928 120.5132057  33.1824273  62.5817133 116.3764923
  33.8775177  63.2023825 116.5952238  33.5247423  61.7312484 116.6517301
  35.0815696  60.0316838 117.9052254  35.6067020  60.3704111 117.1801574
  34.9938048  59.0963854 117.7215389  26.7435745  63.9450912 130.0342131
  27.0522871  63.7000059 130.9064830  27.5411227  64.1497550 129.5461001
  26.7656357  66.0988822 122.2647507  26.3261347  65.6065200 122.9580364
  27.5164474  65.5561789 122.0239583  19.2448696  62.2900362 122.2672135
  20.0706716  61.9904134 121.8870779  18.8942748  61.5207985 122.7161924
  24.2130229  61.6426831 124.3369809  23.5910238  60.9797536 124.0372037
  24.8835096  61.6687963 123.6543457  17.4457301  60.2086689 123.2261069
  16.6089209  59.7808863 123.0445070  17.4180946  60.4019132 124.1631860
  34.7709602  60.6649742 133.2103452  33.9805146  60.6473881 132.6707951
  34.5342957  61.2038036 133.9652489  34.8907477  57.5142208 130.5236181
  34.9405482  57.3492216 131.4651703  34.7821400  56.6469467 130.1334061
  23.7743736  60.1930754 117.8128270  23.9231856  60.8766218 117.1594942
  24.5810179  60.1735844 118.3277725  36.3925674  59.9339150 130.7678202
  36.1010482  60.2969130 131.6041663  35.7797805  59.2206158 130.5891534
  37.5921356  57.4992030 123.2880772  38.4268248  57.9381834 123.4518333
  37.7280485  57.0230683 122.4689018  34.6412862  55.0571764 129.2358260
  35.1166984  55.2499411 128.4277112  33.7178427  55.1130950 128.9901644
  21.5296369  56.2195932 118.8189338  21.2842411  55.3158262 119.0169549
  21.6992283  56.2213082 117.8768816  20.7992016  51.9524289 116.3175500
  20.1061261  52.0268644 115.6615536  20.5543768  51.1884633 116.8397017
  27.2739141  62.6878884 115.2840017  26.7013108  63.3069072 114.8310489
  27.8471935  63.2378246 115.8179939  33.3414531  51.9337525 127.4686566
  34.2931954  52.0335622 127.4898790  33.1717982  51.1415793 127.9784650
  31.3628911  49.0193108 127.6545967  30.7678843  49.2998120 126.9592455
  31.0778607  49.5087009 128.4262708  30.4936401  62.9716035 116.4148599
  31.4267074  62.9061596 116.6181475  30.4059614  63.8072301 115.9563132
  33.1224418  62.2881905 113.3752547  33.0438049  61.9541769 114.2688305
  33.9434085  62.7803673 113.3744019  35.8202609  55.1543644 126.5828865
  35.7878929  54.2159645 126.7688549  36.4303233  55.2327681 125.8494690
  27.6585940  54.0239697 112.6256069  28.6045044  53.8945905 112.6944487
  27.2800185  53.2854359 113.1025498  35.9697097  51.9454688 126.6287149
  35.4536146  51.1613144 126.4417077  36.8537046  51.6173404 126.7933668
  33.6307824  45.6895703 122.5882961  33.4332645  45.3810791 123.4726293
  34.2407530  46.4157342 122.7180891  41.6379159  56.2159651 125.7234902
  42.3682547  55.9544939 126.2842606  41.0286104  55.4788373 125.7636970
  39.7194456  54.3567514 126.3209353  38.9927619  54.2223479 125.7125845
  39.3041743  54.6644342 127.1266071  25.8428857  51.9489674 112.5610955
  24.9360312  51.6522786 112.6373668  26.1204838  51.6519492 111.6945241
  16.7606797  53.2696037 123.0110001  16.4409582  52.4161345 122.7184375
  16.2140225  53.4844615 123.7667968  20.5386705  55.9858478 126.7279508
  20.7572715  56.9175586 126.7467541  20.9512479  55.6266452 127.5134311
  27.4590923  46.4926563 118.7155196  26.6491651  46.1473648 119.0910442
  28.1475340  46.1834107 119.3042808  29.3881471  45.5704610 120.3379493
  29.9412510  45.9900064 120.9969516  29.6251557  44.6440358 120.3802449
  24.6127642  48.8076609 112.7022934  25.4746806  49.1331507 112.9618751
  24.7977986  48.0208105 112.1896000  16.6295057  56.8898948 124.9803123
  15.9358529  56.4752901 124.4673077  17.3768048  56.9319485 124.3836542
  32.7660278  47.6805135 119.8458157  32.1858947  48.3389939 119.4636209
  32.4996211  46.8582480 119.4345574  31.2163844  47.0810193 122.0479477
  31.7163623  47.1926727 121.2393796  31.8599452  46.7771246 122.6880286
  18.5431800  56.8217202 122.8569138  18.5202488  56.9204890 121.9051021
  18.8532436  57.6682353 123.1786304  21.2019178  58.8793357 126.9715752
  22.1562431  58.8477300 126.9045684  21.0031701  58.4183981 127.7865978
  31.5485156  49.8405226 118.9014505  30.6611011  50.1254876 118.6834700
  31.9639145  49.6798989 118.0541782  34.8999692  49.8651747 122.6168844
  35.6760082  50.3548199 122.8893461  34.1747826  50.2909801 123.0740714
  37.3372251  50.5779366 123.6742785  37.9316742  50.3375102 122.9636093
  37.4098834  49.8586496 124.3016321  19.5569406  64.4212977 123.9885950
  19.4223874  63.6613378 123.4223948  19.1401469  65.1453877 123.5214739
  30.6928370  59.6049900 112.9962525  31.3964220  59.8099903 113.6120181
  29.9691018  60.1726662 113.2611609  31.5226180  55.3559762 119.1164795
  31.4661381  55.8128313 118.2772428  32.0754522  54.5950446 118.9387638
  35.3330986  51.1449493 119.9414915  35.0767920  50.7446129 120.7723122
  34.7083854  51.8593287 119.8165054  39.6443324  53.8845567 122.4486206
  39.0842882  53.9538756 123.2217768  39.0386827  53.7086551 121.7285702
  22.7138532  65.3182294 124.2004392  22.5970917  66.2627726 124.0983083
  21.8930979  65.0155855 124.5890192  32.6015067  60.0432430 115.0460985
  33.4360671  59.6113628 114.8638460  32.4399410  59.8714443 115.9737880
  32.2560959  56.5464543 116.4117324  32.2009763  56.3808814 115.4705769
  31.6307014  57.2540576 116.5679514  25.5657085  46.0472652 115.9902643
  25.5535754  46.9914492 116.1470914  26.4580506  45.8642797 115.6962104
  23.7393046  65.9710556 127.4160321  24.6420293  66.0034166 127.7326816
  23.5130417  65.0411007 127.4306657  25.4946649  64.7241542 124.0770400
  24.5442280  64.7243404 123.9634772  25.7979135  63.9774277 123.5606434
  29.3809204  42.6415428 120.2448580  28.6141600  42.0873915 120.3905262
  29.7919909  42.7137297 121.1062731  41.2299342  70.5602081 125.1416162
  41.8677752  70.4408828 124.4379502  41.1120185  71.5082925 125.2004114
  38.0389048  70.5129509 125.0777687  37.7007560  70.3970573 124.1898221
  38.9078816  70.1120674 125.0578693  38.5208831  71.6664360 131.0363892
  38.5097472  71.2717159 130.1644396  38.6829471  70.9330433 131.6297664
  35.2416092  74.4501472 129.9843076  34.9505958  75.3547103 129.8689742
  35.8773077  74.4918000 130.6987146  36.1672299  71.8278321 126.5744436
  36.7635872  71.6034343 125.8601399  36.2247271  71.0863066 127.1769884
  40.7840610  68.2853534 122.2169370  41.5703700  67.8672958 121.8659787
  41.0479315  69.1899627 122.3851018  40.9550688  73.7226385 116.9158027
  40.3196521  73.7961011 117.6278931  40.6248094  74.3119984 116.2377106
  46.1849038  68.2228768 123.1202348  46.9174210  67.6527984 123.3540178
  45.4288393  67.8350368 123.5608854  37.8025157  70.6456009 120.3165691
  37.4383365  70.1186630 121.0278612  38.6592273  70.2554478 120.1432176
  43.7074458  61.9350342 127.5796957  43.3757783  62.8045753 127.3558172
  43.1120071  61.6186626 128.2590987  40.2005977  74.1362888 126.9792870
  39.9006701  75.0387927 126.8708677  39.8557037  73.8695071 127.8314023
  33.6518459  70.5876685 123.0129574  32.7268955  70.4552899 123.2207266
  33.9002872  71.3670904 123.5099517  31.0127270  70.2309958 123.8473363
  31.1419651  70.4844437 124.7612775  30.3324721  70.8237666 123.5278018
  37.6743987  68.0735074 132.6025204  36.8977321  68.6328994 132.5928069
  38.3134550  68.5591857 133.1240074  43.1204931  68.6025040 117.1254040
  44.0322787  68.8352426 116.9501738  42.6114578  69.1862084 116.5629119
  35.9290359  70.8820527 132.1643171  36.6705044  71.4205571 131.8877995
  35.2227345  71.5086816 132.3214723  41.4045699  73.0249667 130.7615333
  41.8129055  72.5832078 130.0169965  40.6822961  72.4502295 131.0149526
  37.7576769  67.9622274 128.1348890  38.6037964  68.3861688 128.2783539
  37.6975407  67.3055898 128.8287453  41.7274514  73.5850858 124.5167622
  41.0983376  73.7496572 123.8143690  41.3400176  73.9992468 125.2878586
  45.6063746  74.5205296 121.8711986  44.9214784  74.9004197 121.3209019
  45.6907595  75.1300622 122.6043933  40.9076214  65.6226642 129.7930063
  40.6637146  66.3768703 129.2564339  41.1836145  66.0011990 130.6277311
  42.8614677  72.1665255 128.4707329  43.0731572  72.8097015 127.7941710
  42.8144425  71.3327571 128.0029259  40.4640906  64.7783076 125.3743901
  39.6025385  65.0764329 125.6660639  40.4903341  64.9953474 124.4424934
  34.1726557  72.8696748 124.7197470  34.7427914  73.2984016 124.0814955
  34.7634668  72.5879332 125.4181656  36.2171362  69.4448418 118.5907272
  36.9195405  69.8969462 119.0581198  35.8851990  68.8032237 119.2187165
  34.6651723  68.0360175 132.9658481  34.0350384  68.7176456 133.1993878
  34.5587811  67.9243257 132.0211620  29.9596696  67.7031971 123.8924406
  29.1695750  67.9589500 123.4164516  30.4507943  68.5180309 123.9976446
  43.9760505  75.0437210 126.6429686  44.7977949  74.6417398 126.3612368
  43.9722908  74.9405444 127.5945802  31.9111441  68.0676550 120.8507882
  31.1142604  68.1795245 121.3691378  31.6837033  68.4063203 119.9848773
  37.7417109  74.5921254 128.7990397  37.8061541  75.0541661 129.6348569
  37.0328032  73.9618618 128.9272707  28.2434399  67.9562462 126.3239396
  28.4942437  68.8409471 126.5896972  28.7793947  67.7767063 125.5514488
  33.9432466  62.3380941 135.3283732  33.5499411  61.7847139 136.0031377
  34.7598606  62.6491519 135.7190250  36.8600427  63.7538820 132.9203989
  37.6010140  64.3545973 132.8408451  37.0918350  63.0116458 132.3622032
  32.0041765  68.9395187 131.1982219  31.8895280  68.0380445 131.4989318
  31.1486283  69.1858884 130.8467035  39.0833603  76.8812928 132.7969719
  38.6397457  76.0949306 132.4790624  39.7450816  77.0692078 132.1313610
  41.1814841  77.1615728 130.8251121  41.1633316  77.9824609 130.3331390
  42.1034761  77.0369803 131.0501262  37.6387895  74.6759857 131.6674629
  38.1716232  73.9148145 131.4373937  37.1101976  74.3833509 132.4098783
  40.8057590  59.7819923 127.1968271  40.4621859  60.6721565 127.1207381
  41.1736552  59.5921581 126.3337856  38.3554984  64.6178235 120.7625944
  37.4996580  64.2285085 120.5831583  38.7681935  64.6970196 119.9025730
  39.8854130  62.1524578 125.1617504  39.3818926  62.1154713 124.3485309
  40.1784737  63.0617321 125.2214161  36.1297016  62.2363308 124.1683686
  36.9950013  62.0406117 123.8089575  36.1974525  62.0073660 125.0953042
  45.7442147  72.5260889 117.6393879  44.9671589  72.1872048 117.1949041
  46.4233628  72.5313512 116.9648844  43.9833454  71.9994870 124.2960487
  43.3257128  72.6894131 124.3840616  44.7873853  72.3891302 124.6394474
  33.7359335  64.4665516 121.5400052  34.3103087  64.2440697 120.8073245
  34.3230318  64.5354210 122.2928654  42.7938912  70.3539243 122.3464429
  43.3070794  70.9869234 122.8486139  43.4440136  69.7540438 121.9807789
  34.0628922  66.4969977 115.5595938  33.2266234  66.8344663 115.8805212
  33.9233692  66.3618957 114.6223075  36.0382003  61.3406765 120.2675122
  35.3846415  61.0255782 119.6431737  35.9962477  60.7182505 120.9934945
  39.2719743  67.8288698 124.5922770  38.3542305  68.0503645 124.4344458
  39.6879887  67.9035009 123.7334477  40.0554791  69.2280114 119.7225450
  40.8026610  69.7401511 119.4132572  40.3246381  68.9064167 120.5829843
  43.5600709  75.3345244 120.4743572  43.1063036  74.4936154 120.5308762
  42.9294675  75.9706642 120.8118352  42.5033628  66.2637230 121.7044239
  41.7656385  65.7514616 122.0354482  42.7560402  65.8237612 120.8927516
  42.0033648  77.1721741 121.4093390  42.2956622  77.7326798 120.6905755
  42.5132268  77.4650302 122.1646549  28.8969612  69.4444169 120.6867606
  28.6994011  68.8513529 119.9618673  28.3416276  69.1396379 121.4043545
  36.8766335  69.3367275 122.8062199  36.9314945  68.3841112 122.7304676
  36.0657537  69.4926714 123.2903498  34.8158695  67.9544335 120.5652578
  34.0026561  68.2538506 120.9717770  35.3117689  67.5600024 121.2827061
  40.4132907  68.4186159 129.3967472  40.7682295  68.6457633 130.2561938
  41.0605038  68.7504536 128.7744727  34.3072770  65.5262690 126.1813813
  34.9472149  65.3851450 125.4836777  33.4750300  65.2397204 125.8052415
  46.1700023  73.6081122 125.1128073  46.6036530  73.5156411 125.9611127
  46.8831604  73.5838623 124.4748089  39.9027918  77.2083216 126.6461173
  39.9564941  77.7774153 127.4138889  39.0342700  77.3785101 126.2815210
  31.3915837  68.9708203 118.3708558  30.4613425  68.9092658 118.5878521
  31.4873309  68.4484155 117.5745200  31.3101386  65.4963015 120.9586800
  31.5708204  66.4108349 120.8495961  32.1318559  65.0287458 121.1083413
  32.7826312  66.9100773 128.1285625  33.4549365  66.7018135 127.4798273
  31.9556098  66.7122859 127.6890857  47.0315573  73.6504823 127.6460958
  47.2251463  74.5550633 127.8920233  46.9316191  73.1912242 128.4799543
  38.6851884  63.5362714 130.1451285  38.0379799  64.2352663 130.0515762
  39.4552899  63.9698857 130.5127534  42.0930682  73.8011566 133.2201839
  41.9416188  73.5722117 132.3031922  42.0835361  74.7582167 133.2333184
  38.8616018  71.3743478 128.2048105  39.7908078  71.5254638 128.0317072
  38.4407048  71.4627499 127.3496752  37.6604350  75.3994143 125.9746643
  37.5215435  75.0312927 126.8472581  36.8718946  75.9141782 125.8030601
  39.2109565  74.7775746 123.3635481  38.8759398  74.7376516 124.2593130
  38.7113511  74.1120461 122.8905891  33.1853809  70.1843376 128.8888062
  33.0473607  69.4523614 129.4899601  34.0958732  70.0952276 128.6072249
  42.1468757  72.1231780 113.6372540  41.5297927  71.3978608 113.5405593
  41.6785245  72.8841140 113.2939614  35.8136110  69.8963335 128.3771741
  36.5235728  69.2556527 128.3358360  35.7705418  70.1476230 129.2997922
  43.8022888  76.8330688 131.2978321  43.7435434  76.1489908 130.6308904
  44.2042407  77.5749678 130.8458947  34.5265044  66.8828553 130.1967381
  33.9902401  66.4319291 130.8488977  33.9381752  67.0174462 129.4537845
  33.9367302  66.3417204 112.7593845  33.0596769  66.2206005 112.3956091
  34.4125056  65.5503283 112.5072733  43.8040295  74.7970272 129.5292300
  42.9167074  74.4596194 129.6518699  44.3738847  74.0653303 129.7661066
  25.4569443  71.1294364 122.8535352  26.1440482  70.8156094 122.2656367
  25.3017571  72.0335729 122.5802603  30.2604165  66.0184561 127.2820375
  30.1762353  65.4110230 126.5470785  29.4386871  66.5093579 127.2829872
  39.7940132  79.3558559 128.6511702  40.5068105  79.9906023 128.5787604
  39.3030161  79.4522425 127.8351704  41.5157659  73.2609811 120.2228994
  40.5813938  73.3811274 120.0533698  41.6934328  72.3582278 119.9589004
  37.0162847  66.6455507 122.3762255  36.6460635  66.0926547 123.0643161
  37.5121940  66.0413641 121.8237255  44.9030211  69.1027131 120.7579028
  45.3690663  69.9355122 120.6839331  45.3537711  68.6372112 121.4624286
  34.8452046  77.1053002 129.4717273  35.5461505  77.7389485 129.6246667
  34.3747161  77.4467734 128.7112912  42.9706442  75.4470952 117.7565180
  43.2466286  75.3327546 118.6659054  42.1010940  75.0488437 117.7177353
  42.6453332  69.6597609 127.2969823  41.9924782  69.9073517 126.6422276
  43.0233712  68.8461748 126.9632301  38.6940905  70.4017421 133.7835860
  38.0181542  70.3011550 134.4538236  39.5168539  70.2456634 134.2471858
  30.4419764  76.6389357 126.4048376  31.0273201  75.8933045 126.5376280
  30.2444602  76.9493314 127.2885040  25.0337419  69.2094957 125.1252819
  25.0721518  68.6758548 125.9189937  24.5277712  68.6830163 124.5063796
  37.4363688  81.7084348 128.0193476  37.9881996  81.8715970 128.7842562
  37.7769881  82.2988786 127.3473501  32.4128181  64.0559498 128.6215361
  32.4769508  64.9174329 128.2092759  32.3495301  63.4433499 127.8887720
  31.8880454  66.1282630 132.2688395  32.5152492  65.7459708 132.8825920
  31.0308372  65.9096832 132.6344088  42.2874562  76.5345606 133.8742131
  42.8314466  77.1475564 133.3797086  41.7061407  77.0925184 134.3909144
  28.6645996  67.9359059 118.2006750  28.9599437  67.0269738 118.1473804
  27.7634032  67.9146799 117.8787753  40.5732075  79.6566324 125.0057159
  40.4483215  78.8556063 124.4968104  41.2311166  80.1512517 124.5171129
  32.1940243  66.0115056 124.1834299  31.4726829  66.6251024 124.0441772
  32.9833499  66.5472821 124.1050945  42.6366983  77.4575344 126.6336709
  41.6897319  77.3380695 126.5615035  42.9849757  76.5697842 126.7162970
  34.9966557  63.3469483 130.4574951  35.5200959  63.5931779 131.2201260
  34.7778890  64.1789517 130.0378088  30.3933838  65.6173157 118.3246075
  30.0646544  64.7370536 118.1421181  30.7473209  65.5620826 119.2122465
  39.6413417  77.2528060 122.8341061  39.4938379  76.3244767 123.0148631
  40.4666910  77.2748151 122.3498136  33.5075661  65.9046127 118.6921553
  33.8471734  66.4332048 117.9700161  33.9547782  66.2426533 119.4680120
  43.2447539  78.0756619 123.9205934  44.1694086  77.8699480 123.7830385
  43.0762842  77.8273020 124.8295275  36.2019102  64.2883178 128.1424621
  35.8615922  63.4890991 128.5445301  35.4958108  64.5884888 127.5701454
  36.8535574  61.3732490 126.5951944  37.6761643  60.8992968 126.4730834
  37.0973637  62.1522974 127.0950630  35.4943808  64.4020749 116.8914846
  36.2152171  64.7802001 116.3878563  34.8709112  65.1209625 116.9949824
  39.6374931  65.1065897 117.8273178  39.8538545  65.9890535 117.5262006
  39.1568998  64.7152111 117.0978820  34.3774152  68.0651611 124.4043923
  34.2318733  68.3791914 125.2968204  33.8999356  68.6836511 123.8514821
  36.2370535  65.0554159 124.4524812  36.2232104  64.1595252 124.1157110
  36.9542963  65.0624822 125.0863098  38.0896666  65.4891499 126.4977940
  37.8314444  66.4108570 126.4962270  37.5581706  65.0921933 127.1878404
  43.0342855  78.5942286 119.2768025  43.2079732  78.0288708 118.5241878
  43.5271746  79.3943181 119.0947515  28.8519815  70.6056955 127.3431584
  28.3073283  71.3816763 127.4751858  29.7299164  70.9527760 127.1850705
  35.6407431  63.9368539 119.7212382  35.7623342  63.0085185 119.9203270
  35.3509474  63.9507225 118.8090698  38.5098622  61.6223449 122.8579102
  38.5320318  61.6862782 121.9031082  38.9266681  60.7827958 123.0519608
  44.0218027  77.9109050 116.3764923  44.7168932  78.5315743 116.5952238
  44.3641177  77.0604402 116.6517301  29.6385836  69.7326851 130.2361741
  28.8967573  69.8809487 130.8226371  29.3178581  69.9935117 129.3728490
  45.9209450  75.3608756 117.9052254  46.4460775  75.6996029 117.1801574
  45.8331803  74.4255771 117.7215389  37.5829499  79.2742830 130.0342131
  37.8916626  79.0291976 130.9064830  38.3804981  79.4789468 129.5461001
  28.2851055  75.5378607 123.2261069  27.4482964  75.1100781 123.0445070
  28.2574701  75.7311050 124.1631860  35.1248511  65.4500536 133.9302315
  35.1736666  66.3262659 133.5480085  35.6671025  64.9077929 133.3573958
  45.6103356  75.9941660 133.2103452  44.8198900  75.9765798 132.6707951
  45.3736711  76.5329953 133.9652489  45.7301232  72.8434126 130.5236181
  45.7799236  72.6784133 131.4651703  45.6215155  71.9761385 130.1334061
  43.0204994  68.8265054 131.8395487  43.9214857  68.6871519 131.5479485
  43.0952968  68.9919509 132.7793665  37.3547799  66.2031909 130.6848674
  36.4851109  66.4965475 130.4131262  37.5907280  66.7872354 131.4055937
  47.2319428  75.2631067 130.7678202  46.9404237  75.6261048 131.6041663
  46.6191560  74.5498076 130.5891534  48.4315111  72.8283947 123.2880772
  49.2662002  73.2673751 123.4518333  48.5674239  72.3522600 122.4689018
  45.4806617  70.3863682 129.2358260  45.9560738  70.5791328 128.4277112
  44.5572182  70.4422868 128.9901644  40.0586833  62.4211526 128.2014094
  40.5768777  63.1572553 127.8760583  39.7041966  62.7275519 129.0360853
  31.6385771  67.2816207 116.3175500  30.9455016  67.3560562 115.6615536
  31.3937523  66.5176551 116.8397017  44.1808286  67.2629442 127.4686566
  45.1325708  67.3627540 127.4898790  44.0111736  66.4707711 127.9784650
  42.2022665  64.3485025 127.6545967  41.6072597  64.6290038 126.9592455
  41.9172362  64.8378926 128.4262708  46.6596363  70.4835562 126.5828865
  46.6272683  69.5451563 126.7688549  47.2696987  70.5619599 125.8494690
  46.8090852  67.2746605 126.6287149  46.2929901  66.4905062 126.4417077
  47.6930800  66.9465322 126.7933668  52.4772913  71.5451569 125.7234902
  53.2076302  71.2836857 126.2842606  51.8679859  70.8080291 125.7636970
  50.5588210  69.6859431 126.3209353  49.8321374  69.5515396 125.7125845
  50.1435497  69.9936260 127.1266071  38.3818387  73.4049361 134.0856726
  39.3021396  73.5827960 134.2796773  38.3467970  72.4605406 133.9336426
  36.6822611  67.2781591 112.5610955  35.7754067  66.9814704 112.6373668
  36.9598592  66.9811409 111.6945241  27.6000552  68.5987955 123.0110001
  27.2803336  67.7453263 122.7184375  27.0533980  68.8136533 123.7667968
  31.3780459  71.3150396 126.7279508  31.5966469  72.2467503 126.7467541
  31.7906233  70.9558370 127.5134311  38.2984677  61.8218481 118.7155196
  37.4885405  61.4765566 119.0910442  38.9869094  61.5126025 119.3042808
  36.2508325  66.8883601 136.1182257  36.1505052  67.8377958 136.0494348
  36.0329867  66.5601840 135.2458327  35.4521396  64.1368526 112.7022934
  36.3140560  64.4623425 112.9618751  35.6371740  63.3500022 112.1896000
  27.4688812  72.2190866 124.9803123  26.7752283  71.8044819 124.4673077
  28.2161803  72.2611403 124.3836542  36.1139595  70.3180740 134.9347318
  35.6306676  71.1181100 135.1411207  36.2000534  70.3288685 133.9814762
  29.3825554  72.1509120 122.8569138  29.3596242  72.2496807 121.9051021
  29.6926191  72.9974271 123.1786304  32.0412932  74.2085275 126.9715752
  32.9956186  74.1769217 126.9045684  31.8425456  73.7475899 127.7865978
  32.6312314  72.7786391 129.5386550  33.4505203  73.2730470 129.5621387
  32.9049122  71.8618359 129.5104117  42.3878911  65.1697143 118.9014505
  41.5004766  65.4546794 118.6834700  42.8032900  65.0090907 118.0541782
  42.3619934  70.6851679 119.1164795  42.3055136  71.1420231 118.2772428
  42.9148277  69.9242364 118.9387638  43.0954714  71.8756460 116.4117324
  43.0403517  71.7100732 115.4705769  42.4700769  72.5832493 116.5679514
  27.8847229  67.1124525 130.2378747  28.5306092  66.6023479 130.7265972
  27.6764380  67.8493207 130.8122172  40.4100621  74.1805372 135.7370887
  41.2791780  74.3546025 135.3757522  39.9307372  74.9999789 135.6146617
  36.4050839  61.3764569 115.9902643  36.3929509  62.3206409 116.1470914
  37.2974261  61.1934715 115.6962104  40.2202958  57.9707346 120.2448580
  39.4535354  57.4165833 120.3905262  40.6313663  58.0429215 121.1062731
  32.2244720  64.2592142 134.3353761  33.0876181  63.9028947 134.5457085
  31.6510130  63.9206037 135.0229165  52.0693096  85.8893998 125.1416162
  52.7071506  85.7700746 124.4379502  51.9513939  86.8374842 125.2004114
  48.8782803  85.8421426 125.0777687  48.5401314  85.7262491 124.1898221
  49.7472571  85.4412591 125.0578693  44.7369618  87.6956903 121.0674578
  44.1734484  87.6046840 120.2990865  44.6222014  86.8756807 121.5477070
  49.3602586  86.9956278 131.0363892  49.3491227  86.6009076 130.1644396
  49.5223225  86.2622351 131.6297664  42.2834050  89.1908094 123.9058798
  43.0755342  88.8498919 123.4905097  42.5230701  89.3003069 124.8260951
  50.3169177  91.3627871 116.3789042  49.6657157  91.9481951 115.9923056
  51.1113540  91.8934065 116.4384080  44.2424804  88.4517008 116.7776177
  45.0155680  87.9045995 116.6389053  44.5950203  89.3161257 116.9890638
  46.0809847  89.7793390 129.9843076  45.7899713  90.6839021 129.8689742
  46.7166831  89.8209918 130.6987146  47.0066054  87.1570238 126.5744436
  47.6029626  86.9326261 125.8601399  47.0641025  86.4154984 127.1769884
  46.5791082  84.6109674 114.4094627  46.8316603  84.0891195 113.6478090
  45.6415641  84.4475819 114.5121310  51.6234365  83.6145452 122.2169370
  52.4097454  83.1964875 121.8659787  51.8873069  84.5191544 122.3851018
  51.7944442  89.0518302 116.9158027  51.1590275  89.1252929 117.6278931
  51.4641849  89.6411901 116.2377106  57.0242792  83.5520685 123.1202348
  57.7567964  82.9819902 123.3540178  56.2682148  83.1642286 123.5608854
  46.2987371  86.5137780 116.6119002  46.1823629  85.8382683 117.2800086
  46.4089631  86.0270154 115.7951155  48.6418912  85.9747927 120.3165691
  48.2777119  85.4478548 121.0278612  49.4986028  85.5846396 120.1432176
  54.5468212  77.2642259 127.5796957  54.2151537  78.1337670 127.3558172
  53.9513826  76.9478543 128.2590987  48.2824399  81.0037827 115.3127039
  48.4498801  81.8718063 115.6797510  48.0921568  81.1665108 114.3888329
  51.0399732  89.4654805 126.9792870  50.7400455  90.3679844 126.8708677
  50.6950792  89.1986989 127.8314023  44.4912213  85.9168602 123.0129574
  43.5662710  85.7844816 123.2207266  44.7396627  86.6962822 123.5099517
  54.4396876  81.9837346 124.6590307  53.5313753  81.9152754 124.3649068
  54.3884472  82.4609291 125.4872133  48.2613620  83.4595484 116.2973706
  48.1413245  83.9052535 117.1359187  47.5666208  83.8080802 115.7387244
  41.8521025  85.5601876 123.8473363  41.9813406  85.8136355 124.7612775
  41.1718476  86.1529584 123.5278018  46.0220512  96.2299126 119.9463837
  45.9444541  97.1806951 120.0252318  45.4182155  95.8844998 120.6038764
  48.5137742  83.4026991 132.6025204  47.7371076  83.9620911 132.5928069
  49.1528305  83.8883774 133.1240074  56.3058522  80.1853784 126.4368181
  55.6632902  80.4786317 125.7907976  55.8013451  80.0706704 127.2421378
  53.9598686  83.9316957 117.1254040  54.8716542  84.1644344 116.9501738
  53.4508333  84.5154001 116.5629119  46.7684114  86.2112445 132.1643171
  47.5098798  86.7497489 131.8877995  46.0621099  86.8378733 132.3214723
  52.2439454  88.3541585 130.7615333  52.6522810  87.9123996 130.0169965
  51.5216715  87.7794213 131.0149526  48.5970524  83.2914192 128.1348890
  49.4431719  83.7153605 128.2783539  48.5369161  82.6347816 128.8287453
  52.5668268  88.9142776 124.5167622  51.9377131  89.0788490 123.8143690
  52.1793930  89.3284385 125.2878586  56.4457500  89.8497214 121.8711986
  55.7608538  90.2296115 121.3209019  56.5301349  90.4592540 122.6043933
  51.7469969  80.9518560 129.7930063  51.5030901  81.7060621 129.2564339
  52.0229899  81.3303908 130.6277311  53.7008432  87.4957173 128.4707329
  53.9125327  88.1388932 127.7941710  53.6538180  86.6619489 128.0029259
  51.3034661  80.1074993 125.3743901  50.4419140  80.4056247 125.6660639
  51.3297095  80.3245392 124.4424934  48.1196230  88.6517184 121.7817707
  48.5834576  88.9304887 120.9922329  47.8553028  87.7500628 121.5990798
  45.0120311  88.1988665 124.7197470  45.5821668  88.6275934 124.0814955
  45.6028423  87.9171250 125.4181656  47.0565116  84.7740336 118.5907272
  47.7589159  85.2261380 119.0581198  46.7245745  84.1324155 119.2187165
  45.5045478  83.3652093 132.9658481  44.8744138  84.0468374 133.1993878
  45.3981565  83.2535174 132.0211620  40.7990450  83.0323889 123.8924406
  40.0089504  83.2881417 123.4164516  41.2901697  83.8472227 123.9976446
  54.8154260  90.3729128 126.6429686  55.6371703  89.9709315 126.3612368
  54.8116662  90.2697362 127.5945802  42.7505195  83.3968468 120.8507882
  41.9536359  83.5087162 121.3691378  42.5230788  83.7355120 119.9848773
  48.5810863  89.9213171 128.7990397  48.6455296  90.3833578 129.6348569
  47.8721787  89.2910536 128.9272707  39.0828153  83.2854379 126.3239396
  39.3336191  84.1701389 126.5896972  39.6187701  83.1058981 125.5514488
  62.9060253  86.7167876 122.9914658  62.1523961  86.1475275 122.8358662
  63.0407794  86.6830541 123.9385293  48.2958881  91.5881279 118.6669377
  48.1604555  92.4332814 119.0954225  48.8368693  91.7900556 117.9035311
  44.7826220  77.6672859 135.3283732  44.3893166  77.1139057 136.0031377
  45.5992361  77.9783437 135.7190250  41.7488278  89.1056717 119.2397302
  42.2612799  89.8999967 119.3902867  42.4010991  88.4083007 119.1730904
  43.5583163  92.2222473 121.3220055  43.7349791  93.1440438 121.1341039
  44.3539996  91.9080892 121.7514435  47.6994181  79.0830738 132.9203989
  48.4403895  79.6837891 132.8408451  47.9312104  78.3408375 132.3622032
  42.8435519  84.2687105 131.1982219  42.7289034  83.3672362 131.4989318
  41.9880037  84.5150802 130.8467035  49.9227357  92.2104845 132.7969719
  49.4791211  91.4241224 132.4790624  50.5844571  92.3983996 132.1313610
  44.6814478  93.7400647 127.3230398  45.2321903  93.6117710 126.5507392
  43.8425954  94.0395536 126.9725291  52.0208595  92.4907645 130.8251121
  52.0027070  93.3116526 130.3331390  52.9428515  92.3661720 131.0501262
  48.4781649  90.0051775 131.6674629  49.0109986  89.2440063 131.4373937
  47.9495730  89.7125426 132.4098783  51.6451344  75.1111841 127.1968271
  51.3015614  76.0013482 127.1207381  52.0130307  74.9213498 126.3337856
  39.7137195  87.4345371 120.0156873  40.5512417  87.8442379 119.7990581
  39.8915463  86.4944813 119.9857067  51.6101627  85.1020452 115.7040706
  51.0948250  85.8725056 115.9429093  51.3378935  84.4285588 116.3273767
  49.1948738  79.9470153 120.7625944  48.3390334  79.5577003 120.5831583
  49.6075690  80.0262113 119.9025730  50.7247885  77.4816496 125.1617504
  50.2212680  77.4446631 124.3485309  51.0178492  78.3909238 125.2214161
  46.9690771  77.5655226 124.1683686  47.8343767  77.3698034 123.8089575
  47.0368279  77.3365577 125.0953042  56.5835901  87.8552806 117.6393879
  55.8065344  87.5163966 117.1949041  57.2627382  87.8605430 116.9648844
  51.3987930  82.9747544 117.5300487  51.0938066  83.2893693 118.3810630
  52.3518372  83.0528964 117.5727820  49.8434362  89.1337767 119.1793441
  49.3155724  88.3990527 118.8666678  49.3421865  89.9112443 118.9333409
  54.8227208  87.3286788 124.2960487  54.1650882  88.0186049 124.3840616
  55.6267607  87.7183220 124.6394474  44.5753090  79.7957433 121.5400052
  45.1496842  79.5732615 120.8073245  45.1624072  79.8646128 122.2928654
  53.6332667  85.6831160 122.3464429  54.1464549  86.3161152 122.8486139
  54.2833891  85.0832356 121.9807789  44.9022677  81.8261894 115.5595938
  44.0659989  82.1636581 115.8805212  44.7627446  81.6910874 114.6223075
  46.8775757  76.6698682 120.2675122  46.2240170  76.3547700 119.6431737
  46.8356231  76.0474423 120.9934945  50.8955041  95.6615485 115.1025100
  50.2216740  95.9647181 115.7110058  51.2820863  96.4644565 114.7530557
  50.1113498  83.1580616 124.5922770  49.1936059  83.3795563 124.4344458
  50.5273641  83.2326926 123.7334477  50.8948545  84.5572032 119.7225450
  51.6420364  85.0693429 119.4132572  51.1640135  84.2356084 120.5829843
  49.1675196  87.0530572 116.7052404  48.2586415  86.7689605 116.8024874
  49.1970279  87.4729651 115.8455711  54.3994463  90.6637162 120.4743572
  53.9456790  89.8228072 120.5308762  53.7688430  91.2998560 120.8118352
  53.3427383  81.5929148 121.7044239  52.6050139  81.0806534 122.0354482
  53.5954156  81.1529529 120.8927516  52.8427402  92.5013658 121.4093390
  53.1350377  93.0618716 120.6905755  53.3526023  92.7942219 122.1646549
  53.4439010  74.3705400 122.2986008  53.7497887  73.5102763 122.0111923
  54.1691615  74.9623020 122.0985002  39.7363366  84.7736086 120.6867606
  39.5387766  84.1805447 119.9618673  39.1810030  84.4688297 121.4043545
  47.7160090  84.6659193 122.8062199  47.7708699  83.7133029 122.7304676
  46.9051292  84.8218632 123.2903498  48.8651283  88.5939316 114.0440483
  48.4270713  87.8775175 113.5846120  49.6061724  88.8215431 113.4825574
  45.6552450  83.2836253 120.5652578  44.8420315  83.5830423 120.9717770
  46.1511444  82.8891941 121.2827061  47.8061027  93.2794010 122.4986843
  47.7637206  93.5054856 121.5695375  48.7223726  93.0457384 122.6472644
  51.2526661  83.7478077 129.3967472  51.6076049  83.9749550 130.2561938
  51.8998792  84.0796454 128.7744727  56.9824398  86.8696513 120.1016801
  56.8442297  87.0598109 119.1737990  56.6260617  87.6315896 120.5584852
  45.1466524  80.8554608 126.1813813  45.7865904  80.7143367 125.4836777
  44.3144055  80.5689122 125.8052415  57.0093778  88.9373040 125.1128073
  57.4430284  88.8448329 125.9611127  57.7225359  88.9130540 124.4748089
  45.9226828  90.1557039 122.2948806  46.7167427  89.6607359 122.0931381
  45.2118521  89.6274902 121.9316511  50.7421673  92.5375134 126.6461173
  50.7958695  93.1066070 127.4138889  49.8736454  92.7077019 126.2815210
  42.2309592  84.3000120 118.3708558  41.3007180  84.2384576 118.5878521
  42.3267064  83.7776073 117.5745200  42.1495141  80.8254933 120.9586800
  42.4101958  81.7400266 120.8495961  42.9712313  80.3579376 121.1083413
  43.6220066  82.2392690 128.1285625  44.2943120  82.0310052 127.4798273
  42.7949853  82.0414776 127.6890857  57.8709327  88.9796741 127.6460958
  58.0645217  89.8842551 127.8920233  57.7709946  88.5204160 128.4799543
  49.5245638  78.8654631 130.1451285  48.8773553  79.5644581 130.0515762
  50.2946654  79.2990775 130.5127534  52.9324436  89.1303483 133.2201839
  52.7809942  88.9014035 132.3031922  52.9229116  90.0874085 133.2333184
  49.7009772  86.7035396 128.2048105  50.6301832  86.8546556 128.0317072
  49.2800802  86.7919417 127.3496752  48.4998104  90.7286061 125.9746643
  48.3609190  90.3604845 126.8472581  47.7112700  91.2433700 125.8030601
  49.0946256  95.8295157 117.3172179  49.2698012  95.3583200 118.1317802
  48.4079044  96.4560923 117.5453440  50.0503319  90.1067663 123.3635481
  49.7153152  90.0668433 124.2593130  49.5507265  89.4412379 122.8905891
  44.0247563  85.5135293 128.8888062  43.8867361  84.7815532 129.4899601
  44.9352487  85.4244193 128.6072249  52.9862511  87.4523698 113.6372540
  52.3691682  86.7270526 113.5405593  52.5179000  88.2133058 113.2939614
  46.6529864  85.2255253 128.3771741  47.3629483  84.5848445 128.3358360
  46.6099172  85.4768147 129.2997922  54.6416643  92.1622606 131.2978321
  54.5829189  91.4781826 130.6308904  55.0436161  92.9041596 130.8458947
  45.3658798  82.2120470 130.1967381  44.8296155  81.7611209 130.8488977
  44.7775506  82.3466379 129.4537845  43.6607342  98.9784520 124.0912039
  43.9003940  99.6103044 124.7691058  42.8176538  98.6272560 124.3777399
  54.6434050  90.1262190 129.5292300  53.7560829  89.7888112 129.6518699
  55.2132601  89.3945221 129.7661066  36.2963197  86.4586282 122.8535352
  36.9834237  86.1448012 122.2656367  36.1411326  87.3627646 122.5802603
  41.0997919  81.3476478 127.2820375  41.0156108  80.7402148 126.5470785
  40.2780626  81.8385496 127.2829872  48.1735203  94.7863642 126.4953543
  48.1005375  95.5918614 127.0072848  47.7312596  94.9855608 125.6701565
  47.9624983  94.0235412 120.0056365  47.1792505  94.5657092 120.0994590
  48.6617728  94.5409392 120.4050606  51.2721633  79.8330042 122.6490570
  51.7690333  79.0800004 122.3291641  50.5008615  79.8694358 122.0833780
  59.1251391  85.5370407 124.2908862  59.1141267  86.4195123 123.9202795
  58.2568770  85.1841958 124.0963399  50.6333887  94.6850476 128.6511702
  51.3461859  95.3197941 128.5787604  50.1423916  94.7814342 127.8351704
  52.3551414  88.5901729 120.2228994  51.4207693  88.7103191 120.0533698
  52.5328082  87.6874196 119.9589004  47.8556602  81.9747425 122.3762255
  47.4854389  81.4218465 123.0643161  48.3515694  81.3705558 121.8237255
  55.7423965  84.4319048 120.7579028  56.2084417  85.2647040 120.6839331
  56.1931466  83.9664030 121.4624286  45.6845800  92.4344920 129.4717273
  46.3855260  93.0681403 129.6246667  45.2140915  92.7759651 128.7112912
  53.8100196  90.7762870 117.7565180  54.0860040  90.6619464 118.6659054
  52.9404695  90.3780354 117.7177353  53.7140628  76.7999635 124.7969929
  52.8003708  77.0303862 124.9652136  54.1433729  76.8838079 125.6483962
  53.4847086  84.9889527 127.2969823  52.8318537  85.2365435 126.6422276
  53.8627466  84.1753665 126.9632301  50.4454260  95.0249220 121.3997994
  50.6276655  94.2070876 121.8625746  51.2687246  95.2416913 120.9622884
  50.7796426  93.9517405 118.6613042  51.3084192  93.4409860 118.0483204
  51.0424645  93.6359936 119.5258575  49.5334659  85.7309338 133.7835860
  48.8575296  85.6303468 134.4538236  50.3562293  85.5748552 134.2471858
  41.2813518  91.9681275 126.4048376  41.8666955  91.2224963 126.5376280
  41.0838357  92.2785231 127.2885040  44.1352174  95.0032522 121.4210818
  43.4662549  95.4878650 120.9374858  43.9965043  95.2501743 122.3354197
  35.8731173  84.5386875 125.1252819  35.9115273  84.0050466 125.9189937
  35.3671466  84.0122080 124.5063796  48.2757442  97.0376266 128.0193476
  48.8275750  97.2007887 128.7842562  48.6163636  97.6280704 127.3473501
  43.2521936  79.3851415 128.6215361  43.3163262  80.2466246 128.2092759
  43.1889056  78.7725417 127.8887720  42.7274208  81.4574548 132.2688395
  43.3546247  81.0751625 132.8825920  41.8702127  81.2388750 132.6344088
  53.1268317  91.8637523 133.8742131  53.6708221  92.4767481 133.3797086
  52.5455161  92.4217102 134.3909144  39.5039751  83.2650977 118.2006750
  39.7993192  82.3561656 118.1473804  38.6027787  83.2438717 117.8787753
  51.4125830  94.9858241 125.0057159  51.2876969  94.1847981 124.4968104
  52.0704921  95.4804435 124.5171129  43.0333998  81.3406974 124.1834299
  42.3120584  81.9542941 124.0441772  43.8227254  81.8764739 124.1050945
  53.4760738  92.7867261 126.6336709  52.5291073  92.6672612 126.5615035
  53.8243511  91.8989759 126.7162970  45.8360311  78.6761400 130.4574951
  46.3594713  78.9223697 131.2201260  45.6172645  79.5081435 130.0378088
  41.2327592  80.9465075 118.3246075  40.9040299  80.0662454 118.1421181
  41.5866963  80.8912743 119.2122465  50.4807171  92.5819978 122.8341061
  50.3332134  91.6536685 123.0148631  51.3060665  92.6040068 122.3498136
  44.3469416  81.2338045 118.6921553  44.6865488  81.7623966 117.9700161
  44.7941536  81.5718451 119.4680120  54.0841293  93.4048536 123.9205934
  55.0087841  93.1991398 123.7830385  53.9156596  93.1564937 124.8295275
  47.0412856  79.6175095 128.1424621  46.7009677  78.8182908 128.5445301
  46.3351863  79.9176806 127.5701454  47.6929328  76.7024408 126.5951944
  48.5155398  76.2284886 126.4730834  47.9367392  77.4814891 127.0950630
  46.3337563  79.7312666 116.8914846  47.0545925  80.1093919 116.3878563
  45.7102867  80.4501543 116.9949824  50.4768686  80.4357815 117.8273178
  50.6932300  81.3182453 117.5262006  49.9962753  80.0444029 117.0978820
  45.2167907  83.3943528 124.4043923  45.0712488  83.7083831 125.2968204
  44.7393111  84.0128429 123.8514821  47.0764290  80.3846076 124.4524812
  47.0625859  79.4887170 124.1157110  47.7936718  80.3916740 125.0863098
  48.9290421  80.8183417 126.4977940  48.6708198  81.7400487 126.4962270
  48.3975461  80.4213851 127.1878404  53.8736609  93.9234204 119.2768025
  54.0473487  93.3580626 118.5241878  54.3665501  94.7235099 119.0947515
  39.6913569  85.9348873 127.3431584  39.1467037  86.7108681 127.4751858
  40.5692919  86.2819677 127.1850705  46.4801186  79.2660457 119.7212382
  46.6017097  78.3377103 119.9203270  46.1903228  79.2799143 118.8090698
  49.3492376  76.9515367 122.8579102  49.3714073  77.0154700 121.9031082
  49.7660435  76.1119876 123.0519608  59.7276000  86.6870627 120.8958325
  60.1707147  85.9377952 120.4977448  58.8502511  86.6780763 120.5132057
  54.8611782  93.2400968 116.3764923  55.5562686  93.8607661 116.5952238
  55.2034932  92.3896319 116.6517301  40.4779591  85.0618769 130.2361741
  39.7361327  85.2101404 130.8226371  40.1572335  85.3227035 129.3728490
  56.7603205  90.6900674 117.9052254  57.2854529  91.0287946 117.1801574
  56.6725557  89.7547689 117.7215389  48.4223254  94.6034747 130.0342131
  48.7310380  94.3583894 130.9064830  49.2198736  94.8081386 129.5461001
  48.4443866  96.7572657 122.2647507  48.0048856  96.2649036 122.9580364
  49.1951983  96.2145625 122.0239583  40.9236205  92.9484198 122.2672135
  41.7494225  92.6487970 121.8870779  40.5730257  92.1791820 122.7161924
  45.8917738  92.3010666 124.3369809  45.2697747  91.6381371 124.0372037
  46.5622605  92.3271798 123.6543457  39.1244810  90.8670524 123.2261069
  38.2876718  90.4392699 123.0445070  39.0968455  91.0602968 124.1631860
  45.9642265  80.7792454 133.9302315  46.0130421  81.6554577 133.5480085
  46.5064780  80.2369847 133.3573958  56.4497111  91.3233577 133.2103452
  55.6592655  91.3057716 132.6707951  56.2130466  91.8621871 133.9652489
  56.5694986  88.1726044 130.5236181  56.6192991  88.0076051 131.4651703
  56.4608909  87.3053303 130.1334061  45.4531245  90.8514589 117.8128270
  45.6019365  91.5350054 117.1594942  46.2597688  90.8319679 118.3277725
  53.8598748  84.1556972 131.8395487  54.7608611  84.0163437 131.5479485
  53.9346723  84.3211427 132.7793665  48.1941554  81.5323826 130.6848674
  47.3244863  81.8257392 130.4131262  48.4301034  82.1164271 131.4055937
  58.0713183  90.5922985 130.7678202  57.7797991  90.9552966 131.6041663
  57.4585314  89.8789993 130.5891534  59.2708865  88.1575865 123.2880772
  60.1055757  88.5965669 123.4518333  59.4067994  87.6814518 122.4689018
  56.3200371  85.7155600 129.2358260  56.7954493  85.9083246 128.4277112
  55.3965936  85.7714786 128.9901644  43.2083878  86.8779767 118.8189338
  42.9629920  85.9742097 119.0169549  43.3779792  86.8796917 117.8768816
  50.8980588  77.7503443 128.2014094  51.4162531  78.4864470 127.8760583
  50.5435720  78.0567437 129.0360853  42.4779525  82.6108125 116.3175500
  41.7848770  82.6852480 115.6615536  42.2331277  81.8468468 116.8397017
  51.1493182  74.1703726 123.7214991  51.4294936  73.5026915 124.3475417
  51.9343789  74.3632821 123.2089654  48.9526650  93.3462720 115.2840017
  48.3800617  93.9652907 114.8310489  49.5259444  93.8962081 115.8179939
  55.0202040  82.5921360 127.4686566  55.9719463  82.6919458 127.4898790
  54.8505491  81.7999628 127.9784650  53.0416420  79.6776943 127.6545967
  52.4466352  79.9581956 126.9592455  52.7566116  80.1670844 128.4262708
  52.1723910  93.6299870 116.4148599  53.1054583  93.5645432 116.6181475
  52.0847123  94.4656137 115.9563132  54.8011927  92.9465740 113.3752547
  54.7225558  92.6125604 114.2688305  55.6221593  93.4387508 113.3744019
  57.4990118  85.8127480 126.5828865  57.4666438  84.8743480 126.7688549
  58.1090742  85.8911516 125.8494690  49.3373449  84.6823533 112.6256069
  50.2832553  84.5529741 112.6944487  48.9587694  83.9438194 113.1025498
  57.6484606  82.6038523 126.6287149  57.1323655  81.8196980 126.4417077
  58.5324555  82.2757240 126.7933668  55.3095333  76.3479539 122.5882961
  55.1120154  76.0394627 123.4726293  55.9195039  77.0741177 122.7180891
  63.3166668  86.8743486 125.7234902  64.0470056  86.6128775 126.2842606
  62.7073613  86.1372208 125.7636970  61.3981965  85.0151349 126.3209353
  60.6715128  84.8807314 125.7125845  60.9829252  85.3228178 127.1266071
  49.2212141  88.7341279 134.0856726  50.1415151  88.9119878 134.2796773
  49.1861724  87.7897324 133.9336426  38.4394306  83.9279872 123.0110001
  38.1197091  83.0745181 122.7184375  37.8927734  84.1428450 123.7667968
  42.2174214  86.6442313 126.7279508  42.4360224  87.5759421 126.7467541
  42.6299988  86.2850288 127.5134311  49.1378432  77.1510399 118.7155196
  48.3279160  76.8057484 119.0910442  49.8262849  76.8417942 119.3042808
  51.0668980  76.2288445 120.3379493  51.6200019  76.6483899 120.9969516
  51.3039066  75.3024194 120.3802449  47.0902079  82.2175519 136.1182257
  46.9898806  83.1669876 136.0494348  46.8723621  81.8893758 135.2458327
  38.3082566  87.5482784 124.9803123  37.6146038  87.1336737 124.4673077
  39.0555557  87.5903320 124.3836542  54.4447787  78.3388971 119.8458157
  53.8646456  78.9973775 119.4636209  54.1783720  77.5166315 119.4345574
  52.8951353  77.7394028 122.0479477  53.3951132  77.8510563 121.2393796
  53.5386961  77.4355081 122.6880286  46.9533349  85.6472658 134.9347318
  46.4700431  86.4473018 135.1411207  47.0394288  85.6580603 133.9814762
  40.2219309  87.4801038 122.8569138  40.1989997  87.5788725 121.9051021
  40.5319945  88.3266188 123.1786304  42.8806687  89.5377193 126.9715752
  43.8349940  89.5061135 126.9045684  42.6819210  89.0767816 127.7865978
  43.4706069  88.1078309 129.5386550  44.2898958  88.6022387 129.5621387
  43.7442877  87.1910277 129.5104117  53.2272665  80.4989061 118.9014505
  52.3398520  80.7838712 118.6834700  53.6426654  80.3382824 118.0541782
  56.5787201  80.5235582 122.6168844  57.3547591  81.0132034 122.8893461
  55.8535335  80.9493636 123.0740714  59.0159760  81.2363201 123.6742785
  59.6104251  80.9958937 122.9636093  59.0886343  80.5170332 124.3016321
  41.2356915  95.0796812 123.9885950  41.1011383  94.3197213 123.4223948
  40.8188978  95.8037712 123.5214739  52.3715878  90.2633736 112.9962525
  53.0751729  90.4683738 113.6120181  51.6478527  90.8310498 113.2611609
  53.2013689  86.0143597 119.1164795  53.1448890  86.4712148 118.2772428
  53.7542031  85.2534282 118.9387638  57.0118495  81.8033329 119.9414915
  56.7555429  81.4029964 120.7723122  56.3871363  82.5177123 119.8165054
  61.3230833  84.5429402 122.4486206  60.7630391  84.6122591 123.2217768
  60.7174336  84.3670387 121.7285702  44.3926041  95.9766129 124.2004392
  44.2758425  96.9211562 124.0983083  43.5718488  95.6739691 124.5890192
  54.2802576  90.7016265 115.0460985  55.1148180  90.2697463 114.8638460
  54.1186919  90.5298279 115.9737880  53.9348468  87.2048378 116.4117324
  53.8797272  87.0392650 115.4705769  53.3094523  87.9124411 116.5679514
  38.7240983  82.4416443 130.2378747  39.3699847  81.9315397 130.7265972
  38.5158134  83.1785124 130.8122172  51.2494375  89.5097290 135.7370887
  52.1185535  89.6837942 135.3757522  50.7701127  90.3291707 135.6146617
  47.2444594  76.7056487 115.9902643  47.2323263  77.6498327 116.1470914
  48.1368015  76.5226633 115.6962104  45.4180555  96.6294391 127.4160321
  46.3207802  96.6618001 127.7326816  45.1917926  95.6994842 127.4306657
  47.1734157  95.3825378 124.0770400  46.2229789  95.3827239 123.9634772
  47.4766644  94.6358112 123.5606434  43.0638474  79.5884060 134.3353761
  43.9269936  79.2320864 134.5457085  42.4903885  79.2497954 135.0229165
  62.9086851 101.2185916 125.1416162  63.5465261 101.0992663 124.4379502
  62.7907694 102.1666760 125.2004114  59.7176557 101.1713344 125.0777687
  59.3795069 101.0554409 124.1898221  60.5866325 100.7704509 125.0578693
  55.5763373 103.0248820 121.0674578  55.0128238 102.9338757 120.2990865
  55.4615768 102.2048725 121.5477070  60.1996340 102.3248196 131.0363892
  60.1884981 101.9300994 130.1644396  60.3616980 101.5914268 131.6297664
  53.1227805 104.5200012 123.9058798  53.9149097 104.1790837 123.4905097
  53.3624455 104.6294987 124.8260951  61.1562932 106.6919788 116.3789042
  60.5050911 107.2773869 115.9923056  61.9507294 107.2225983 116.4384080
  55.0818559 103.7808925 116.7776177  55.8549435 103.2337912 116.6389053
  55.4343958 104.6453175 116.9890638  56.9203601 105.1085308 129.9843076
  56.6293467 106.0130938 129.8689742  57.5560586 105.1501835 130.6987146
  57.8459808 102.4862156 126.5744436  58.4423380 102.2618179 125.8601399
  57.9034780 101.7446902 127.1769884  57.4184837  99.9401591 114.4094627
  57.6710357  99.4183113 113.6478090  56.4809396  99.7767737 114.5121310
  62.4628119  98.9437370 122.2169370  63.2491209  98.5256793 121.8659787
  62.7266824  99.8483462 122.3851018  62.6338197 104.3810220 116.9158027
  61.9984030 104.4544847 117.6278931  62.3035603 104.9703819 116.2377106
  67.8636547  98.8812603 123.1202348  68.5961719  98.3111820 123.3540178
  67.1075902  98.4934203 123.5608854  57.1381125 101.8429697 116.6119002
  57.0217383 101.1674601 117.2800086  57.2483385 101.3562071 115.7951155
  59.4812666 101.3039845 120.3165691  59.1170874 100.7770465 121.0278612
  60.3379782 100.9138314 120.1432176  65.3861967  92.5934177 127.5796957
  65.0545292  93.4629588 127.3558172  64.7907580  92.2770461 128.2590987
  59.1218153  96.3329744 115.3127039  59.2892556  97.2009981 115.6797510
  58.9315322  96.4957026 114.3888329  61.8793486 104.7946723 126.9792870
  61.5794210 105.6971762 126.8708677  61.5344546 104.5278906 127.8314023
  55.3305968 101.2460520 123.0129574  54.4056464 101.1136734 123.2207266
  55.5790381 102.0254739 123.5099517  65.2790630  97.3129263 124.6590307
  64.3707508  97.2444672 124.3649068  65.2278226  97.7901208 125.4872133
  59.1007374  98.7887402 116.2973706  58.9806999  99.2344452 117.1359187
  58.4059963  99.1372719 115.7387244  52.6914779 100.8893794 123.8473363
  52.8207160 101.1428272 124.7612775  52.0112230 101.4821502 123.5278018
  56.8614266 111.5591043 119.9463837  56.7838296 112.5098869 120.0252318
  56.2575910 111.2136916 120.6038764  59.3531496  98.7318909 132.6025204
  58.5764830  99.2912829 132.5928069  59.9922059  99.2175692 133.1240074
  67.1452277  95.5145702 126.4368181  66.5026657  95.8078235 125.7907976
  66.6407205  95.3998622 127.2421378  64.7992440  99.2608875 117.1254040
  65.7110296  99.4936262 116.9501738  64.2902087  99.8445919 116.5629119
  57.6077868 101.5404362 132.1643171  58.3492553 102.0789406 131.8877995
  56.9014854 102.1670651 132.3214723  63.0833208 103.6833503 130.7615333
  63.4916564 103.2415913 130.0169965  62.3610469 103.1086130 131.0149526
  59.4364278  98.6206109 128.1348890  60.2825473  99.0445523 128.2783539
  59.3762916  97.9639734 128.8287453  63.4062023 104.2434693 124.5167622
  62.7770885 104.4080407 123.8143690  63.0187685 104.6576303 125.2878586
  67.2851255 105.1789131 121.8711986  66.6002293 105.5588033 121.3209019
  67.3695104 105.7884458 122.6043933  62.5863723  96.2810478 129.7930063
  62.3424655  97.0352538 129.2564339  62.8623654  96.6595825 130.6277311
  64.5402186 102.8249090 128.4707329  64.7519081 103.4680850 127.7941710
  64.4931934 101.9911407 128.0029259  62.1428415  95.4366911 125.3743901
  61.2812894  95.7348164 125.6660639  62.1690850  95.6537310 124.4424934
  58.9589985 103.9809101 121.7817707  59.4228330 104.2596804 120.9922329
  58.6946783 103.0792546 121.5990798  55.8514066 103.5280583 124.7197470
  56.4215423 103.9567851 124.0814955  56.4422177 103.2463168 125.4181656
  57.8958871 100.1032254 118.5907272  58.5982914 100.5553297 119.0581198
  57.5639499  99.4616073 119.2187165  56.3439232  98.6944010 132.9658481
  55.7137893  99.3760291 133.1993878  56.2375320  98.5827092 132.0211620
  51.6384205  98.3615806 123.8924406  50.8483259  98.6173335 123.4164516
  52.1295452  99.1764144 123.9976446  65.6548014 105.7021046 126.6429686
  66.4765458 105.3001233 126.3612368  65.6510417 105.5989280 127.5945802
  53.5898950  98.7260386 120.8507882  52.7930113  98.8379080 121.3691378
  53.3624542  99.0647038 119.9848773  59.4204618 105.2505089 128.7990397
  59.4849050 105.7125496 129.6348569  58.7115541 104.6202454 128.9272707
  49.9221908  98.6146297 126.3239396  50.1729946  99.4993307 126.5896972
  50.4581456  98.4350898 125.5514488  73.7454007 102.0459794 122.9914658
  72.9917716 101.4767192 122.8358662  73.8801548 102.0122459 123.9385293
  59.1352635 106.9173196 118.6669377  58.9998310 107.7624732 119.0954225
  59.6762448 107.1192474 117.9035311  55.6219975  92.9964776 135.3283732
  55.2286920  92.4430975 136.0031377  56.4386115  93.3075355 135.7190250
  52.5882033 104.4348634 119.2397302  53.1006553 105.2291885 119.3902867
  53.2404745 103.7374925 119.1730904  54.3976917 107.5514391 121.3220055
  54.5743546 108.4732355 121.1341039  55.1933751 107.2372810 121.7514435
  58.5387936  94.4122655 132.9203989  59.2797649  95.0129808 132.8408451
  58.7705859  93.6700293 132.3622032  53.6829274  99.5979023 131.1982219
  53.5682789  98.6964280 131.4989318  52.8273792  99.8442719 130.8467035
  60.7621112 107.5396763 132.7969719  60.3184966 106.7533141 132.4790624
  61.4238325 107.7275913 132.1313610  55.5208233 109.0692565 127.3230398
  56.0715658 108.9409628 126.5507392  54.6819709 109.3687454 126.9725291
  62.8602350 107.8199563 130.8251121  62.8420825 108.6408444 130.3331390
  63.7822270 107.6953638 131.0501262  59.3175404 105.3343692 131.6674629
  59.8503741 104.5731981 131.4373937  58.7889485 105.0417344 132.4098783
  62.4845099  90.4403758 127.1968271  62.1409368  91.3305400 127.1207381
  62.8524061  90.2505416 126.3337856  50.5530949 102.7637289 120.0156873
  51.3906171 103.1734297 119.7990581  50.7309217 101.8236731 119.9857067
  62.4495381 100.4312369 115.7040706  61.9342005 101.2016974 115.9429093
  62.1772690  99.7577506 116.3273767  60.0342493  95.2762070 120.7625944
  59.1784089  94.8868921 120.5831583  60.4469444  95.3554031 119.9025730
  61.5641639  92.8108413 125.1617504  61.0606435  92.7738549 124.3485309
  61.8572246  93.7201156 125.2214161  57.8084525  92.8947143 124.1683686
  58.6737522  92.6989952 123.8089575  57.8762034  92.6657495 125.0953042
  67.4229656 103.1844724 117.6393879  66.6459098 102.8455884 117.1949041
  68.1021137 103.1897347 116.9648844  62.2381685  98.3039462 117.5300487
  61.9331820  98.6185611 118.3810630  63.1912127  98.3820881 117.5727820
  60.6828117 104.4629685 119.1793441  60.1549478 103.7282444 118.8666678
  60.1815619 105.2404361 118.9333409  65.6620963 102.6578705 124.2960487
  65.0044637 103.3477967 124.3840616  66.4661362 103.0475137 124.6394474
  55.4146844  95.1249351 121.5400052  55.9890596  94.9024533 120.8073245
  56.0017827  95.1938046 122.2928654  64.4726421 101.0123078 122.3464429
  64.9858303 101.6453070 122.8486139  65.1227645 100.4124274 121.9807789
  55.7416431  97.1553812 115.5595938  54.9053743  97.4928499 115.8805212
  55.6021201  97.0202792 114.6223075  57.7169512  91.9990600 120.2675122
  57.0633924  91.6839617 119.6431737  57.6749986  91.3766340 120.9934945
  58.8280717 102.2809895 112.1828414  57.9207778 102.0499149 112.3819563
  59.3251749 101.4847514 112.3702396  61.7348796 110.9907402 115.1025100
  61.0610494 111.2939099 115.7110058  62.1214618 111.7936483 114.7530557
  60.9507252  98.4872534 124.5922770  60.0329814  98.7087481 124.4344458
  61.3667396  98.5618844 123.7334477  61.7342300  99.8863949 119.7225450
  62.4814119 100.3985346 119.4132572  62.0033889  99.5648002 120.5829843
  60.0068950 102.3822490 116.7052404  59.0980169 102.0981523 116.8024874
  60.0364034 102.8021569 115.8455711  65.2388218 105.9929079 120.4743572
  64.7850545 105.1519989 120.5308762  64.6082184 106.6290478 120.8118352
  64.1821137  96.9221065 121.7044239  63.4443894  96.4098452 122.0354482
  64.4347911  96.4821447 120.8927516  63.6821157 107.8305576 121.4093390
  63.9744131 108.3910633 120.6905755  64.1919777 108.1234137 122.1646549
  64.2832764  89.6997317 122.2986008  64.5891641  88.8394681 122.0111923
  65.0085369  90.2914938 122.0985002  50.5757121 100.1028004 120.6867606
  50.3781520  99.5097365 119.9618673  50.0203784  99.7980214 121.4043545
  58.5553844  99.9951111 122.8062199  58.6102454  99.0424947 122.7304676
  57.7445046 100.1510550 123.2903498  59.7045038 103.9231234 114.0440483
  59.2664468 103.2067093 113.5846120  60.4455479 104.1507348 113.4825574
  56.4946204  98.6128170 120.5652578  55.6814070  98.9122341 120.9717770
  56.9905198  98.2183859 121.2827061  58.6454782 108.6085927 122.4986843
  58.6030961 108.8346774 121.5695375  59.5617481 108.3749302 122.6472644
  62.0920416  99.0769995 129.3967472  62.4469803  99.3041468 130.2561938
  62.7392547  99.4088372 128.7744727  67.8218153 102.1988431 120.1016801
  67.6836051 102.3890027 119.1737990  67.4654372 102.9607813 120.5584852
  55.9860279  96.1846526 126.1813813  56.6259658  96.0435285 125.4836777
  55.1537809  95.8981039 125.8052415  67.8487532 104.2664958 125.1128073
  68.2824039 104.1740247 125.9611127  68.5619113 104.2422458 124.4748089
  56.7620583 105.4848956 122.2948806  57.5561181 104.9899276 122.0931381
  56.0512275 104.9566819 121.9316511  61.5815427 107.8667052 126.6461173
  61.6352449 108.4357988 127.4138889  60.7130209 108.0368937 126.2815210
  53.0703346  99.6292038 118.3708558  52.1400934  99.5676493 118.5878521
  53.1660818  99.1067991 117.5745200  52.9888895  96.1546851 120.9586800
  53.2495713  97.0692184 120.8495961  53.8106068  95.6871293 121.1083413
  54.4613821  97.5684608 128.1285625  55.1336874  97.3601970 127.4798273
  53.6343607  97.3706694 127.6890857  68.7103082 104.3088658 127.6460958
  68.9038972 105.2134469 127.8920233  68.6103700 103.8496077 128.4799543
  60.3639393  94.1946549 130.1451285  59.7167308  94.8936499 130.0515762
  61.1340408  94.6282693 130.5127534  63.7718191 104.4595401 133.2201839
  63.6203697 104.2305953 132.3031922  63.7622870 105.4166002 133.2333184
  60.5403527 102.0327314 128.2048105  61.4695587 102.1838473 128.0317072
  60.1194557 102.1211335 127.3496752  59.3391859 106.0577978 125.9746643
  59.2002944 105.6896763 126.8472581  58.5506455 106.5725618 125.8030601
  59.9340011 111.1587075 117.3172179  60.1091766 110.6875118 118.1317802
  59.2472799 111.7852841 117.5453440  60.8897074 105.4359581 123.3635481
  60.5546906 105.3960351 124.2593130  60.3901020 104.7704297 122.8905891
  54.8641318 100.8427211 128.8888062  54.7261116 100.1107450 129.4899601
  55.7746241 100.7536111 128.6072249  63.8256266 102.7815615 113.6372540
  63.2085436 102.0562443 113.5405593  63.3572754 103.5424976 113.2939614
  57.4923619 100.5547170 128.3771741  58.2023237  99.9140362 128.3358360
  57.4492927 100.8060065 129.2997922  65.4810397 107.4914524 131.2978321
  65.4222943 106.8073744 130.6308904  65.8829916 108.2333514 130.8458947
  56.2052552  97.5412388 130.1967381  55.6689910  97.0903127 130.8488977
  55.6169261  97.6758297 129.4537845  54.5001096 114.3076437 124.0912039
  54.7397694 114.9394962 124.7691058  53.6570292 113.9564477 124.3777399
  55.6154811  97.0001040 112.7593845  54.7384278  96.8789840 112.3956091
  56.0912565  96.2087118 112.5072733  65.4827804 105.4554108 129.5292300
  64.5954583 105.1180029 129.6518699  66.0526356 104.7237139 129.7661066
  47.1356952 101.7878199 122.8535352  47.8227991 101.4739929 122.2656367
  46.9805080 102.6919564 122.5802603  51.9391674  96.6768396 127.2820375
  51.8549862  96.0694065 126.5470785  51.1174380  97.1677414 127.2829872
  59.0128958 110.1155560 126.4953543  58.9399129 110.9210531 127.0072848
  58.5706351 110.3147526 125.6701565  58.8018737 109.3527330 120.0056365
  58.0186259 109.8949010 120.0994590  59.5011483 109.8701310 120.4050606
  62.1115388  95.1621959 122.6490570  62.6084087  94.4091922 122.3291641
  61.3402369  95.1986276 122.0833780  69.9645145 100.8662325 124.2908862
  69.9535021 101.7487040 123.9202795  69.0962524 100.5133876 124.0963399
  61.4727641 110.0142394 128.6511702  62.1855614 110.6489859 128.5787604
  60.9817670 110.1106260 127.8351704  63.1945168 103.9193647 120.2228994
  62.2601447 104.0395109 120.0533698  63.3721837 103.0166113 119.9589004
  58.6950356  97.3039342 122.3762255  58.3248144  96.7510383 123.0643161
  59.1909449  96.6997476 121.8237255  66.5817720  99.7610966 120.7579028
  67.0478172 100.5938957 120.6839331  67.0325220  99.2955947 121.4624286
  56.5239555 107.7636837 129.4717273  57.2249014 108.3973320 129.6246667
  56.0534670 108.1051569 128.7112912  64.6493951 106.1054787 117.7565180
  64.9253795 105.9911382 118.6659054  63.7798449 105.7072272 117.7177353
  64.5534382  92.1291553 124.7969929  63.6397462  92.3595780 124.9652136
  64.9827484  92.2129997 125.6483962  64.3240841 100.3181445 127.2969823
  63.6712291 100.5657352 126.6422276  64.7021221  99.5045583 126.9632301
  61.2848015 110.3541138 121.3997994  61.4670409 109.5362794 121.8625746
  62.1081001 110.5708830 120.9622884  61.6190180 109.2809323 118.6613042
  62.1477947 108.7701778 118.0483204  61.8818400 108.9651853 119.5258575
  60.3728414 101.0601256 133.7835860  59.6969051 100.9595385 134.4538236
  61.1956048 100.9040470 134.2471858  52.1207273 107.2973192 126.4048376
  52.7060710 106.5516880 126.5376280  51.9232111 107.6077149 127.2885040
  54.9745928 110.3324440 121.4210818  54.3056303 110.8170567 120.9374858
  54.8358798 110.5793660 122.3354197  46.7124928  99.8678793 125.1252819
  46.7509027  99.3342383 125.9189937  46.2065221  99.3413998 124.5063796
  59.1151197 112.3668183 128.0193476  59.6669505 112.5299805 128.7842562
  59.4557390 112.9572621 127.3473501  54.0915690  94.7143333 128.6215361
  54.1557016  95.5758164 128.2092759  54.0282810  94.1017335 127.8887720
  53.5667963  96.7866466 132.2688395  54.1940001  96.4043543 132.8825920
  52.7095881  96.5680668 132.6344088  63.9662071 107.1929441 133.8742131
  64.5101975 107.8059399 133.3797086  63.3848916 107.7509019 134.3909144
  50.3433505  98.5942895 118.2006750  50.6386946  97.6853573 118.1473804
  49.4421541  98.5730634 117.8787753  62.2519584 110.3150159 125.0057159
  62.1270724 109.5139899 124.4968104  62.9098675 110.8096352 124.5171129
  53.8727752  96.6698891 124.1834299  53.1514338  97.2834859 124.0441772
  54.6621008  97.2056656 124.1050945  64.3154492 108.1159179 126.6336709
  63.3684828 107.9964530 126.5615035  64.6637266 107.2281677 126.7162970
  56.6754066  94.0053318 130.4574951  57.1988468  94.2515614 131.2201260
  56.4566399  94.8373353 130.0378088  52.0721347  96.2756992 118.3246075
  51.7434053  95.3954371 118.1421181  52.4260718  96.2204661 119.2122465
  61.3200926 107.9111895 122.8341061  61.1725888 106.9828603 123.0148631
  62.1454419 107.9331986 122.3498136  55.1863170  96.5629962 118.6921553
  55.5259243  97.0915884 117.9700161  55.6335291  96.9010368 119.4680120
  64.9235048 108.7340454 123.9205934  65.8481595 108.5283315 123.7830385
  64.7550351 108.4856855 124.8295275  57.8806611  94.9467013 128.1424621
  57.5403431  94.1474826 128.5445301  57.1745617  95.2468724 127.5701454
  58.5323083  92.0316325 126.5951944  59.3549152  91.5576804 126.4730834
  58.7761146  92.8106809 127.0950630  57.1731317  95.0604584 116.8914846
  57.8939680  95.4385837 116.3878563  56.5496621  95.7793461 116.9949824
  61.3162440  95.7649733 117.8273178  61.5326054  96.6474371 117.5262006
  60.8356507  95.3735946 117.0978820  56.0561661  98.7235446 124.4043923
  55.9106242  99.0375749 125.2968204  55.5786865  99.3420346 123.8514821
  57.9158044  95.7137994 124.4524812  57.9019613  94.8179087 124.1157110
  58.6330472  95.7208658 125.0863098  59.7684175  96.1475334 126.4977940
  59.5101953  97.0692405 126.4962270  59.2369215  95.7505769 127.1878404
  64.7130364 109.2526121 119.2768025  64.8867241 108.6872544 118.5241878
  65.2059255 110.0527016 119.0947515  50.5307324 101.2640790 127.3431584
  49.9860792 102.0400598 127.4751858  51.4086673 101.6111595 127.1850705
  57.3194940  94.5952374 119.7212382  57.4410851  93.6669021 119.9203270
  57.0296983  94.6091060 118.8090698  60.1886131  92.2807285 122.8579102
  60.2107827  92.3446618 121.9031082  60.6054190  91.4411793 123.0519608
  70.5669755 102.0162544 120.8958325  71.0100901 101.2669870 120.4977448
  69.6896265 102.0072681 120.5132057  65.7005536 108.5692886 116.3764923
  66.3956441 109.1899578 116.5952238  66.0428686 107.7188237 116.6517301
  51.3173345 100.3910687 130.2361741  50.5755081 100.5393322 130.8226371
  50.9966090 100.6518952 129.3728490  67.5996959 106.0192591 117.9052254
  68.1248283 106.3579864 117.1801574  67.5119312 105.0839607 117.7215389
  59.2617008 109.9326665 130.0342131  59.5704135 109.6875812 130.9064830
  60.0592490 110.1373303 129.5461001  59.2837620 112.0864575 122.2647507
  58.8442610 111.5940953 122.9580364  60.0345737 111.5437542 122.0239583
  51.7629959 108.2776115 122.2672135  52.5887979 107.9779887 121.8870779
  51.4124011 107.5083738 122.7161924  56.7311492 107.6302584 124.3369809
  56.1091502 106.9673289 124.0372037  57.4016359 107.6563716 123.6543457
  49.9638564 106.1962442 123.2261069  49.1270472 105.7684616 123.0445070
  49.9362210 106.3894885 124.1631860  56.8036020  96.1084372 133.9302315
  56.8524175  96.9846494 133.5480085  57.3458534  95.5661765 133.3573958
  67.2890865 106.6525495 133.2103452  66.4986409 106.6349634 132.6707951
  67.0524220 107.1913789 133.9652489  67.4088741 103.5017961 130.5236181
  67.4586745 103.3367969 131.4651703  67.3002664 102.6345220 130.1334061
  56.2924999 106.1806507 117.8128270  56.4413120 106.8641971 117.1594942
  57.0991443 106.1611597 118.3277725  64.6992503  99.4848889 131.8395487
  65.6002366  99.3455354 131.5479485  64.7740477  99.6503344 132.7793665
  59.0335308  96.8615744 130.6848674  58.1638618  97.1549310 130.4131262
  59.2694789  97.4456189 131.4055937  68.9106937 105.9214903 130.7678202
  68.6191746 106.2844883 131.6041663  68.2979069 105.2081911 130.5891534
  70.1102620 103.4867783 123.2880772  70.9449511 103.9257587 123.4518333
  70.2461748 103.0106436 122.4689018  67.1594126 101.0447517 129.2358260
  67.6348247 101.2375164 128.4277112  66.2359691 101.1006703 128.9901644
  54.0477632 102.2071685 118.8189338  53.8023674 101.3034015 119.0169549
  54.2173547 102.2088835 117.8768816  61.7374342  93.0795361 128.2014094
  62.2556286  93.8156388 127.8760583  61.3829475  93.3859354 129.0360853
  53.3173280  97.9400042 116.3175500  52.6242525  98.0144397 115.6615536
  53.0725032  97.1760386 116.8397017  61.9886936  89.4995644 123.7214991
  62.2688690  88.8318833 124.3475417  62.7737543  89.6924739 123.2089654
  59.7920405 108.6754637 115.2840017  59.2194372 109.2944825 114.8310489
  60.3653198 109.2253999 115.8179939  65.8595795  97.9213278 127.4686566
  66.8113217  98.0211375 127.4898790  65.6899245  97.1291546 127.9784650
  63.8810174  95.0068861 127.6545967  63.2860106  95.2873873 126.9592455
  63.5959871  95.4962762 128.4262708  63.0117665 108.9591788 116.4148599
  63.9448338 108.8937349 116.6181475  62.9240877 109.7948054 115.9563132
  65.6405681 108.2757658 113.3752547  65.5619313 107.9417522 114.2688305
  66.4615348 108.7679426 113.3744019  68.3383872 101.1419397 126.5828865
  68.3060192 100.2035398 126.7688549  68.9484496 101.2203434 125.8494690
  60.1767203 100.0115450 112.6256069  61.1226308  99.8821658 112.6944487
  59.7981448  99.2730112 113.1025498  68.4878361  97.9330441 126.6287149
  67.9717410  97.1488897 126.4417077  69.3718309  97.6049157 126.7933668
  66.1489088  91.6771456 122.5882961  65.9513909  91.3686544 123.4726293
  66.7588793  92.4033095 122.7180891  74.1560422 102.2035404 125.7234902
  74.8863811 101.9420692 126.2842606  73.5467368 101.4664126 125.7636970
  72.2375719 100.3443267 126.3209353  71.5108883 100.2099232 125.7125845
  71.8223006 100.6520095 127.1266071  60.0605896 104.0633196 134.0856726
  60.9808905 104.2411795 134.2796773  60.0255479 103.1189242 133.9336426
  58.3610120  97.9365427 112.5610955  57.4541576  97.6398539 112.6373668
  58.6386101  97.6395245 111.6945241  49.2788061  99.2571790 123.0110001
  48.9590845  98.4037098 122.7184375  48.7321489  99.4720368 123.7667968
  53.0567968 101.9734231 126.7279508  53.2753978 102.9051339 126.7467541
  53.4693742 101.6142205 127.5134311  59.9772186  92.4802316 118.7155196
  59.1672914  92.1349401 119.0910442  60.6656603  92.1709860 119.3042808
  61.9062734  91.5580363 120.3379493  62.4593773  91.9775817 120.9969516
  62.1432821  90.6316111 120.3802449  57.9295834  97.5467437 136.1182257
  57.8292561  98.4961794 136.0494348  57.7117376  97.2185676 135.2458327
  57.1308905  94.7952362 112.7022934  57.9928069  95.1207260 112.9618751
  57.3159249  94.0083858 112.1896000  49.1476321 102.8774701 124.9803123
  48.4539792 102.4628654 124.4673077  49.8949312 102.9195238 124.3836542
  65.2841541  93.6680888 119.8458157  64.7040211  94.3265692 119.4636209
  65.0177474  92.8458233 119.4345574  63.7345108  93.0685946 122.0479477
  64.2344886  93.1802481 121.2393796  64.3780716  92.7646999 122.6880286
  57.7927104 100.9764576 134.9347318  57.3094185 101.7764936 135.1411207
  57.8788043 100.9872520 133.9814762  51.0613063 102.8092955 122.8569138
  51.0383751 102.9080643 121.9051021  51.3713700 103.6558106 123.1786304
  53.7200441 104.8669110 126.9715752  54.6743695 104.8353053 126.9045684
  53.5212965 104.4059734 127.7865978  54.3099823 103.4370226 129.5386550
  55.1292712 103.9314305 129.5621387  54.5836631 102.5202194 129.5104117
  64.0666420  95.8280979 118.9014505  63.1792275  96.1130629 118.6834700
  64.4820409  95.6674742 118.0541782  67.4180956  95.8527500 122.6168844
  68.1941346  96.3423952 122.8893461  66.6929090  96.2785554 123.0740714
  69.8553514  96.5655119 123.6742785  70.4498005  96.3250855 122.9636093
  69.9280098  95.8462249 124.3016321  52.0750670 110.4088730 123.9885950
  51.9405138 109.6489131 123.4223948  51.6582732 111.1329630 123.5214739
  63.2109633 105.5925653 112.9962525  63.9145483 105.7975656 113.6120181
  62.4872282 106.1602415 113.2611609  64.0407443 101.3435515 119.1164795
  63.9842645 101.8004066 118.2772428  64.5935786 100.5826199 118.9387638
  67.8512249  97.1325246 119.9414915  67.5949183  96.7321882 120.7723122
  67.2265117  97.8469040 119.8165054  72.1624587  99.8721320 122.4486206
  71.6024145  99.9414509 123.2217768  71.5568090  99.6962304 121.7285702
  55.2319796 111.3058047 124.2004392  55.1152180 112.2503479 124.0983083
  54.4112242 111.0031608 124.5890192  65.1196330 106.0308183 115.0460985
  65.9541934 105.5989381 114.8638460  64.9580673 105.8590196 115.9737880
  64.7742223 102.5340296 116.4117324  64.7191026 102.3684567 115.4705769
  64.1488278 103.2416329 116.5679514  49.5634738  97.7708360 130.2378747
  50.2093601  97.2607314 130.7265972  49.3551889  98.5077042 130.8122172
  62.0888130 104.8389208 135.7370887  62.9579289 105.0129860 135.3757522
  61.6094881 105.6583625 135.6146617  58.0838348  92.0348405 115.9902643
  58.0717018  92.9790245 116.1470914  58.9761770  91.8518550 115.6962104
  56.2574310 111.9586309 127.4160321  57.1601557 111.9909919 127.7326816
  56.0311680 111.0286760 127.4306657  58.0127912 110.7117295 124.0770400
  57.0623543 110.7119157 123.9634772  58.3160398 109.9650030 123.5606434
  61.8990467  88.6291181 120.2448580  61.1322863  88.0749668 120.3905262
  62.3101172  88.7013050 121.1062731  53.9032229  94.9175977 134.3353761
  54.7663690  94.5612782 134.5457085  53.3297639  94.5789872 135.0229165
  73.7480605 116.5477834 125.1416162  74.3859015 116.4284581 124.4379502
  73.6301448 117.4958678 125.2004114  70.5570312 116.5005262 125.0777687
  70.2188823 116.3846326 124.1898221  71.4260080 116.0996427 125.0578693
  66.4157127 118.3540738 121.0674578  65.8521993 118.2630675 120.2990865
  66.3009522 117.5340643 121.5477070  63.9621559 119.8491930 123.9058798
  64.7542851 119.5082754 123.4905097  64.2018210 119.9586905 124.8260951
  71.9956686 122.0211706 116.3789042  71.3444666 122.6065786 115.9923056
  72.7901049 122.5517901 116.4384080  65.9212313 119.1100843 116.7776177
  66.6943189 118.5629830 116.6389053  66.2737712 119.9745092 116.9890638
  68.6853563 117.8154074 126.5744436  69.2817135 117.5910096 125.8601399
  68.7428534 117.0738819 127.1769884  68.2578591 115.2693509 114.4094627
  68.5104112 114.7475030 113.6478090  67.3203150 115.1059655 114.5121310
  73.3021874 114.2729287 122.2169370  74.0884963 113.8548711 121.8659787
  73.5660578 115.1775380 122.3851018  73.4731951 119.7102138 116.9158027
  72.8377784 119.7836764 117.6278931  73.1429358 120.2995737 116.2377106
  78.7030301 114.2104521 123.1202348  79.4355473 113.6403738 123.3540178
  77.9469657 113.8226121 123.5608854  67.9774880 117.1721615 116.6119002
  67.8611138 116.4966518 117.2800086  68.0877140 116.6853989 115.7951155
  70.3206421 116.6331762 120.3165691  69.9564628 116.1062383 121.0278612
  71.1773537 116.2430231 120.1432176  76.2255721 107.9226095 127.5796957
  75.8939046 108.7921506 127.3558172  75.6301335 107.6062379 128.2590987
  69.9611908 111.6621662 115.3127039  70.1286310 112.5301898 115.6797510
  69.7709077 111.8248944 114.3888329  66.1699722 116.5752438 123.0129574
  65.2450219 116.4428652 123.2207266  66.4184136 117.3546657 123.5099517
  76.1184385 112.6421181 124.6590307  75.2101262 112.5736589 124.3649068
  76.0671981 113.1193126 125.4872133  69.9401129 114.1179319 116.2973706
  69.8200754 114.5636370 117.1359187  69.2453717 114.4664637 115.7387244
  63.5308533 116.2185711 123.8473363  63.6600915 116.4720190 124.7612775
  62.8505985 116.8113419 123.5278018  67.7008021 126.8882961 119.9463837
  67.6232050 127.8390786 120.0252318  67.0969664 126.5428834 120.6038764
  77.9846031 110.8437619 126.4368181  77.3420411 111.1370153 125.7907976
  77.4800960 110.7290540 127.2421378  75.6386195 114.5900793 117.1254040
  76.5504051 114.8228179 116.9501738  75.1295842 115.1737837 116.5629119
  70.2758033 113.9498027 128.1348890  71.1219228 114.3737441 128.2783539
  70.2156670 113.2931651 128.8287453  74.2455777 119.5726611 124.5167622
  73.6164640 119.7372325 123.8143690  73.8581439 119.9868221 125.2878586
  78.1245009 120.5081049 121.8711986  77.4396047 120.8879950 121.3209019
  78.2088858 121.1176376 122.6043933  73.4257478 111.6102396 129.7930063
  73.1818410 112.3644456 129.2564339  73.7017408 111.9887743 130.6277311
  72.9822170 110.7658829 125.3743901  72.1206649 111.0640082 125.6660639
  73.0084604 110.9829227 124.4424934  69.7983739 119.3101019 121.7817707
  70.2622085 119.5888722 120.9922329  69.5340537 118.4084464 121.5990798
  66.6907820 118.8572501 124.7197470  67.2609177 119.2859769 124.0814955
  67.2815932 118.5755085 125.4181656  68.7352625 115.4324171 118.5907272
  69.4376668 115.8845215 119.0581198  68.4033254 114.7907990 119.2187165
  62.4777959 113.6907724 123.8924406  61.6877013 113.9465253 123.4164516
  62.9689206 114.5056062 123.9976446  64.4292704 114.0552303 120.8507882
  63.6323868 114.1670998 121.3691378  64.2018297 114.3938956 119.9848773
  60.7615662 113.9438215 126.3239396  61.0123700 114.8285224 126.5896972
  61.2975210 113.7642816 125.5514488  84.5847762 117.3751712 122.9914658
  83.8311470 116.8059110 122.8358662  84.7195303 117.3414376 123.9385293
  69.9746390 122.2465114 118.6669377  69.8392064 123.0916650 119.0954225
  70.5156202 122.4484392 117.9035311  66.4613729 108.3256694 135.3283732
  66.0680675 107.7722893 136.0031377  67.2779870 108.6367272 135.7190250
  63.4275787 119.7640552 119.2397302  63.9400308 120.5583802 119.3902867
  64.0798500 119.0666843 119.1730904  65.2370672 122.8806308 121.3220055
  65.4137300 123.8024273 121.1341039  66.0327505 122.5664728 121.7514435
  69.3781690 109.7414573 132.9203989  70.1191404 110.3421726 132.8408451
  69.6099613 108.9992211 132.3622032  64.5223028 114.9270940 131.1982219
  64.4076543 114.0256198 131.4989318  63.6667546 115.1734637 130.8467035
  66.3601987 124.3984482 127.3230398  66.9109412 124.2701546 126.5507392
  65.5213463 124.6979371 126.9725291  73.3238853 105.7695676 127.1968271
  72.9803123 106.6597318 127.1207381  73.6917816 105.5797334 126.3337856
  61.3924704 118.0929206 120.0156873  62.2299926 118.5026215 119.7990581
  61.5702972 117.1528649 119.9857067  73.2889136 115.7604287 115.7040706
  72.7735759 116.5308892 115.9429093  73.0166444 115.0869423 116.3273767
  70.8736247 110.6053988 120.7625944  70.0177843 110.2160838 120.5831583
  71.2863199 110.6845949 119.9025730  72.4035394 108.1400331 125.1617504
  71.9000189 108.1030466 124.3485309  72.6966001 109.0493074 125.2214161
  68.6478280 108.2239061 124.1683686  69.5131276 108.0281870 123.8089575
  68.7155788 107.9949413 125.0953042  78.2623410 118.5136642 117.6393879
  77.4852853 118.1747801 117.1949041  78.9414891 118.5189265 116.9648844
  73.0775439 113.6331379 117.5300487  72.7725575 113.9477528 118.3810630
  74.0305881 113.7112799 117.5727820  71.5221871 119.7921603 119.1793441
  70.9943233 119.0574362 118.8666678  71.0209374 120.5696279 118.9333409
  76.5014717 117.9870623 124.2960487  75.8438391 118.6769884 124.3840616
  77.3055116 118.3767055 124.6394474  66.2540599 110.4541269 121.5400052
  66.8284351 110.2316450 120.8073245  66.8411581 110.5229963 122.2928654
  75.3120176 116.3414996 122.3464429  75.8252058 116.9744988 122.8486139
  75.9621400 115.7416191 121.9807789  66.5810186 112.4845730 115.5595938
  65.7447498 112.8220416 115.8805212  66.4414955 112.3494710 114.6223075
  68.5563266 107.3282518 120.2675122  67.9027679 107.0131535 119.6431737
  68.5143740 106.7058258 120.9934945  69.6674471 117.6101813 112.1828414
  68.7601533 117.3791066 112.3819563  70.1645503 116.8139432 112.3702396
  72.5742550 126.3199320 115.1025100  71.9004249 126.6231017 115.7110058
  72.9608372 127.1228400 114.7530557  71.7901007 113.8164451 124.5922770
  70.8723568 114.0379398 124.4344458  72.2061150 113.8910762 123.7334477
  72.5736054 115.2155867 119.7225450  73.3207873 115.7277264 119.4132572
  72.8427644 114.8939920 120.5829843  70.8462705 117.7114408 116.7052404
  69.9373924 117.4273440 116.8024874  70.8757788 118.1313486 115.8455711
  76.0781972 121.3220997 120.4743572  75.6244299 120.4811907 120.5308762
  75.4475939 121.9582395 120.8118352  75.0214892 112.2512983 121.7044239
  74.2837648 111.7390369 122.0354482  75.2741665 111.8113365 120.8927516
  74.5214911 123.1597494 121.4093390  74.8137886 123.7202551 120.6905755
  75.0313532 123.4526055 122.1646549  75.1226519 105.0289235 122.2986008
  75.4285396 104.1686599 122.0111923  75.8479124 105.6206855 122.0985002
  61.4150875 115.4319922 120.6867606  61.2175275 114.8389282 119.9618673
  60.8597539 115.1272132 121.4043545  69.3947599 115.3243028 122.8062199
  69.4496208 114.3716865 122.7304676  68.5838801 115.4802467 123.2903498
  70.5438792 119.2523151 114.0440483  70.1058222 118.5359010 113.5846120
  71.2849233 119.4799266 113.4825574  67.3339959 113.9420088 120.5652578
  66.5207824 114.2414259 120.9717770  67.8298953 113.5475777 121.2827061
  69.4848536 123.9377845 122.4986843  69.4424715 124.1638691 121.5695375
  70.4011235 123.7041219 122.6472644  72.9314170 114.4061912 129.3967472
  73.2863558 114.6333386 130.2561938  73.5786301 114.7380289 128.7744727
  78.6611907 117.5280348 120.1016801  78.5229806 117.7181944 119.1737990
  78.3048126 118.2899731 120.5584852  66.8254033 111.5138443 126.1813813
  67.4653413 111.3727203 125.4836777  65.9931564 111.2272957 125.8052415
  67.6014337 120.8140874 122.2948806  68.3954936 120.3191194 122.0931381
  66.8906030 120.2858737 121.9316511  63.9097101 114.9583956 118.3708558
  62.9794689 114.8968411 118.5878521  64.0054573 114.4359908 117.5745200
  63.8282650 111.4838768 120.9586800  64.0889467 112.3984102 120.8495961
  64.6499822 111.0163211 121.1083413  65.3007575 112.8976526 128.1285625
  65.9730629 112.6893888 127.4798273  64.4737362 112.6998612 127.6890857
  71.2033147 109.5238467 130.1451285  70.5561062 110.2228416 130.0515762
  71.9734162 109.9574610 130.5127534  71.3797281 117.3619231 128.2048105
  72.3089341 117.5130391 128.0317072  70.9588311 117.4503252 127.3496752
  70.1785613 121.3869896 125.9746643  70.0396699 121.0188680 126.8472581
  69.3900209 121.9017535 125.8030601  70.7733765 126.4878992 117.3172179
  70.9485521 126.0167036 118.1317802  70.0866553 127.1144759 117.5453440
  71.7290828 120.7651499 123.3635481  71.3940661 120.7252269 124.2593130
  71.2294774 120.0996215 122.8905891  65.7035072 116.1719129 128.8888062
  65.5654870 115.4399367 129.4899601  66.6139996 116.0828029 128.6072249
  74.6650020 118.1107533 113.6372540  74.0479191 117.3854361 113.5405593
  74.1966508 118.8716893 113.2939614  68.3317373 115.8839088 128.3771741
  69.0416992 115.2432280 128.3358360  68.2886681 116.1351983 129.2997922
  67.0446307 112.8704306 130.1967381  66.5083664 112.4195044 130.8488977
  66.4563015 113.0050215 129.4537845  66.4548566 112.3292957 112.7593845
  65.5778032 112.2081758 112.3956091  66.9306319 111.5379036 112.5072733
  57.9750706 117.1170117 122.8535352  58.6621746 116.8031847 122.2656367
  57.8198835 118.0211482 122.5802603  62.7785428 112.0060314 127.2820375
  62.6943617 111.3985983 126.5470785  61.9568135 112.4969332 127.2829872
  69.6412492 124.6819248 120.0056365  68.8580014 125.2240928 120.0994590
  70.3405237 125.1993227 120.4050606  72.9509142 110.4913877 122.6490570
  73.4477842 109.7383839 122.3291641  72.1796124 110.5278194 122.0833780
  80.8038899 116.1954243 124.2908862  80.7928776 117.0778958 123.9202795
  79.9356279 115.8425793 124.0963399  74.0338923 119.2485564 120.2228994
  73.0995202 119.3687027 120.0533698  74.2115591 118.3458031 119.9589004
  69.5344111 112.6331260 122.3762255  69.1641898 112.0802300 123.0643161
  70.0303203 112.0289394 121.8237255  77.4211474 115.0902884 120.7579028
  77.8871926 115.9230875 120.6839331  77.8718975 114.6247865 121.4624286
  75.4887705 121.4346705 117.7565180  75.7647549 121.3203299 118.6659054
  74.6192204 121.0364190 117.7177353  75.3928137 107.4583471 124.7969929
  74.4791217 107.6887697 124.9652136  75.8221238 107.5421915 125.6483962
  75.1634595 115.6473363 127.2969823  74.5106046 115.8949270 126.6422276
  75.5414975 114.8337501 126.9632301  72.1241769 125.6833056 121.3997994
  72.3064164 124.8654712 121.8625746  72.9474755 125.9000748 120.9622884
  72.4583935 124.6101241 118.6613042  72.9871701 124.0993695 118.0483204
  72.7212154 124.2943771 119.5258575  62.9601027 122.6265110 126.4048376
  63.5454464 121.8808798 126.5376280  62.7625866 122.9369067 127.2885040
  65.8139683 125.6616358 121.4210818  65.1450058 126.1462485 120.9374858
  65.6752552 125.9085578 122.3354197  57.5518682 115.1970710 125.1252819
  57.5902782 114.6634301 125.9189937  57.0458975 114.6705916 124.5063796
  64.9309444 110.0435251 128.6215361  64.9950771 110.9050082 128.2092759
  64.8676565 109.4309252 127.8887720  64.4061717 112.1158383 132.2688395
  65.0333756 111.7335461 132.8825920  63.5489636 111.8972585 132.6344088
  61.1827260 113.9234812 118.2006750  61.4780701 113.0145491 118.1473804
  60.2815296 113.9022552 117.8787753  64.7121507 111.9990809 124.1834299
  63.9908093 112.6126777 124.0441772  65.5014763 112.5348574 124.1050945
  67.5147820 109.3345236 130.4574951  68.0382222 109.5807532 131.2201260
  67.2960154 110.1665270 130.0378088  62.9115101 111.6048910 118.3246075
  62.5827808 110.7246289 118.1421181  63.2654472 111.5496579 119.2122465
  72.1594680 123.2403813 122.8341061  72.0119643 122.3120520 123.0148631
  72.9848174 123.2623904 122.3498136  66.0256925 111.8921880 118.6921553
  66.3652997 112.4207801 117.9700161  66.4729045 112.2302286 119.4680120
  68.7200365 110.2758931 128.1424621  68.3797186 109.4766744 128.5445301
  68.0139372 110.5760642 127.5701454  69.3716837 107.3608243 126.5951944
  70.1942906 106.8868721 126.4730834  69.6154901 108.1398727 127.0950630
  68.0125072 110.3896502 116.8914846  68.7333434 110.7677754 116.3878563
  67.3890376 111.1085378 116.9949824  72.1556195 111.0941651 117.8273178
  72.3719809 111.9766288 117.5262006  71.6750262 110.7027864 117.0978820
  66.8955416 114.0527364 124.4043923  66.7499997 114.3667667 125.2968204
  66.4180620 114.6712264 123.8514821  68.7551799 111.0429912 124.4524812
  68.7413368 110.1471005 124.1157110  69.4724227 111.0500575 125.0863098
  70.6077930 111.4767252 126.4977940  70.3495707 112.3984323 126.4962270
  70.0762970 111.0797686 127.1878404  75.5524118 124.5818039 119.2768025
  75.7260996 124.0164462 118.5241878  76.0453010 125.3818934 119.0947515
  61.3701078 116.5932708 127.3431584  60.8254546 117.3692516 127.4751858
  62.2480428 116.9403513 127.1850705  68.1588695 109.9244292 119.7212382
  68.2804606 108.9960938 119.9203270  67.8690737 109.9382978 118.8090698
  71.0279885 107.6099202 122.8579102  71.0501582 107.6738536 121.9031082
  71.4447944 106.7703711 123.0519608  81.4063509 117.3454462 120.8958325
  81.8494655 116.5961787 120.4977448  80.5290020 117.3364598 120.5132057
  76.5399291 123.8984803 116.3764923  77.2350195 124.5191496 116.5952238
  76.8822441 123.0480155 116.6517301  62.1567100 115.7202604 130.2361741
  61.4148836 115.8685240 130.8226371  61.8359844 115.9810870 129.3728490
  78.4390714 121.3484509 117.9052254  78.9642038 121.6871782 117.1801574
  78.3513066 120.4131524 117.7215389  70.1231375 127.4156492 122.2647507
  69.6836365 126.9232871 122.9580364  70.8739492 126.8729460 122.0239583
  62.6023714 123.6068033 122.2672135  63.4281734 123.3071805 121.8870779
  62.2517766 122.8375656 122.7161924  67.5705247 122.9594501 124.3369809
  66.9485256 122.2965206 124.0372037  68.2410114 122.9855633 123.6543457
  60.8032319 121.5254360 123.2261069  59.9664227 121.0976534 123.0445070
  60.7755964 121.7186803 124.1631860  67.6429774 111.4376289 133.9302315
  67.6917930 112.3138412 133.5480085  68.1852288 110.8953682 133.3573958
  67.1318754 121.5098425 117.8128270  67.2806874 122.1933889 117.1594942
  67.9385197 121.4903515 118.3277725  69.8729063 112.1907662 130.6848674
  69.0032372 112.4841228 130.4131262  70.1088543 112.7748107 131.4055937
  80.9496374 118.8159700 123.2880772  81.7843266 119.2549504 123.4518333
  81.0855503 118.3398353 122.4689018  64.8871387 117.5363602 118.8189338
  64.6417429 116.6325932 119.0169549  65.0567301 117.5380753 117.8768816
  72.5768097 108.4087279 128.2014094  73.0950040 109.1448306 127.8760583
  72.2223229 108.7151272 129.0360853  64.1567034 113.2691960 116.3175500
  63.4636279 113.3436315 115.6615536  63.9118786 112.5052304 116.8397017
  72.8280691 104.8287561 123.7214991  73.1082445 104.1610750 124.3475417
  73.6131298 105.0216657 123.2089654  70.6314159 124.0046555 115.2840017
  70.0588126 124.6236742 114.8310489  71.2046953 124.5545917 115.8179939
  76.6989549 113.2505195 127.4686566  77.6506972 113.3503293 127.4898790
  76.5292999 112.4583464 127.9784650  74.7203929 110.3360778 127.6545967
  74.1253861 110.6165791 126.9592455  74.4353625 110.8254679 128.4262708
  73.8511419 124.2883705 116.4148599  74.7842092 124.2229267 116.6181475
  73.7634632 125.1239972 115.9563132  76.4799436 123.6049576 113.3752547
  76.4013067 123.2709439 114.2688305  77.3009102 124.0971344 113.3744019
  79.1777627 116.4711315 126.5828865  79.1453947 115.5327316 126.7688549
  79.7878251 116.5495352 125.8494690  71.0160958 115.3407368 112.6256069
  71.9620062 115.2113576 112.6944487  70.6375203 114.6022030 113.1025498
  79.3272115 113.2622358 126.6287149  78.8111164 112.4780815 126.4417077
  80.2112064 112.9341075 126.7933668  76.9882842 107.0063374 122.5882961
  76.7907663 106.6978462 123.4726293  77.5982548 107.7325013 122.7180891
  69.2003875 113.2657344 112.5610955  68.2935330 112.9690457 112.6373668
  69.4779856 112.9687162 111.6945241  60.1181815 114.5863708 123.0110001
  59.7984600 113.7329016 122.7184375  59.5715243 114.8012286 123.7667968
  63.8961723 117.3026149 126.7279508  64.1147733 118.2343256 126.7467541
  64.3087497 116.9434123 127.5134311  70.8165941 107.8094234 118.7155196
  70.0066669 107.4641319 119.0910442  71.5050358 107.5001778 119.3042808
  72.7456489 106.8872281 120.3379493  73.2987528 107.3067734 120.9969516
  72.9826575 105.9608029 120.3802449  67.9702660 110.1244279 112.7022934
  68.8321824 110.4499178 112.9618751  68.1553004 109.3375775 112.1896000
  59.9870075 118.2066619 124.9803123  59.2933547 117.7920572 124.4673077
  60.7343066 118.2487156 124.3836542  76.1235296 108.9972806 119.8458157
  75.5433965 109.6557610 119.4636209  75.8571229 108.1750151 119.4345574
  74.5738862 108.3977864 122.0479477  75.0738641 108.5094398 121.2393796
  75.2174470 108.0938917 122.6880286  61.9006818 118.1384873 122.8569138
  61.8777506 118.2372560 121.9051021  62.2107454 118.9850024 123.1786304
  64.5594196 120.1961028 126.9715752  65.5137449 120.1644970 126.9045684
  64.3606719 119.7351652 127.7865978  65.1493578 118.7662144 129.5386550
  65.9686467 119.2606223 129.5621387  65.4230386 117.8494112 129.5104117
  74.9060174 111.1572896 118.9014505  74.0186029 111.4422547 118.6834700
  75.3214163 110.9966660 118.0541782  78.2574710 111.1819417 122.6168844
  79.0335100 111.6715870 122.8893461  77.5322844 111.6077472 123.0740714
  80.6947269 111.8947037 123.6742785  81.2891760 111.6542772 122.9636093
  80.7673852 111.1754167 124.3016321  62.9144424 125.7380647 123.9885950
  62.7798892 124.9781048 123.4223948  62.4976487 126.4621547 123.5214739
  74.0503387 120.9217571 112.9962525  74.7539238 121.1267574 113.6120181
  73.3266036 121.4894333 113.2611609  74.8801198 116.6727432 119.1164795
  74.8236399 117.1295984 118.2772428  75.4329540 115.9118117 118.9387638
  78.6906004 112.4617164 119.9414915  78.4342938 112.0613800 120.7723122
  78.0658872 113.1760958 119.8165054  83.0018342 115.2013237 122.4486206
  82.4417899 115.2706427 123.2217768  82.3961845 115.0254222 121.7285702
  66.0713550 126.6349964 124.2004392  65.9545934 127.5795397 124.0983083
  65.2505997 126.3323526 124.5890192  75.9590085 121.3600100 115.0460985
  76.7935689 120.9281299 114.8638460  75.7974428 121.1882114 115.9737880
  75.6135977 117.8632214 116.4117324  75.5584781 117.6976485 115.4705769
  74.9882032 118.5708246 116.5679514  60.4028492 113.1000278 130.2378747
  61.0487356 112.5899232 130.7265972  60.1945643 113.8368960 130.8122172
  68.9232103 107.3640323 115.9902643  68.9110772 108.3082162 116.1470914
  69.8155524 107.1810468 115.6962104  68.8521666 126.0409213 124.0770400
  67.9017297 126.0411075 123.9634772  69.1554153 125.2941947 123.5606434
  72.7384222 103.9583099 120.2448580  71.9716618 103.4041586 120.3905262
  73.1494927 104.0304968 121.1062731  64.7425983 110.2467895 134.3353761
  65.6057445 109.8904700 134.5457085  64.1691394 109.9081790 135.0229165
  79.0972346 130.5985427 114.4094627  79.3497866 130.0766948 113.6478090
  78.1596905 130.4351572 114.5121310  78.8168634 132.5013533 116.6119002
  78.7004892 131.8258436 117.2800086  78.9270894 132.0145907 115.7951155
  80.8005662 126.9913580 115.3127039  80.9680065 127.8593816 115.6797510
  80.6102831 127.1540861 114.3888329  80.7794883 129.4471237 116.2973706
  80.6594508 129.8928288 117.1359187  80.0847472 129.7956555 115.7387244
  75.2686459 129.3844221 120.8507882  74.4717622 129.4962915 121.3691378
  75.0412051 129.7230873 119.9848773  84.1282890 131.0896205 115.7040706
  83.6129514 131.8600809 115.9429093  83.8560199 130.4161341 116.3273767
  77.4203940 127.8137647 115.5595938  76.5841252 128.1512334 115.8805212
  77.2808710 127.6786627 114.6223075  79.3957021 122.6574435 120.2675122
  78.7421433 122.3423453 119.6431737  79.3537495 122.0350176 120.9934945
  80.5068226 132.9393730 112.1828414  79.5995287 132.7082984 112.3819563
  81.0039258 132.1431350 112.3702396  72.2544629 130.7611839 120.6867606
  72.0569029 130.1681200 119.9618673  71.6991293 130.4564050 121.4043545
  81.3832547 134.5815069 114.0440483  80.9451977 133.8650928 113.5846120
  82.1242988 134.8091184 113.4825574  74.7490855 130.2875873 118.3708558
  73.8188443 130.2260329 118.5878521  74.8448327 129.7651826 117.5745200
  74.6676404 126.8130686 120.9586800  74.9283222 127.7276019 120.8495961
  75.4893577 126.3455129 121.1083413  85.5043775 133.4399451 113.6372540
  84.8872945 132.7146279 113.5405593  85.0360263 134.2008811 113.2939614
  77.2942320 127.6584875 112.7593845  76.4171787 127.5373676 112.3956091
  77.7700073 126.8670953 112.5072733  72.0221014 129.2526730 118.2006750
  72.3174455 128.3437409 118.1473804  71.1209050 129.2314470 117.8787753
  73.7508856 126.9340828 118.3246075  73.4221562 126.0538207 118.1421181
  74.1048227 126.8788497 119.2122465  76.8650679 127.2213798 118.6921553
  77.2046752 127.7499719 117.9700161  77.3122799 127.5594204 119.4680120
  78.8518826 125.7188419 116.8914846  79.5727189 126.0969672 116.3878563
  78.2284130 126.4377296 116.9949824  82.9949949 126.4233568 117.8273178
  83.2113563 127.3058206 117.5262006  82.5144016 126.0319782 117.0978820
  78.9982449 125.2536210 119.7212382  79.1198360 124.3252856 119.9203270
  78.7084492 125.2674896 118.8090698  75.7265141 132.8655520 118.8189338
  75.4811183 131.9617850 119.0169549  75.8961056 132.8672670 117.8768816
  74.9960789 128.5983878 116.3175500  74.3030034 128.6728233 115.6615536
  74.7512541 127.8344221 116.8397017  81.8554712 130.6699286 112.6256069
  82.8013817 130.5405494 112.6944487  81.4768957 129.9313947 113.1025498
  80.0397629 128.5949262 112.5610955  79.1329085 128.2982375 112.6373668
  80.3173610 128.2979080 111.6945241  81.6559695 123.1386152 118.7155196
  80.8460423 122.7933237 119.0910442  82.3444112 122.8293695 119.3042808
  83.5850243 122.2164198 120.3379493  84.1381282 122.6359652 120.9969516
  83.8220330 121.2899947 120.3802449  78.8096414 125.4536197 112.7022934
  79.6715578 125.7791095 112.9618751  78.9946758 124.6667693 112.1896000
  79.7625857 122.6932240 115.9902643  79.7504527 123.6374080 116.1470914
  80.6549279 122.5102386 115.6962104  83.5777976 119.2875017 120.2448580
  82.8110372 118.7333504 120.3905262  83.9888681 119.3596886 121.1062731
  17.7987915  22.3814240 103.1034349  17.1475895  22.9668320 102.7168363
  18.5932278  22.9120435 103.1629387  14.0609820  15.6296043 101.1339933
  14.3135341  15.1077565 100.3723396  13.1234379  15.4662189 101.2366617
  19.2763180  20.0704672 103.6403333  18.6409013  20.1439299 104.3524238
  18.9460587  20.6598271 102.9622413  13.5039250  27.2485495 106.6709144
  13.4263279  28.1993320 106.7497625  12.9000893  26.9031368 107.3284070
  21.4417424  14.9503327 103.8499347  22.3535280  15.1830714 103.6747044
  20.9327071  15.5340371 103.2874426  23.9276238  20.8683583 108.5957292
  23.2427276  21.2482484 108.0454325  24.0120087  21.4778910 109.3289240
  15.7777618  22.6067648 105.3914684  15.6423293  23.4519184 105.8199532
  16.3187431  22.8086926 104.6280618  19.0920365  16.1206821 102.4286012
  18.5766988  16.8911426 102.6674400  18.8197673  15.4471957 103.0519074
  24.0654639  18.8739176 104.3639186  23.2884082  18.5350335 103.9194348
  24.7446120  18.8791799 103.6894151  15.4705700  17.9704347  98.9073721
  14.5632762  17.7393600  99.1064870  15.9676732  17.1741966  99.0947702
  18.3773779  26.6801854 101.8270407  17.7035478  26.9833551 102.4355365
  18.7639601  27.4830935 101.4775864  16.6493933  18.0716942 103.4297711
  15.7405153  17.7875975 103.5270180  16.6789017  18.4916020 102.5701018
  21.8813201  21.6823531 107.1988878  21.4275528  20.8414441 107.2554069
  21.2507168  22.3184930 107.5363658  20.3246140  23.5200028 108.1338696
  20.6169114  24.0805085 107.4151062  20.8344761  23.8128589 108.8891856
  16.3470021  19.6125686 100.7685789  15.9089451  18.8961544 100.3091427
  17.0880462  19.8401800 100.2070881  24.4643136  17.8882883 106.8262108
  24.3261035  18.0784479 105.8983297  24.1079355  18.6502265 107.2830159
  16.5764994  26.8481527 104.0417486  16.7516750  26.3769570 104.8563109
  15.8897782  27.4747293 104.2698747  20.4681249  18.4710067 100.3617847
  19.8510419  17.7456895 100.2650900  19.9997737  19.2319427 100.0184921
  15.4443721  25.0421782 106.7301672  14.6611243  25.5843462 106.8239896
  16.1436466  25.5595761 107.1295913  21.2918934  21.7949239 104.4810487
  21.5678778  21.6805834 105.3904361  20.4223433  21.3966724 104.4422660
  17.9272998  26.0435590 108.1243300  18.1095393  25.2257246 108.5871053
  18.7505984  26.2603282 107.6868190  18.2615164  24.9703775 105.3858349
  18.7902930  24.4596230 104.7728511  18.5243383  24.6546305 106.2503882
  21.3555347  24.9420573 106.0013332  21.5292225  24.3766996 105.2487184
  21.8484238  25.7421468 105.8192822  27.2094738  17.7056996 107.6203631
  27.6525884  16.9564321 107.2222755  26.3321249  17.6967133 107.2377363
  22.3430520  24.2587338 103.1010230  23.0381424  24.8794030 103.3197545
  22.6853670  23.4082689 103.3762608  24.2421943  21.7087043 104.6297561
  24.7673267  22.0474316 103.9046881  24.1544295  20.7734059 104.4460695
  12.9349982  21.8700959 104.5373576  13.0838103  22.5536423 103.8840249
  13.7416426  21.8506049 105.0523032  16.4345388  24.3649089 102.0085324
  15.8619355  24.9839276 101.5555795  17.0078182  24.9148451 102.5425246
  19.6542648  24.6486239 103.1393906  20.5873321  24.5831801 103.3426781
  19.5665861  25.4842506 102.6808439  22.2830664  23.9652110 100.0997853
  22.2044296  23.6311973 100.9933611  23.1040331  24.4573878 100.0989326
  16.8192187  15.7009902  99.3501376  17.7651291  15.5716110  99.4189794
  16.4406431  14.9624564  99.8270804  15.0035104  13.6259878  99.2856261
  14.0966559  13.3292991  99.3618975  15.2811085  13.3289697  98.4190548
  19.8534616  21.2820105  99.7207832  20.5570466  21.4870108 100.3365487
  19.1297265  21.8496867  99.9856915  21.7621314  21.7202634 101.7706292
  22.5966918  21.2883833 101.5883767  21.6005657  21.5484648 102.6983186
  21.4167206  18.2234748 103.1362631  21.3616010  18.0579019 102.1951075
  20.7913261  18.9310781 103.2924821  30.3905589  32.2372286 111.8661469
  31.0283999  32.1179033 111.1624809  30.2726432  33.1853129 111.9249421
  27.1995295  32.1899714 111.8022993  26.8613807  32.0740778 110.9143528
  28.0685063  31.7890879 111.7823999  23.0582111  34.0435190 107.7919884
  22.4946976  33.9525127 107.0236172  22.9434506  33.2235095 108.2722377
  20.6046543  35.5386382 110.6304105  21.3967835  35.1977206 110.2150404
  20.8443193  35.6481357 111.5506258  28.6381669  37.7106158 103.1034349
  27.9869649  38.2960238 102.7168363  29.4326032  38.2412353 103.1629387
  22.5637297  34.7995295 103.5021483  23.3368173  34.2524282 103.3634359
  22.9162695  35.6639544 103.7135945  24.4022339  36.1271677 116.7088383
  24.1112205  37.0317308 116.5935049  25.0379324  36.1688205 117.4232452
  25.3278546  33.5048526 113.2989742  25.9242118  33.2804548 112.5846705
  25.3853518  32.7633271 113.9015190  24.9003574  30.9587961 101.1339933
  25.1529095  30.4369482 100.3723396  23.9628134  30.7954106 101.2366617
  29.9446857  29.9623739 108.9414677  30.7309946  29.5443163 108.5905094
  30.2085562  30.8669832 109.1096325  30.1156935  35.3996590 103.6403333
  29.4802768  35.4731216 104.3524238  29.7854341  35.9890189 102.9622413
  35.3455284  29.8998973 109.8447655  36.0780456  29.3298189 110.0785485
  34.5894640  29.5120573 110.2854161  24.6199863  32.8616067 103.3364308
  24.5036121  32.1860970 104.0045393  24.7302123  32.3748441 102.5196461
  26.9631404  32.3226214 107.0410998  26.5989611  31.7956835 107.7523919
  27.8198520  31.9324683 106.8677483  26.6036891  27.3516114 102.0372346
  26.7711293  28.2196350 102.4042817  26.4134060  27.5143395 101.1133635
  29.3612224  35.8133093 113.7038176  29.0612947  36.7158131 113.5953984
  29.0163284  35.5465276 114.5559329  22.8124706  32.2646890 109.7374881
  21.8875202  32.1323104 109.9452573  23.0609119  33.0441109 110.2344823
  32.7609368  28.3315633 111.3835614  31.8526245  28.2631041 111.0894375
  32.7096964  28.8087578 112.2117439  26.5826112  29.8073771 103.0219013
  26.4625737  30.2530822 103.8604493  25.8878700  30.1559089 102.4632551
  20.1733517  31.9080163 110.5718670  20.3025898  32.1614642 111.4858082
  19.4930968  32.5007871 110.2523325  24.3433004  42.5777413 106.6709144
  24.2657034  43.5285238 106.7497625  23.7394648  42.2323286 107.3284070
  34.6271014  26.5332071 113.1613488  33.9845395  26.8264604 112.5153282
  34.1225943  26.4184992 113.9666684  32.2811178  30.2795244 103.8499347
  33.1929034  30.5122631 103.6747044  31.7720825  30.8632289 103.2874426
  30.5651946  34.7019872 117.4860640  30.9735302  34.2602283 116.7415272
  29.8429207  34.1272500 117.7394832  30.8880760  35.2621063 111.2412928
  30.2589623  35.4266777 110.5388996  30.5006423  35.6762672 112.0123892
  34.7669992  36.1975501 108.5957292  34.0821030  36.5774402 108.0454325
  34.8513842  36.8070827 109.3289240  32.0220924  33.8435460 115.1952636
  32.2337819  34.4867220 114.5187017  31.9750672  33.0097776 114.7274566
  29.6247153  26.4553280 112.0989208  28.7631632  26.7534534 112.3905945
  29.6509588  26.6723679 111.1670240  26.4408722  34.9995471 108.5063013
  26.9047068  35.2783174 107.7167636  26.1765520  34.0978916 108.3236104
  23.3332803  34.5466953 111.4442777  23.9034160  34.9754221 110.8060261
  23.9240915  34.2649537 112.1426962  25.3777608  31.1218623 105.3152579
  26.0801652  31.5739667 105.7826505  25.0458237  30.4802442 105.9432472
  19.1202942  29.3802176 110.6169712  18.3301996  29.6359705 110.1409823
  19.6114190  30.1950514 110.7221753  33.1366752  36.7207415 113.3674993
  33.9584196  36.3187602 113.0857675  33.1329155  36.6175649 114.3191109
  21.0717688  29.7446755 107.5753189  20.2748851  29.8565450 108.0936685
  20.8443280  30.0833407 106.7094079  26.9023355  36.2691458 115.5235704
  26.9667788  36.7311866 116.3593875  26.1934279  35.6388823 115.6518013
  41.2272745  33.0646164 109.7159964  40.4736453  32.4953562 109.5603969
  41.3620286  33.0308828 110.6630599  26.6171373  37.9359566 105.3914684
  26.4817048  38.7811102 105.8199532  27.1581185  38.1378844 104.6280618
  20.0700770  35.4535004 105.9642609  20.5825291  36.2478254 106.1148174
  20.7223483  34.7561294 105.8976210  21.8795655  38.5700760 108.0465362
  22.0562283  39.4918725 107.8586346  22.6752489  38.2559180 108.4759742
  28.2439849  38.5583132 119.5215026  27.8003704  37.7719511 119.2035930
  28.9057063  38.7462283 118.8558917  23.0026971  40.0878934 114.0475704
  23.5534396  39.9595997 113.2752698  22.1638446  40.3873823 113.6970597
  30.3421087  38.8385932 117.5496427  30.3239563  39.6594813 117.0576696
  31.2641007  38.7140008 117.7746568  18.0349687  33.7823658 106.7402179
  18.8724909  34.1920667 106.5235887  18.2127955  32.8423100 106.7102373
  29.9314119  31.4498739 102.4286012  29.4160743  32.2203344 102.6674400
  29.6591428  30.7763875 103.0519074  27.5161230  26.2948440 107.4871251
  26.6602827  25.9055290 107.3076890  27.9288182  26.3740401 106.6271036
  29.0460377  23.8294783 111.8862811  28.5425173  23.7924918 111.0730616
  29.3390984  24.7387526 111.9459467  34.9048393  34.2031094 104.3639186
  34.1277836  33.8642253 103.9194348  35.5839874  34.2083717 103.6894151
  29.7200422  29.3225831 104.2545794  29.4150558  29.6371980 105.1055937
  30.6730865  29.4007251 104.2973127  28.1646854  35.4816054 105.9038748
  27.6368216  34.7468814 105.5911985  27.6634357  36.2590731 105.6578716
  33.1439700  33.6765075 111.0205794  32.4863375  34.3664336 111.1085923
  33.9480100  34.0661507 111.3639780  22.8965582  26.1435721 108.2645359
  23.4709334  25.9210902 107.5318552  23.4836564  26.2124415 109.0173960
  31.9545159  32.0309448 109.0709736  32.4677041  32.6639439 109.5731445
  32.6046383  31.4310643 108.7053096  23.2235169  28.1740182 102.2841244
  22.3872481  28.5114868 102.6050519  23.0839939  28.0389161 101.3468381
  25.1988250  23.0176970 106.9920429  24.5452662  22.7025987 106.3677043
  25.1568724  22.3952710 107.7180251  26.3099454  33.2996265  98.9073721
  25.4026516  33.0685518  99.1064870  26.8070486  32.5033884  99.0947702
  29.2167533  42.0093772 101.8270407  28.5429232  42.3125469 102.4355365
  29.6033355  42.8122852 101.4775864  28.4325990  29.5058903 111.3168076
  27.5148551  29.7273850 111.1589764  28.8486134  29.5805214 110.4579783
  29.2161038  30.9050319 106.4470756  29.9632857  31.4171716 106.1377878
  29.4852627  30.5834372 107.3075150  27.4887688  33.4008860 103.4297711
  26.5798907  33.1167892 103.5270180  27.5182772  33.8207938 102.5701018
  32.7206955  37.0115449 107.1988878  32.2669282  36.1706359 107.2554069
  32.0900922  37.6476847 107.5363658  31.6639875  27.9407435 108.4289546
  30.9262632  27.4284821 108.7599788  31.9166648  27.5007817 107.6172823
  31.1639895  38.8491946 108.1338696  31.4562869  39.4097003 107.4151062
  31.6738515  39.1420507 108.8891856  31.7651502  20.7183687 109.0231315
  32.0710379  19.8581050 108.7357230  32.4904107  21.3101307 108.8230309
  18.0575858  31.1214374 107.4112913  17.8600258  30.5283734 106.6863979
  17.5022522  30.8166584 108.1288852  26.0372582  31.0137480 109.5307506
  26.0921192  30.0611317 109.4549983  25.2263784  31.1696919 110.0148804
  27.1863776  34.9417603 100.7685789  26.7483206  34.2253462 100.3091427
  27.9274217  35.1693718 100.2070881  23.9764942  29.6314540 107.2897885
  23.1632807  29.9308710 107.6963077  24.4723936  29.2370229 108.0072367
  26.1273520  39.6272297 109.2232150  26.0849699  39.8533143 108.2940682
  27.0436219  39.3935671 109.3717951  35.3036890  33.2174800 106.8262108
  35.1654789  33.4076396 105.8983297  34.9473109  33.9794183 107.2830159
  35.3306270  35.2851327 111.8373379  35.7642777  35.1926616 112.6856433
  36.0437851  35.2608828 111.1993395  24.2439321  36.5035326 109.0194112
  25.0379919  36.0085646 108.8176687  23.5331013  35.9753189 108.6561818
  29.0634165  38.8853421 113.3706480  29.1171187  39.4544358 114.1384196
  28.1948946  39.0555306 113.0060517  20.5522084  30.6478408 105.0953865
  19.6219672  30.5862863 105.3123827  20.6479556  30.1254360 104.2990506
  20.4707633  27.1733220 107.6832107  20.7314450  28.0878554 107.5741267
  21.2924805  26.7057663 107.8328719  36.1921820  35.3275028 114.3706265
  36.3857710  36.2320838 114.6165540  36.0922438  34.8682447 115.2044850
  31.2536928  35.4781771 119.9447145  31.1022435  35.2492322 119.0277229
  31.2441608  36.4352372 119.9578490  28.0222265  33.0513683 114.9293412
  28.9514325  33.2024843 114.7562379  27.6013295  33.1397704 114.0742058
  26.8210597  37.0764348 112.6991949  26.6821682  36.7083132 113.5717888
  26.0325193  37.5911987 112.5275907  27.4158748  42.1773444 104.0417486
  27.5910504  41.7061487 104.8563109  26.7291537  42.8039210 104.2698747
  28.3715812  36.4545950 110.0880787  28.0365644  36.4146720 110.9838437
  27.8719757  35.7890666 109.6151197  31.3075003  33.8001985 100.3617847
  30.6904174  33.0748813 100.2650900  30.8391492  34.5611345 100.0184921
  32.9629135  38.5100893 118.0223627  32.9041681  37.8260113 117.3554210
  33.3648653  39.2519883 117.5704253  21.9819834  45.3262807 110.8157346
  22.2216432  45.9581331 111.4936365  21.1389030  44.9750847 111.1022705
  23.0973549  28.0187409  99.4839151  22.2203016  27.8976210  99.1201398
  23.5731302  27.2273487  99.2318040  32.9646542  36.4740477 116.2537607
  32.0773321  36.1366399 116.3764006  33.5345093  35.7423508 116.4906372
  14.6175689  32.8064569 109.5780658  15.3046729  32.4926299 108.9901674
  14.4623818  33.7105934 109.3047910  26.4947696  41.1341929 113.2198850
  26.4217867  41.9396901 113.7318155  26.0525089  41.3333895 112.3946871
  26.2837475  40.3713699 106.7301672  25.5004997  40.9135380 106.8239896
  26.9830220  40.8887679 107.1295913  29.5934125  26.1808329 109.3735877
  30.0902825  25.4278291 109.0536947  28.8221107  26.2172646 108.8079086
  37.4463883  31.8848694 111.0154169  37.4353759  32.7673410 110.6448102
  36.5781262  31.5320245 110.8208706  28.9546379  41.0328763 115.3757009
  29.6674351  41.6676228 115.3032910  28.4636408  41.1292629 114.5597011
  30.6763906  34.9380016 106.9474300  29.7420185  35.0581479 106.7779005
  30.8540575  34.0352483 106.6834310  26.1769094  28.3225712 109.1007562
  25.8066882  27.7696752 109.7888467  26.6728187  27.7183845 108.5482562
  34.0636457  30.7797335 107.4824335  34.5296910  31.6125327 107.4084637
  34.5143958  30.3142317 108.1869593  24.0058293  38.7823207 116.1962580
  24.7067752  39.4159690 116.3491974  23.5353408  39.1237939 115.4358219
  32.1312689  37.1241157 104.4810487  32.4072532  37.0097751 105.3904361
  31.2617187  36.7258642 104.4422660  32.0353120  23.1477922 111.5215236
  31.1216200  23.3782149 111.6897443  32.4646222  23.2316367 112.3729268
  31.8059579  31.3367814 114.0215130  31.1531029  31.5843722 113.3667583
  32.1839959  30.5231953 113.6877607  28.7666753  41.3727508 108.1243300
  28.9489147  40.5549164 108.5871053  29.5899739  41.5895200 107.6868190
  29.1008918  40.2995693 105.3858349  29.6296684  39.7888147 104.7728511
  29.3637138  39.9838223 106.2503882  19.6026011  38.3159562 113.1293682
  20.1879448  37.5703250 113.2621586  19.4050849  38.6263519 114.0130346
  22.4564666  41.3510809 108.1456125  21.7875041  41.8356937 107.6620165
  22.3177536  41.5980030 109.0599503  26.5969935  43.3854553 114.7438783
  27.1488243  43.5486174 115.5087868  26.9376128  43.9758991 114.0718808
  31.4480809  38.2115810 120.5987437  31.9920713  38.8245769 120.1042392
  30.8667654  38.7695389 121.1154450  17.8252243  29.6129264 104.9252057
  18.1205684  28.7039943 104.8719111  16.9240279  29.5917004 104.6033059
  29.7338322  41.3336528 111.7302465  29.6089461  40.5326268 111.2213411
  30.3917413  41.8282722 111.2416435  21.3546490  27.6885261 110.9079605
  20.6333076  28.3021229 110.7687079  22.1439746  28.2243026 110.8296251
  31.7973230  39.1345549 113.3582015  30.8503566  39.0150900 113.2860342
  32.1456003  38.2468047 113.4408277  19.5540085  27.2943362 105.0491382
  19.2252791  26.4140741 104.8666488  19.9079455  27.2391031 105.9367771
  28.8019664  38.9298265 109.5586367  28.6544626  38.0014972 109.7393938
  29.6273157  38.9518355 109.0743443  22.6681908  27.5816332 105.4166860
  23.0077980  28.1102253 104.6945468  23.1154028  27.9196738 106.1925426
  32.4053785  39.7526823 110.6451240  33.3300333  39.5469685 110.5075691
  32.2369089  39.5043225 111.5540582  24.6550055  26.0790953 103.6160152
  25.3758417  26.4572206 103.1123869  24.0315359  26.7979830 103.7195130
  28.7981178  26.7836102 104.5518485  29.0144792  27.6660740 104.2507313
  28.3175245  26.3922316 103.8224127  23.5380399  29.7421816 111.1289229
  23.3924980  30.0562119 112.0213511  23.0605603  30.3606716 110.5760128
  25.3976782  26.7324364 111.1770119  25.3838351  25.8365457 110.8402417
  26.1149210  26.7395027 111.8108405  32.1949102  40.2712491 106.0013332
  32.3685979  39.7058913 105.2487184  32.6877993  41.0713386 105.8192822
  24.8013678  25.6138744 106.4457689  24.9229589  24.6855390 106.6448577
  24.5115720  25.6277430 105.5336004  27.6704868  23.2993654 109.5824409
  27.6926565  23.3632987 108.6276388  28.0872927  22.4598163 109.7764915
  38.0488493  33.0348914 107.6203631  38.4919639  32.2856239 107.2222755
  37.1715003  33.0259050 107.2377363  33.1824274  39.5879255 103.1010230
  33.8775179  40.2085948 103.3197545  33.5247424  38.7374607 103.3762608
  35.0815697  37.0378961 104.6297561  35.6067021  37.3766234 103.9046881
  34.9938050  36.1025976 104.4460695  26.7435746  40.9513035 116.7587437
  27.0522872  40.7062181 117.6310137  27.5411228  41.1559673 116.2706308
  26.7656358  43.1050944 108.9892814  26.3261348  42.6127323 109.6825671
  27.5164475  42.5623912 108.7484889  19.2448697  39.2962485 108.9917442
  20.0706717  38.9966257 108.6116086  18.8942749  38.5270107 109.4407231
  24.2130230  38.6488953 111.0615116  23.5910239  37.9859658 110.7617343
  24.8835097  38.6750085 110.3788763  17.4457302  37.2148811 109.9506376
  16.6089210  36.7870986 109.7690377  17.4180947  37.4081255 110.8877167
  34.7709603  37.6711865 119.9348759  33.9805147  37.6536003 119.3953258
  34.5342958  38.2100158 120.6897795  34.8907478  34.5204331 117.2481487
  34.9405483  34.3554338 118.1897010  34.7821402  33.6531590 116.8579368
  23.7743737  37.1992877 104.5373576  23.9231857  37.8828341 103.8840249
  24.5810180  37.1797967 105.0523032  36.3925675  36.9401272 117.4923509
  36.1010483  37.3031253 118.3286970  35.7797806  36.2268281 117.3136841
  37.5921357  34.5054152 110.0126079  38.4268249  34.9443956 110.1763639
  37.7280486  34.0292805 109.1934325  34.6412863  32.0633887 115.9603567
  35.1166985  32.2561533 115.1522418  33.7178429  32.1193073 115.7146950
  21.5296370  33.2258054 105.5434645  21.2842412  32.3220384 105.7414855
  21.6992285  33.2275205 104.6014123  20.7992018  28.9586412 103.0420807
  20.1061262  29.0330767 102.3860842  20.5543769  28.1946755 103.5642323
  27.2739143  39.6941007 102.0085324  26.7013110  40.3131194 101.5555795
  27.8471936  40.2440369 102.5425246  33.3414532  28.9399647 114.1931872
  34.2931955  29.0397745 114.2144096  33.1717983  28.1477916 114.7029957
  31.3628912  26.0255230 114.3791273  30.7678844  26.3060243 113.6837762
  31.0778609  26.5149131 115.1508014  30.4936402  39.9778157 103.1393906
  31.4267075  39.9123719 103.3426781  30.4059615  40.8134424 102.6808439
  33.1224419  39.2944028 100.0997853  33.0438051  38.9603891 100.9933611
  33.9434086  39.7865795 100.0989326  35.8202610  32.1605767 113.3074172
  35.7878930  31.2221768 113.4933856  36.4303234  32.2389804 112.5739997
  27.6585941  31.0301820  99.3501376  28.6045046  30.9008028  99.4189794
  27.2800186  30.2916482  99.8270804  35.9697099  28.9516810 113.3532455
  35.4536147  28.1675267 113.1662384  36.8537047  28.6235527 113.5178975
  33.6307826  22.6957826 109.3128268  33.4332647  22.3872914 110.1971600
  34.2407531  23.4219465 109.4426198  41.6379160  33.2221774 112.4480209
  42.3682548  32.9607062 113.0087912  41.0286105  32.4850496 112.4882277
  39.7194457  31.3629636 113.0454660  38.9927621  31.2285601 112.4371152
  39.3041744  31.6706465 113.8511378  25.8428858  28.9551796  99.2856261
  24.9360314  28.6584909  99.3618975  26.1204839  28.6581614  98.4190548
  16.7606799  30.2758160 109.7355308  16.4409583  29.4223468 109.4429682
  16.2140227  30.4906738 110.4913275  20.5386706  32.9920601 113.4524814
  20.7572716  33.9237708 113.4712848  20.9512480  32.6328575 114.2379618
  27.4590924  23.4988686 105.4400503  26.6491652  23.1535771 105.8155749
  28.1475341  23.1896230 106.0288114  29.3881472  22.5766733 107.0624799
  29.9412511  22.9962186 107.7214822  29.6251559  21.6502481 107.1047755
  24.6127643  25.8138731  99.4268240  25.4746807  26.1393630  99.6864058
  24.7977987  25.0270227  98.9141306  16.6295059  33.8961071 111.7048429
  15.9358530  33.4815024 111.1918384  17.3768050  33.9381608 111.1081848
  32.7660279  24.6867258 106.5703463  32.1858948  25.3452062 106.1881516
  32.4996212  23.8644602 106.1590881  31.2163846  24.0872316 108.7724784
  31.7163624  24.1988850 107.9639103  31.8599454  23.7833368 109.4125592
  18.5431801  33.8279325 109.5814444  18.5202489  33.9267012 108.6296327
  18.8532438  34.6744476 109.9031610  21.2019179  35.8855480 113.6961059
  22.1562433  35.8539422 113.6290990  21.0031703  35.4246104 114.5111284
  31.5485157  26.8467348 105.6259812  30.6611012  27.1316999 105.4080007
  31.9639146  26.6861112 104.7787089  34.8999693  26.8713869 109.3414151
  35.6760084  27.3610322 109.6138768  34.1747828  27.2971923 109.7986020
  37.3372252  27.5841488 110.3988092  37.9316743  27.3437224 109.6881400
  37.4098836  26.8648619 111.0261628  19.5569408  41.4275099 110.7131256
  19.4223876  40.6675500 110.1469254  19.1401470  42.1515999 110.2460045
  30.6928371  36.6112023  99.7207832  31.3964221  36.8162025 100.3365487
  29.9691020  37.1788785  99.9856915  31.5226181  32.3621884 105.8410102
  31.4661382  32.8190436 105.0017734  32.0754524  31.6012569 105.6632945
  35.3330987  28.1511616 106.6660221  35.0767921  27.7508252 107.4968429
  34.7083855  28.8655410 106.5410361  39.6443325  30.8907689 109.1731513
  39.0842883  30.9600879 109.9463075  39.0386828  30.7148674 108.4531009
  22.7138534  42.3244416 110.9249699  22.5970918  43.2689849 110.8228389
  21.8930980  42.0217978 111.3135498  32.6015068  37.0494552 101.7706292
  33.4360672  36.6175751 101.5883767  32.4399411  36.8776566 102.6983186
  32.2560960  33.5526665 103.1362631  32.2009764  33.3870937 102.1951075
  31.6307016  34.2602698 103.2924821  25.5657086  23.0534774 102.7147949
  25.5535756  23.9976614 102.8716220  26.4580508  22.8704920 102.4207411
  23.7393048  42.9772678 114.1405628  24.6420294  43.0096289 114.4572122
  23.5130418  42.0473129 114.1551963  25.4946650  41.7303665 110.8015706
  24.5442281  41.7305526 110.6880078  25.7979136  40.9836399 110.2851741
  29.3809205  19.6477551 106.9693886  28.6141601  19.0936038 107.1150569
  29.7919910  19.7199420 107.8308038  41.2299343  47.5664203 111.8661469
  41.8677753  47.4470951 111.1624809  41.1120186  48.5145047 111.9249421
  38.0389050  47.5191631 111.8022993  37.7007561  47.4032696 110.9143528
  38.9078818  47.1182796 111.7823999  33.8975865  49.3727108 107.7919884
  33.3340730  49.2817045 107.0236172  33.7828260  48.5527012 108.2722377
  38.5208833  48.6726483 117.7609199  38.5097473  48.2779281 116.8889702
  38.6829472  47.9392556 118.3542970  31.4440297  50.8678299 110.6304105
  32.2361589  50.5269124 110.2150404  31.6836947  50.9773274 111.5506258
  39.4775424  53.0398075 103.1034349  38.8263404  53.6252156 102.7168363
  40.2719787  53.5704270 103.1629387  33.4031051  50.1287213 103.5021483
  34.1761927  49.5816200 103.3634359  33.7556450  50.9931462 103.7135945
  35.2416094  51.4563595 116.7088383  34.9505960  52.3609226 116.5935049
  35.8773078  51.4980122 117.4232452  36.1672301  48.8340443 113.2989742
  36.7635873  48.6096466 112.5846705  36.2247272  48.0925189 113.9015190
  35.7397329  46.2879879 101.1339933  35.9922850  45.7661400 100.3723396
  34.8021888  46.1246024 101.2366617  40.7840612  45.2915657 108.9414677
  41.5703701  44.8735080 108.5905094  41.0479316  46.1961749 109.1096325
  40.9550689  50.7288507 103.6403333  40.3196522  50.8023134 104.3524238
  40.6248096  51.3182106 102.9622413  46.1849039  45.2290890 109.8447655
  46.9174211  44.6590107 110.0785485  45.4288395  44.8412491 110.2854161
  35.4593618  48.1907985 103.3364308  35.3429876  47.5152888 104.0045393
  35.5695878  47.7040359 102.5196461  37.8025159  47.6518132 107.0410998
  37.4383366  47.1248753 107.7523919  38.6592275  47.2616601 106.8677483
  43.7074459  38.9412464 114.3042264  43.3757784  39.8107875 114.0803479
  43.1120073  38.6248748 114.9836294  37.4430646  42.6808031 102.0372346
  37.6105048  43.5488268 102.4042817  37.2527815  42.8435313 101.1133635
  40.2005979  51.1425010 113.7038176  39.9006702  52.0450049 113.5953984
  39.8557038  50.8757194 114.5559329  33.6518460  47.5938807 109.7374881
  32.7268957  47.4615021 109.9452573  33.9002873  48.3733026 110.2344823
  43.6003123  43.6607551 111.3835614  42.6920000  43.5922959 111.0894375
  43.5490718  44.1379495 112.2117439  37.4219866  45.1365689 103.0219013
  37.3019492  45.5822740 103.8604493  36.7272455  45.4851007 102.4632551
  31.0127271  47.2372081 110.5718670  31.1419652  47.4906560 111.4858082
  30.3324723  47.8299789 110.2523325  35.1826759  57.9069331 106.6709144
  35.1050788  58.8577156 106.7497625  34.5788402  57.5615203 107.3284070
  37.6743988  45.0797196 119.3270511  36.8977322  45.6391116 119.3173376
  38.3134551  45.5653979 119.8485381  45.4664769  41.8623989 113.1613488
  44.8239149  42.1556522 112.5153282  44.9619697  41.7476909 113.9666684
  43.1204933  45.6087162 103.8499347  44.0322789  45.8414549 103.6747044
  42.6114580  46.1924206 103.2874426  35.9290361  47.8882649 118.8888478
  36.6705045  48.4267693 118.6123302  35.2227346  48.5148938 119.0460030
  41.4045700  50.0311790 117.4860640  41.8129056  49.5894200 116.7415272
  40.6822962  49.4564417 117.7394832  37.7576770  44.9684397 114.8594196
  38.6037966  45.3923810 115.0028845  37.6975408  44.3118021 115.5532760
  41.7274515  50.5912981 111.2412928  41.0983377  50.7558695 110.5388996
  41.3400177  51.0054590 112.0123892  40.9076216  42.6288765 116.5175370
  40.6637148  43.3830826 115.9809646  41.1836146  43.0074113 117.3522617
  42.8614678  49.1727377 115.1952636  43.0731574  49.8159137 114.5187017
  42.8144427  48.3389694 114.7274566  40.4640907  41.7845198 112.0989208
  39.6025386  42.0826452 112.3905945  40.4903342  42.0015597 111.1670240
  37.2802477  50.3287389 108.5063013  37.7440822  50.6075092 107.7167636
  37.0159275  49.4270833 108.3236104  34.1726558  49.8758870 111.4442777
  34.7427915  50.3046139 110.8060261  34.7634670  49.5941455 112.1426962
  36.2171363  46.4510541 105.3152579  36.9195406  46.9031585 105.7826505
  35.8851991  45.8094360 105.9432472  34.6651724  45.0422298 119.6903788
  34.0350385  45.7238579 119.9239185  34.5587812  44.9305379 118.7456926
  29.9596697  44.7094094 110.6169712  29.1695751  44.9651622 110.1409823
  30.4507944  45.5242432 110.7221753  43.9760506  52.0499333 113.3674993
  44.7977950  51.6479520 113.0857675  43.9722909  51.9467567 114.3191109
  31.9111442  45.0738673 107.5753189  31.1142605  45.1857367 108.0936685
  31.6837034  45.4125325 106.7094079  37.7417110  51.5983376 115.5235704
  37.8061542  52.0603783 116.3593875  37.0328034  50.9680741 115.6518013
  28.2434400  44.9624584 113.0484703  28.4942438  45.8471594 113.3142279
  28.7793948  44.7829186 112.2759795  52.0666499  48.3938081 109.7159964
  51.3130208  47.8245479 109.5603969  52.2014041  48.3600746 110.6630599
  37.4565127  53.2651484 105.3914684  37.3210802  54.1103019 105.8199532
  37.9974940  53.4670761 104.6280618  33.9432467  39.3443064 122.0529039
  33.5499413  38.7909262 122.7276683  34.7598607  39.6553642 122.4435557
  30.9094525  50.7826922 105.9642609  31.4219045  51.5770172 106.1148174
  31.5617238  50.0853212 105.8976210  32.7189410  53.8992678 108.0465362
  32.8956038  54.8210643 107.8586346  33.5146243  53.5851097 108.4759742
  36.8600428  40.7600943 119.6449296  37.6010141  41.3608096 119.5653758
  37.0918351  40.0178580 119.0867338  32.0041766  45.9457310 117.9227525
  31.8895281  45.0442567 118.2234624  31.1486284  46.1921007 117.5712342
  39.0833604  53.8875050 119.5215026  38.6397458  53.1011429 119.2035930
  39.7450817  54.0754201 118.8558917  33.8420725  55.4170852 114.0475704
  34.3928150  55.2887915 113.2752698  33.0032201  55.7165741 113.6970597
  41.1814842  54.1677850 117.5496427  41.1633317  54.9886731 117.0576696
  42.1034762  54.0431925 117.7746568  37.6387896  51.6821980 118.3919936
  38.1716233  50.9210268 118.1619244  37.1101977  51.3895631 119.1344090
  40.8057591  36.7882046 113.9213577  40.4621860  37.6783687 113.8452688
  41.1736554  36.5983703 113.0583162  28.8743442  49.1115576 106.7402179
  29.7118664  49.5212584 106.5235887  29.0521709  48.1715018 106.7102373
  40.7707874  46.7790657 102.4286012  40.2554497  47.5495261 102.6674400
  40.4985182  46.1055793 103.0519074  38.3554985  41.6240357 107.4871251
  37.4996581  41.2347208 107.3076890  38.7681937  41.7032318 106.6271036
  39.8854131  39.1586701 111.8862811  39.3818927  39.1216836 111.0730616
  40.1784738  40.0679443 111.9459467  36.1297017  39.2425430 110.8928992
  36.9950014  39.0468239 110.5334882  36.1974526  39.0135782 111.8198349
  45.7442148  49.5323011 104.3639186  44.9671591  49.1934171 103.9194348
  46.4233629  49.5375634 103.6894151  40.5594177  44.6517749 104.2545794
  40.2544313  44.9663898 105.1055937  41.5124619  44.7299169 104.2973127
  39.0040609  50.8107972 105.9038748  38.4761970  50.0760732 105.5911985
  38.5028112  51.5882648 105.6578716  43.9833455  49.0056993 111.0205794
  43.3257129  49.6956254 111.1085923  44.7873854  49.3953424 111.3639780
  33.7359336  41.4727638 108.2645359  34.3103088  41.2502820 107.5318552
  34.3230319  41.5416333 109.0173960  42.7938914  47.3601365 109.0709736
  43.3070795  47.9931357 109.5731445  43.4440137  46.7602561 108.7053096
  34.0628923  43.5032099 102.2841244  33.2266236  43.8406786 102.6050519
  33.9233693  43.3681079 101.3468381  36.0382004  38.3468887 106.9920429
  35.3846416  38.0317904 106.3677043  35.9962478  37.7244628 107.7180251
  37.1493209  48.6288182  98.9073721  36.2420271  48.3977436  99.1064870
  37.6464241  47.8325802  99.0947702  40.0561288  57.3385690 101.8270407
  39.3822987  57.6417386 102.4355365  40.4427110  58.1414770 101.4775864
  39.2719744  44.8350821 111.3168076  38.3542306  45.0565768 111.1589764
  39.6879888  44.9097131 110.4579783  40.0554792  46.2342236 106.4470756
  40.8026611  46.7463634 106.1377878  40.3246382  45.9126289 107.3075150
  38.3281442  48.7300777 103.4297711  37.4192662  48.4459810 103.5270180
  38.3576526  49.1499856 102.5701018  43.5600710  52.3407367 107.1988878
  43.1063037  51.4998277 107.2554069  42.9294677  52.9768765 107.5363658
  42.5033629  43.2699353 108.4289546  41.7656386  42.7576739 108.7599788
  42.7560403  42.8299734 107.6172823  42.0033649  54.1783863 108.1338696
  42.2956623  54.7388920 107.4151062  42.5132270  54.4712424 108.8891856
  42.6045257  36.0475605 109.0231315  42.9104133  35.1872968 108.7357230
  43.3297862  36.6393225 108.8230309  28.8969613  46.4506291 107.4112913
  28.6994013  45.8575652 106.6863979  28.3416277  46.1458502 108.1288852
  36.8766336  46.3429398 109.5307506  36.9314946  45.3903234 109.4549983
  36.0657538  46.4988837 110.0148804  38.0257530  50.2709521 100.7685789
  37.5876960  49.5545380 100.3091427  38.7667971  50.4985636 100.2070881
  34.8158696  44.9606458 107.2897885  34.0026562  45.2600628 107.6963077
  35.3117691  44.5662146 108.0072367  36.9667274  54.9564214 109.2232150
  36.9243453  55.1825061 108.2940682  37.8829973  54.7227589 109.3717951
  40.4132908  45.4248282 116.1212779  40.7682296  45.6519755 116.9807245
  41.0605039  45.7566659 115.4990034  46.1430645  48.5466718 106.8262108
  46.0048544  48.7368314 105.8983297  45.7866864  49.3086101 107.2830159
  34.3072771  42.5324813 112.9059120  34.9472150  42.3913572 112.2082083
  33.4750302  42.2459326 112.5297722  35.0833075  51.8327243 109.0194112
  35.8773674  51.3377564 108.8176687  34.3724767  51.3045107 108.6561818
  39.9027919  54.2145339 113.3706480  39.9564942  54.7836275 114.1384196
  39.0342701  54.3847224 113.0060517  31.3915838  45.9770325 105.0953865
  30.4613427  45.9154781 105.3123827  31.4873310  45.4546278 104.2990506
  31.3101388  42.5025138 107.6832107  31.5708205  43.4170471 107.5741267
  32.1318560  42.0349581 107.8328719  32.7826313  43.9162895 114.8530931
  33.4549366  43.7080257 114.2043580  31.9556099  43.7184981 114.4136164
  47.0315574  50.6566946 114.3706265  47.2251464  51.5612756 114.6165540
  46.9316192  50.1974365 115.2044850  38.6851885  40.5424836 116.8696592
  38.0379800  41.2414786 116.7761068  39.4552900  40.9760980 117.2372840
  42.0930683  50.8073688 119.9447145  41.9416189  50.5784240 119.0277229
  42.0835362  51.7644290 119.9578490  38.8616019  48.3805601 114.9293412
  39.7908079  48.5316761 114.7562379  38.4407049  48.4689622 114.0742058
  37.6604351  52.4056265 112.6991949  37.5215437  52.0375050 113.5717888
  36.8718947  52.9203905 112.5275907  38.2552503  57.5065362 104.0417486
  38.4304259  57.0353405 104.8563109  37.5685291  58.1331128 104.2698747
  39.2109566  51.7837868 110.0880787  38.8759399  51.7438638 110.9838437
  38.7113512  51.1182584 109.6151197  33.1853810  47.1905498 115.6133368
  33.0473608  46.4585737 116.2144907  34.0958734  47.1014398 115.3317556
  42.1468758  49.1293903 100.3617847  41.5297928  48.4040731 100.2650900
  41.6785246  49.8903263 100.0184921  35.8136111  46.9025458 115.1017048
  36.5235729  46.2618650 115.0603666  35.7705419  47.1538352 116.0243229
  43.8022889  53.8392811 118.0223627  43.7435436  53.1552031 117.3554210
  44.2042408  54.5811801 117.5704253  34.5265045  43.8890675 116.9212687
  33.9902402  43.4381414 117.5734284  33.9381753  44.0236584 116.1783152
  32.8213588  60.6554725 110.8157346  33.0610186  61.2873249 111.4936365
  31.9782785  60.3042765 111.1022705  33.9367304  43.3479327  99.4839151
  33.0596770  43.2268128  99.1201398  34.4125057  42.5565405  99.2318040
  43.8040297  51.8032395 116.2537607  42.9167076  51.4658317 116.3764006
  44.3738848  51.0715426 116.4906372  25.4569444  48.1356487 109.5780658
  26.1440484  47.8218217 108.9901674  25.3017573  49.0397851 109.3047910
  30.2604166  43.0246683 114.0065682  30.1762355  42.4172353 113.2716092
  29.4386872  43.5155701 114.0075178  37.3341450  56.4633847 113.2198850
  37.2611622  57.2688819 113.7318155  36.8918843  56.6625813 112.3946871
  37.1231230  55.7005617 106.7301672  36.3398752  56.2427297 106.8239896
  37.8223975  56.2179597 107.1295913  40.4327880  41.5100247 109.3735877
  40.9296579  40.7570209 109.0536947  39.6614861  41.5464563 108.8079086
  48.2857637  47.2140612 111.0154169  48.2747514  48.0965328 110.6448102
  47.4175017  46.8612163 110.8208706  39.7940134  56.3620681 115.3757009
  40.5068106  56.9968146 115.3032910  39.3030162  56.4584547 114.5597011
  41.5157661  50.2671934 106.9474300  40.5813939  50.3873396 106.7779005
  41.6934329  49.3644401 106.6834310  37.0162849  43.6517630 109.1007562
  36.6460636  43.0988670 109.7888467  37.5121941  43.0475763 108.5482562
  44.9030212  46.1089253 107.4824335  45.3690664  46.9417245 107.4084637
  45.3537712  45.6434235 108.1869593  34.8452047  54.1115125 116.1962580
  35.5461507  54.7451608 116.3491974  34.3747162  54.4529856 115.4358219
  42.9706443  52.4533074 104.4810487  43.2466287  52.3389669 105.3904361
  42.1010942  52.0550559 104.4422660  42.8746875  38.4769840 111.5215236
  41.9609954  38.7074067 111.6897443  43.3039976  38.5608284 112.3729268
  42.6453333  46.6659732 114.0215130  41.9924783  46.9135640 113.3667583
  43.0233713  45.8523870 113.6877607  39.6060507  56.7019425 108.1243300
  39.7882902  55.8841081 108.5871053  40.4293493  56.9187118 107.6868190
  39.9402673  55.6287610 105.3858349  40.4690439  55.1180065 104.7728511
  40.2030892  55.3130141 106.2503882  38.6940906  47.4079543 120.5081167
  38.0181543  47.3073672 121.1783542  39.5168540  47.2518757 120.9717164
  30.4419765  53.6451480 113.1293682  31.0273202  52.8995168 113.2621586
  30.2444604  53.9555436 114.0130346  33.2958420  56.6802727 108.1456125
  32.6268796  57.1648855 107.6620165  33.1571290  56.9271948 109.0599503
  25.0337420  46.2157080 111.8498125  25.0721519  45.6820671 112.6435244
  24.5277713  45.6892285 111.2309103  37.4363689  58.7146471 114.7438783
  37.9881997  58.8778092 115.5087868  37.7769883  59.3050908 114.0718808
  32.4128182  41.0621620 115.3460668  32.4769509  41.9236451 114.9338065
  32.3495303  40.4495622 114.6133026  31.8880455  43.1344753 118.9933702
  32.5152494  42.7521830 119.6071226  31.0308374  42.9158955 119.3589394
  42.2874563  53.5407728 120.5987437  42.8314467  54.1537686 120.1042392
  41.7061408  54.0987307 121.1154450  28.6645998  44.9421182 104.9252057
  28.9599439  44.0331860 104.8719111  27.7634033  44.9208922 104.6033059
  40.5732076  56.6628446 111.7302465  40.4483216  55.8618186 111.2213411
  41.2311167  57.1574639 111.2416435  32.1940245  43.0177179 110.9079605
  31.4726830  43.6313146 110.7687079  32.9833500  43.5534943 110.8296251
  42.6366985  54.4637466 113.3582015  41.6897320  54.3442817 113.2860342
  42.9849758  53.5759964 113.4408277  34.9966558  40.3531605 117.1820257
  35.5200960  40.5993902 117.9446566  34.7778891  41.1851640 116.7623394
  30.3933839  42.6235280 105.0491382  30.0646545  41.7432659 104.8666488
  30.7473210  42.5682948 105.9367771  39.6413418  54.2590182 109.5586367
  39.4938380  53.3306890 109.7393938  40.4666912  54.2810273 109.0743443
  33.5075662  42.9108250 105.4166860  33.8471735  43.4394171 104.6945468
  33.9547783  43.2488656 106.1925426  36.2019103  41.2945300 114.8669928
  35.8615923  40.4953113 115.2690608  35.4958109  41.5947011 114.2946761
  36.8535575  38.3794613 113.3197251  37.6761644  37.9055091 113.1976141
  37.0973638  39.1585096 113.8195937  35.4943809  41.4082871 103.6160152
  36.2152172  41.7864124 103.1123869  34.8709114  42.1271748 103.7195130
  39.6374932  42.1128020 104.5518485  39.8538547  42.9952658 104.2507313
  39.1568999  41.7214233 103.8224127  34.3774154  45.0713733 111.1289229
  34.2318734  45.3854036 112.0213511  33.8999357  45.6898634 110.5760128
  36.2370537  42.0616281 111.1770119  36.2232105  41.1657375 110.8402417
  36.9542965  42.0686945 111.8108405  38.0896667  42.4953621 113.2223246
  37.8314445  43.4170692 113.2207577  37.5581708  42.0984056 113.9123710
  43.0342856  55.6004409 106.0013332  43.2079734  55.0350831 105.2487184
  43.5271747  56.4005303 105.8192822  28.8519816  47.6119078 114.0676891
  28.3073284  48.3878886 114.1997165  29.7299166  47.9589882 113.9096012
  35.6407433  40.9430662 106.4457689  35.7623344  40.0147308 106.6448577
  35.3509475  40.9569348 105.5336004  38.5098623  38.6285572 109.5824409
  38.5320320  38.6924905 108.6276388  38.9266682  37.7890081 109.7764915
  48.8882247  48.3640832 107.6203631  49.3313393  47.6148157 107.2222755
  48.0108758  48.3550968 107.2377363  44.0218029  54.9171173 103.1010230
  44.7168933  55.5377866 103.3197545  44.3641179  54.0666524 103.3762608
  29.6385838  46.7388974 116.9607047  28.8967574  46.8871609 117.5471678
  29.3178582  46.9997240 116.0973797  45.9209452  52.3670879 104.6297561
  46.4460776  52.7058151 103.9046881  45.8331804  51.4317894 104.4460695
  37.5829500  56.2804952 116.7587437  37.8916627  56.0354099 117.6310137
  38.3804982  56.4851591 116.2706308  37.6050112  58.4342862 108.9892814
  37.1655103  57.9419241 109.6825671  38.3558229  57.8915829 108.7484889
  30.0842451  54.6254403 108.9917442  30.9100471  54.3258175 108.6116086
  29.7336503  53.8562025 109.4407231  35.0523985  53.9780871 111.0615116
  34.4303994  53.3151576 110.7617343  35.7228851  54.0042003 110.3788763
  28.2851056  52.5440729 109.9506376  27.4482965  52.1162903 109.7690377
  28.2574702  52.7373172 110.8877167  35.1248512  42.4562659 120.6547622
  35.1736668  43.3324782 120.2725391  35.6671026  41.9140052 120.0819265
  34.6137491  52.5284794 104.5373576  34.7625612  53.2120259 103.8840249
  35.4203935  52.5089884 105.0523032  43.0204995  45.8327177 118.5640794
  43.9214858  45.6933641 118.2724792  43.0952970  45.9981631 119.5038971
  37.3547801  43.2094031 117.4093980  36.4851110  43.5027597 117.1376569
  37.5907281  43.7934476 118.1301244  45.4806618  47.3925805 115.9603567
  45.9560739  47.5853451 115.1522418  44.5572183  47.4484991 115.7146950
  32.3690124  48.5549972 105.5434645  32.1236166  47.6512302 105.7414855
  32.5386039  48.5567122 104.6014123  40.0586834  39.4273648 114.9259401
  40.5768778  40.1634675 114.6005889  39.7041967  39.7337642 115.7606160
  31.6385772  44.2878329 103.0420807  30.9455017  44.3622684 102.3860842
  31.3937524  43.5238673 103.5642323  40.3099429  35.8473931 110.4460297
  40.5901182  35.1797120 111.0720724  41.0950035  36.0403026 109.9334961
  38.1132897  55.0232925 102.0085324  37.5406864  55.6423112 101.5555795
  38.6865691  55.5732286 102.5425246  44.1808287  44.2691565 114.1931872
  45.1325710  44.3689662 114.2144096  44.0111737  43.4769833 114.7029957
  42.2022666  41.3547148 114.3791273  41.6072598  41.6352161 113.6837762
  41.9172363  41.8441049 115.1508014  41.3330157  55.3070075 103.1393906
  42.2660830  55.2415637 103.3426781  41.2453370  56.1426342 102.6808439
  43.9618173  54.6235945 100.0997853  43.8831805  54.2895809 100.9933611
  44.7827840  55.1157713 100.0989326  46.6596365  47.4897684 113.3074172
  46.6272685  46.5513685 113.4933856  47.2696988  47.5681721 112.5739997
  38.4979696  46.3593737  99.3501376  39.4438800  46.2299946  99.4189794
  38.1193940  45.6208399  99.8270804  46.8090853  44.2808728 113.3532455
  46.2929902  43.4967185 113.1662384  47.6930802  43.9527445 113.5178975
  44.4701580  38.0249743 109.3128268  44.2726401  37.7164832 110.1971600
  45.0801286  38.7511382 109.4426198  52.4772915  48.5513691 112.4480209
  53.2076303  48.2898979 113.0087912  51.8679860  47.8142413 112.4882277
  50.5588212  46.6921554 113.0454660  49.8321375  46.5577519 112.4371152
  50.1435498  46.9998383 113.8511378  38.3818388  50.4111484 120.8102033
  39.3021398  50.5890083 121.0042080  38.3467971  49.4667529 120.6581732
  36.6822613  44.2843714  99.2856261  35.7754068  43.9876827  99.3618975
  36.9598594  43.9873532  98.4190548  27.6000553  45.6050077 109.7355308
  27.2803337  44.7515385 109.4429682  27.0533981  45.8198655 110.4913275
  31.3780461  48.3212518 113.4524814  31.5966470  49.2529626 113.4712848
  31.7906234  47.9620493 114.2379618  38.2984678  38.8280604 105.4400503
  37.4885407  38.4827689 105.8155749  38.9869095  38.5188147 106.0288114
  40.2275227  37.9058650 107.0624799  40.7806265  38.3254104 107.7214822
  40.4645313  36.9794398 107.1047755  36.2508326  43.8945724 122.8427563
  36.1505053  44.8440081 122.7739654  36.0329868  43.5663963 121.9703633
  35.4521397  41.1430649  99.4268240  36.3140561  41.4685547  99.6864058
  35.6371741  40.3562145  98.9141306  27.4688813  49.2252989 111.7048429
  26.7752284  48.8106942 111.1918384  28.2161804  49.2673525 111.1081848
  43.6054034  40.0159176 106.5703463  43.0252703  40.6743980 106.1881516
  43.3389966  39.1936520 106.1590881  42.0557600  39.4164233 108.7724784
  42.5557378  39.5280768 107.9639103  42.6993208  39.1125286 109.4125592
  36.1139596  47.3242863 121.6592625  35.6306678  48.1243223 121.8656514
  36.2000535  47.3350808 120.7060069  29.3825556  49.1571243 109.5814444
  29.3596244  49.2558930 108.6296327  29.6926192  50.0036393 109.9031610
  32.0412933  51.2147398 113.6961059  32.9956187  51.1831340 113.6290990
  31.8425457  50.7538021 114.5111284  32.6312316  49.7848514 116.2631856
  33.4505205  50.2792592 116.2866694  32.9049123  48.8680482 116.2349424
  42.3878912  42.1759266 105.6259812  41.5004767  42.4608917 105.4080007
  42.8032901  42.0153029 104.7787089  45.7393448  42.2005787 109.3414151
  46.5153838  42.6902239 109.6138768  45.0141582  42.6263841 109.7986020
  48.1766007  42.9133406 110.3988092  48.7710497  42.6729142 109.6881400
  48.2492590  42.1940537 111.0261628  30.3963162  56.7567017 110.7131256
  30.2617630  55.9967418 110.1469254  29.9795225  57.4807917 110.2460045
  41.5322125  51.9403941  99.7207832  42.2357975  52.1453943 100.3365487
  40.8084774  52.5080702  99.9856915  42.3619936  47.6913802 105.8410102
  42.3055137  48.1482353 105.0017734  42.9148278  46.9304486 105.6632945
  46.1724741  43.4803534 106.6660221  45.9161676  43.0800169 107.4968429
  45.5477609  44.1947328 106.5410361  50.4837079  46.2199607 109.1731513
  49.9236637  46.2892796 109.9463075  49.8780583  46.0440592 108.4531009
  33.5532288  57.6536334 110.9249699  33.4364672  58.5981767 110.8228389
  32.7324734  57.3509896 111.3135498  43.4408823  52.3786470 101.7706292
  44.2754427  51.9467668 101.5883767  43.2793166  52.2068483 102.6983186
  43.0954715  48.8818583 103.1362631  43.0403519  48.7162855 102.1951075
  42.4700770  49.5894616 103.2924821  27.8847230  44.1186647 116.9624053
  28.5306093  43.6085601 117.4511278  27.6764381  44.8555329 117.5367479
  40.4100622  51.1867495 122.4616194  41.2791782  51.3608147 122.1002829
  39.9307373  52.0061912 122.3391923  36.4050840  38.3826692 102.7147949
  36.3929510  39.3268532 102.8716220  37.2974262  38.1996838 102.4207411
  34.5786802  58.3064596 114.1405628  35.4814049  58.3388206 114.4572122
  34.3524172  57.3765047 114.1551963  36.3340404  57.0595582 110.8015706
  35.3836035  57.0597444 110.6880078  36.6372890  56.3128317 110.2851741
  40.2202960  34.9769469 106.9693886  39.4535356  34.4227955 107.1150569
  40.6313665  35.0491337 107.8308038  32.2244721  41.2654265 121.0599068
  33.0876182  40.9091069 121.2702392  31.6510131  40.9268159 121.7474472
  46.0809848  66.7855513 116.7088383  45.7899714  67.6901143 116.5935049
  46.7166833  66.8272040 117.4232452  40.7990451  60.0386011 110.6169712
  40.0089505  60.2943540 110.1409823  41.2901699  60.8534349 110.7221753
  42.7505197  60.4030591 107.5753189  41.9536360  60.5149285 108.0936685
  42.5230789  60.7417243 106.7094079  39.0828154  60.2916502 113.0484703
  39.3336193  61.1763512 113.3142279  39.6187703  60.1121103 112.2759795
  44.7826222  54.6734981 122.0529039  44.3893167  54.1201180 122.7276683
  45.5992362  54.9845560 122.4435557  44.6814480  70.7462769 114.0475704
  45.2321905  70.6179833 113.2752698  43.8425955  71.0457658 113.6970597
  39.7363367  61.7798209 107.4112913  39.5387767  61.1867570 106.6863979
  39.1810031  61.4750419 108.1288852  47.8061029  70.2856132 109.2232150
  47.7637208  70.5116978 108.2940682  48.7223728  70.0519507 109.3717951
  42.2309593  61.3062243 105.0953865  41.3007181  61.2446698 105.3123827
  42.3267065  60.7838196 104.2990506  42.1495142  57.8317056 107.6832107
  42.4101959  58.7462389 107.5741267  42.9712314  57.3641498 107.8328719
  36.2963198  63.4648404 109.5780658  36.9834238  63.1510134 108.9901674
  36.1411327  64.3689769 109.3047910  41.0997920  58.3538601 114.0065682
  41.0156109  57.7464270 113.2716092  40.2780627  58.8447619 114.0075178
  48.1735205  71.7925765 113.2198850  48.1005376  72.5980736 113.7318155
  47.7312598  71.9917731 112.3946871  50.6333888  71.6912599 115.3757009
  51.3461860  72.3260064 115.3032910  50.1423917  71.7876465 114.5597011
  45.6845802  69.4407042 116.1962580  46.3855261  70.0743525 116.3491974
  45.2140917  69.7821774 115.4358219  50.4454262  72.0311343 108.1243300
  50.6276656  71.2132999 108.5871053  51.2687248  72.2479035 107.6868190
  50.7796427  70.9579528 105.3858349  51.3084193  70.4471983 104.7728511
  51.0424647  70.6422058 106.2503882  35.8731174  61.5448998 111.8498125
  35.9115274  61.0112588 112.6435244  35.3671467  61.0184203 111.2309103
  48.2757444  74.0438388 114.7438783  48.8275752  74.2070010 115.5087868
  48.6163637  74.6342826 114.0718808  39.5039752  60.2713100 104.9252057
  39.7993193  59.3623778 104.8719111  38.6027788  60.2500839 104.6033059
  41.2327594  57.9527197 105.0491382  40.9040300  57.0724576 104.8666488
  41.5866964  57.8974866 105.9367771  50.4807173  69.5882100 109.5586367
  50.3332135  68.6598808 109.7393938  51.3060666  69.6102191 109.0743443
  40.4779592  62.0680892 116.9607047  39.7361328  62.2163527 117.5471678
  40.1572337  62.3289157 116.0973797  52.1723911  70.6361993 103.1393906
  53.1054584  70.5707554 103.3426781  52.0847124  71.4718259 102.6808439
  38.4394308  60.9341995 109.7355308  38.1197092  60.0807303 109.4429682
  37.8927736  61.1490573 110.4913275  49.1378433  54.1572521 105.4400503
  48.3279161  53.8119606 105.8155749  49.8262850  53.8480065 106.0288114
  43.4706070  65.1140431 116.2631856  44.2898959  65.6084510 116.2866694
  43.7442878  64.1972399 116.2349424  44.3926043  72.9828252 110.9249699
  44.2758427  73.9273684 110.8228389  43.5718489  72.6801813 111.3135498
  38.7240984  59.4478565 116.9624053  39.3699848  58.9377519 117.4511278
  38.5158135  60.1847247 117.5367479  47.2444595  53.7118610 102.7147949
  47.2323265  54.6560450 102.8716220  48.1368017  53.5288755 102.4207411
  45.4180557  73.6356514 114.1405628  46.3207803  73.6680124 114.4572122
  45.1917927  72.7056965 114.1551963  47.1734159  72.3887500 110.8015706
  46.2229790  72.3889362 110.6880078  47.4766645  71.6420235 110.2851741
  51.0596714  50.3061386 106.9693886  50.2929110  49.7519873 107.1150569
  51.4707419  50.3783255 107.8308038  56.9203603  82.1147430 116.7088383
  56.6293469  83.0193061 116.5935049  57.5560587  82.1563958 117.4232452
  57.8459810  79.4924279 113.2989742  58.4423382  79.2680301 112.5846705
  57.9034781  78.7509024 113.9015190  55.3305969  78.2522643 109.7374881
  54.4056466  78.1198857 109.9452573  55.5790382  79.0316862 110.2344823
  52.6914780  77.8955916 110.5718670  52.8207161  78.1490395 111.4858082
  52.0112232  78.4883624 110.2523325  59.3531497  75.7381031 119.3270511
  58.5764831  76.2974952 119.3173376  59.9922060  76.2237814 119.8485381
  57.6077870  78.5466485 118.8888478  58.3492554  79.0851529 118.6123302
  56.9014855  79.1732774 119.0460030  59.4364279  75.6268232 114.8594196
  60.2825475  76.0507646 115.0028845  59.3762917  74.9701856 115.5532760
  55.8514067  80.5342706 111.4442777  56.4215424  80.9629974 110.8060261
  56.4422179  80.2525290 112.1426962  51.6384206  75.3677929 110.6169712
  50.8483260  75.6235458 110.1409823  52.1295453  76.1826267 110.7221753
  53.5898951  75.7322508 107.5753189  52.7930114  75.8441203 108.0936685
  53.3624543  76.0709161 106.7094079  49.9221909  75.6208420 113.0484703
  50.1729947  76.5055429 113.3142279  50.4581457  75.4413021 112.2759795
  53.6829275  76.6041145 117.9227525  53.5682790  75.7026402 118.2234624
  52.8273793  76.8504842 117.5712342  55.5208234  86.0754687 114.0475704
  56.0715659  85.9471750 113.2752698  54.6819710  86.3749576 113.6970597
  58.5553845  77.0013233 109.5307506  58.6102455  76.0487070 109.4549983
  57.7445047  77.1572672 110.0148804  58.6454783  85.6148050 109.2232150
  58.6030962  85.8408896 108.2940682  59.5617482  85.3811424 109.3717951
  52.9888897  73.1608973 107.6832107  53.2495714  74.0754307 107.5741267
  53.8106069  72.6933416 107.8328719  54.4613822  74.5746731 114.8530931
  55.1336875  74.3664093 114.2043580  53.6343608  74.3768817 114.4136164
  54.8641319  77.8489334 115.6133368  54.7261117  77.1169572 116.2144907
  55.7746243  77.7598234 115.3317556  57.4923620  77.5609293 115.1017048
  58.2023238  76.9202485 115.0603666  57.4492928  77.8122188 116.0243229
  56.2052554  74.5474511 116.9212687  55.6689911  74.0965249 117.5734284
  55.6169262  74.6820420 116.1783152  54.5001097  91.3138560 110.8157346
  54.7397695  91.9457084 111.4936365  53.6570294  90.9626600 111.1022705
  56.5239556  84.7698960 116.1962580  57.2249016  85.4035443 116.3491974
  56.0534671  85.1113692 115.4358219  60.3728415  78.0663378 120.5081167
  59.6969052  77.9657508 121.1783542  61.1956049  77.9102592 120.9717164
  52.1207274  84.3035315 113.1293682  52.7060711  83.5579003 113.2621586
  51.9232113  84.6139272 114.0130346  54.9745929  87.3386562 108.1456125
  54.3056305  87.8232690 107.6620165  54.8358799  87.5855783 109.0599503
  59.1151198  89.3730306 114.7438783  59.6669506  89.5361927 115.5087868
  59.4557391  89.9634744 114.0718808  53.5667964  73.7928588 118.9933702
  54.1940003  73.4105666 119.6071226  52.7095883  73.5742790 119.3589394
  52.0721348  73.2819115 105.0491382  51.7434054  72.4016494 104.8666488
  52.4260719  73.2266784 105.9367771  56.0561663  75.7297569 111.1289229
  55.9106243  76.0437872 112.0213511  55.5786866  76.3482469 110.5760128
  50.5307325  78.2702913 114.0676891  49.9860793  79.0462721 114.1997165
  51.4086675  78.6173718 113.9096012  51.3173347  77.3972809 116.9607047
  50.5755083  77.5455445 117.5471678  50.9966091  77.6581075 116.0973797
  59.2617009  86.9388788 116.7587437  59.5704136  86.6937934 117.6310137
  60.0592491  87.1435426 116.2706308  56.7311494  84.6364706 111.0615116
  56.1091503  83.9735411 110.7617343  57.4016360  84.6625838 110.3788763
  53.0567970  78.9796354 113.4524814  53.2753979  79.9113461 113.4712848
  53.4693743  78.6204328 114.2379618  57.9295835  74.5529559 122.8427563
  57.8292562  75.5023916 122.7739654  57.7117377  74.2247798 121.9703633
  49.1476322  79.8836824 111.7048429  48.4539793  79.4690777 111.1918384
  49.8949313  79.9257361 111.1081848  57.7927105  77.9826698 121.6592625
  57.3094187  78.7827058 121.8656514  57.8788044  77.9934643 120.7060069
  53.7200442  81.8731233 113.6961059  54.6743696  81.8415175 113.6290990
  53.5212966  81.4121857 114.5111284  54.3099825  80.4432349 116.2631856
  55.1292714  80.9376428 116.2866694  54.5836632  79.5264317 116.2349424
  52.0750671  87.4150852 110.7131256  51.9405139  86.6551253 110.1469254
  51.6582733  88.1391752 110.2460045  55.2319797  88.3120169 110.9249699
  55.1152181  89.2565602 110.8228389  54.4112243  88.0093731 111.3135498
  49.5634739  74.7770483 116.9624053  50.2093602  74.2669437 117.4511278
  49.3551890  75.5139164 117.5367479  62.0888131  81.8451330 122.4616194
  62.9579291  82.0191983 122.1002829  61.6094882  82.6645747 122.3391923
  56.2574311  88.9648431 114.1405628  57.1601558  88.9972042 114.4572122
  56.0311681  88.0348882 114.1551963  58.0127913  87.7179418 110.8015706
  57.0623544  87.7181279 110.6880078  58.3160399  86.9712152 110.2851741
  73.7480607  93.5539956 111.8661469  74.3859017  93.4346704 111.1624809
  73.6301450  94.5020800 111.9249421  70.5570313  93.5067384 111.8022993
  70.2188825  93.3908449 110.9143528  71.4260081  93.1058549 111.7823999
  71.0390096  94.6602236 117.7609199  71.0278737  94.2655034 116.8889702
  71.2010735  93.9268309 118.3542970  67.7597357  97.4439348 116.7088383
  67.4687223  98.3484979 116.5935049  68.3954341  97.4855875 117.4232452
  68.6853564  94.8216196 113.2989742  69.2817136  94.5972219 112.5846705
  68.7428536  94.0800942 113.9015190  72.7187242  97.1300763 113.7038176
  72.4187965  98.0325802 113.5953984  72.3738302  96.8632947 114.5559329
  67.7008022 103.8945084 106.6709144  67.6232052 104.8452909 106.7497625
  67.0969666 103.5490956 107.3284070  70.1925252  91.0672949 119.3270511
  69.4158586  91.6266869 119.3173376  70.8315815  91.5529732 119.8485381
  68.4471624  93.8758403 118.8888478  69.1886308  94.4143446 118.6123302
  67.7408610  94.5024691 119.0460030  73.9226964  96.0187543 117.4860640
  74.3310320  95.5769954 116.7415272  73.2004225  95.4440171 117.7394832
  74.2455778  96.5788734 111.2412928  73.6164641  96.7434448 110.5388996
  73.8581440  96.9930343 112.0123892  75.3795942  95.1603130 115.1952636
  75.5912837  95.8034890 114.5187017  75.3325690  94.3265447 114.7274566
  67.1832988  91.0298051 119.6903788  66.5531648  91.7114332 119.9239185
  67.0769076  90.9181132 118.7456926  76.4941770  98.0375086 113.3674993
  77.3159214  97.6355273 113.0857675  76.4904173  97.9343320 114.3191109
  70.2598373  97.5859129 115.5235704  70.3242806  98.0479536 116.3593875
  69.5509297  96.9556494 115.6518013  60.7615663  90.9500337 113.0484703
  61.0123702  91.8347347 113.3142279  61.2975212  90.7704939 112.2759795
  84.5847763  94.3813834 109.7159964  83.8311471  93.8121232 109.5603969
  84.7195304  94.3476499 110.6630599  65.2370673  99.8868431 108.0465362
  65.4137301 100.8086396 107.8586346  66.0327507  99.5726850 108.4759742
  69.3781692  86.7476696 119.6449296  70.1191405  87.3483849 119.5653758
  69.6099614  86.0054333 119.0867338  64.5223030  91.9333063 117.9227525
  64.4076545  91.0318320 118.2234624  63.6667547  92.1796760 117.5712342
  71.6014867  99.8750803 119.5215026  71.1578722  99.0887182 119.2035930
  72.2632081 100.0629954 118.8558917  66.3601989 101.4046605 114.0475704
  66.9109414 101.2763668 113.2752698  65.5213464 101.7041494 113.6970597
  73.6996105 100.1553603 117.5496427  73.6814581 100.9762484 117.0576696
  74.6216025 100.0307678 117.7746568  70.1569160  97.6697733 118.3919936
  70.6897496  96.9086021 118.1619244  69.6283241  97.3771384 119.1344090
  75.3120177  93.3477118 109.0709736  75.8252059  93.9807110 109.5731445
  75.9621401  92.7478314 108.7053096  69.4848538 100.9439968 109.2232150
  69.4424717 101.1700814 108.2940682  70.4011237 100.7103342 109.3717951
  72.9314172  91.4124035 116.1212779  73.2863559  91.6395508 116.9807245
  73.5786303  91.7442412 115.4990034  72.4209183 100.2021092 113.3706480
  72.4746205 100.7712028 114.1384196  71.5523964 100.3722977 113.0060517
  79.5496838  96.6442699 114.3706265  79.7432728  97.5488509 114.6165540
  79.4497456  96.1850118 115.2044850  74.6111946  96.7949441 119.9447145
  74.4597453  96.5659993 119.0277229  74.6016626  97.7520043 119.9578490
  71.3797283  94.3681354 114.9293412  72.3089343  94.5192514 114.7562379
  70.9588313  94.4565375 114.0742058  70.1785614  98.3932019 112.6991949
  70.0396700  98.0250803 113.5717888  69.3900211  98.9079658 112.5275907
  70.7733766 103.4941115 104.0417486  70.9485522 103.0229158 104.8563109
  70.0866554 104.1206881 104.2698747  71.7290830  97.7713621 110.0880787
  71.3940662  97.7314391 110.9838437  71.2294775  97.1058337 109.6151197
  65.7035074  93.1781251 115.6133368  65.5654872  92.4461490 116.2144907
  66.6139997  93.0890151 115.3317556  68.3317374  92.8901211 115.1017048
  69.0416993  92.2494403 115.0603666  68.2886682  93.1414105 116.0243229
  76.3204153  99.8268564 118.0223627  76.2616699  99.1427784 117.3554210
  76.7223671 100.5687554 117.5704253  67.0446308  89.8766428 116.9212687
  66.5083665  89.4257167 117.5734284  66.4563017  90.0112337 116.1783152
  65.3394852 106.6430478 110.8157346  65.5791450 107.2749002 111.4936365
  64.4964048 106.2918518 111.1022705  76.3221560  97.7908148 116.2537607
  75.4348339  97.4534070 116.3764006  76.8920111  97.0591179 116.4906372
  57.9750707  94.1232240 109.5780658  58.6621747  93.8093970 108.9901674
  57.8198836  95.0273604 109.3047910  69.8522714 102.4509600 113.2198850
  69.7792885 103.2564572 113.7318155  69.4100107 102.6501566 112.3946871
  69.6412493 101.6881370 106.7301672  68.8580015 102.2303050 106.8239896
  70.3405238 102.2055350 107.1295913  72.3121397 102.3496434 115.3757009
  73.0249369 102.9843899 115.3032910  71.8211426 102.4460300 114.5597011
  67.3633311 100.0990878 116.1962580  68.0642770 100.7327361 116.3491974
  66.8928426 100.4405609 115.4358219  75.1634597  92.6535485 114.0215130
  74.5106047  92.9011393 113.3667583  75.5414977  91.8399623 113.6877607
  72.1241771 102.6895178 108.1243300  72.3064165 101.8716834 108.5871053
  72.9474757 102.9062871 107.6868190  71.2122170  93.3955296 120.5081167
  70.5362807  93.2949426 121.1783542  72.0349804  93.2394510 120.9717164
  62.9601029  99.6327233 113.1293682  63.5454466  98.8870921 113.2621586
  62.7625867  99.9431189 114.0130346  65.8139684 102.6678480 108.1456125
  65.1450059 103.1524608 107.6620165  65.6752554 102.9147701 109.0599503
  57.5518683  92.2032833 111.8498125  57.5902783  91.6696424 112.6435244
  57.0458976  91.6768038 111.2309103  69.9544953 104.7022224 114.7438783
  70.5063261 104.8653845 115.5087868  70.2951146 105.2926661 114.0718808
  64.4061718  89.1220506 118.9933702  65.0333757  88.7397583 119.6071226
  63.5489637  88.9034708 119.3589394  74.8055827  99.5283481 120.5987437
  75.3495731 100.1413439 120.1042392  74.2242672 100.0863060 121.1154450
  73.0913340 102.6504199 111.7302465  72.9664479 101.8493939 111.2213411
  73.7492431 103.1450393 111.2416435  75.1548248 100.4513219 113.3582015
  74.2078584 100.3318570 113.2860342  75.5031021  99.5635717 113.4408277
  72.1594681 100.2465935 109.5586367  72.0119644  99.3182643 109.7393938
  72.9848175 100.2686026 109.0743443  61.3701079  93.5994831 114.0676891
  60.8254547  94.3754639 114.1997165  62.2480429  93.9465635 113.9096012
  62.1567101  92.7264727 116.9607047  61.4148837  92.8747362 117.5471678
  61.8359845  92.9872993 116.0973797  70.1010764 102.2680705 116.7587437
  70.4097890 102.0229852 117.6310137  70.8986246 102.4727344 116.2706308
  70.1231376 104.4218615 108.9892814  69.6836366 103.9294994 109.6825671
  70.8739493 103.8791583 108.7484889  62.6023715 100.6130156 108.9917442
  63.4281735 100.3133928 108.6116086  62.2517767  99.8437778 109.4407231
  67.5705248  99.9656624 111.0615116  66.9485257  99.3027329 110.7617343
  68.2410115  99.9917756 110.3788763  60.8032320  98.5316482 109.9506376
  59.9664228  98.1038657 109.7690377  60.7755965  98.7248926 110.8877167
  67.6429776  88.4438412 120.6547622  67.6917931  89.3200535 120.2725391
  68.1852290  87.9015805 120.0819265  78.1284621  98.9879535 119.9348759
  77.3380165  98.9703674 119.3953258  77.8917976  99.5267829 120.6897795
  78.2482496  95.8372002 117.2481487  78.2980501  95.6722009 118.1897010
  78.1396420  94.9699261 116.8579368  75.5386259  91.8202930 118.5640794
  76.4396121  91.6809394 118.2724792  75.6134233  91.9857384 119.5038971
  69.8729064  89.1969784 117.4093980  69.0032373  89.4903350 117.1376569
  70.1088544  89.7810229 118.1301244  79.7500693  98.2568943 117.4923509
  79.4585501  98.6198924 118.3286970  79.1372824  97.5435951 117.3136841
  77.9987881  93.3801558 115.9603567  78.4742003  93.5729204 115.1522418
  77.0753447  93.4360744 115.7146950  70.8999652  96.3987237 120.8102033
  71.8202661  96.5765836 121.0042080  70.8649235  95.4543282 120.6581732
  60.1181817  91.5925830 109.7355308  59.7984601  90.7391138 109.4429682
  59.5715245  91.8074408 110.4913275  68.7689589  89.8821477 122.8427563
  68.6686316  90.8315834 122.7739654  68.5511131  89.5539716 121.9703633
  59.9870077  95.2128742 111.7048429  59.2933548  94.7982695 111.1918384
  60.7343068  95.2549278 111.1081848  68.6320859  93.3118616 121.6592625
  68.1487941  94.1118976 121.8656514  68.7181798  93.3226561 120.7060069
  64.5594197  97.2023151 113.6961059  65.5137450  97.1707093 113.6290990
  64.3606721  96.7413774 114.5111284  65.1493579  95.7724267 116.2631856
  65.9686468  96.2668345 116.2866694  65.4230387  94.8556235 116.2349424
  62.9144426 102.7442770 110.7131256  62.7798894 101.9843171 110.1469254
  62.4976488 103.4683670 110.2460045  66.0713552 103.6412087 110.9249699
  65.9545936 104.5857520 110.8228389  65.2505998 103.3385649 111.3135498
  60.4028493  90.1062400 116.9624053  61.0487357  89.5961354 117.4511278
  60.1945644  90.8431082 117.5367479  72.9281885  97.1743248 122.4616194
  73.7973045  97.3483900 122.1002829  72.4488637  97.9937665 122.3391923
  67.0968066 104.2940349 114.1405628  67.9995312 104.3263959 114.4572122
  66.8705436 103.3640800 114.1551963  68.8521668 103.0471336 110.8015706
  67.9017299 103.0473197 110.6880078  69.1554154 102.3004070 110.2851741
  84.5874361 108.8831874 111.8661469  85.2252771 108.7638621 111.1624809
  84.4695204 109.8312718 111.9249421  81.3964068 108.8359302 111.8022993
  81.0582579 108.7200367 110.9143528  82.2653836 108.4350467 111.7823999
  77.2550883 110.6894778 107.7919884  76.6915748 110.5984715 107.0236172
  77.1403278 109.8694683 108.2722377  81.8783850 109.9894154 117.7609199
  81.8672491 109.5946952 116.8889702  82.0404490 109.2560226 118.3542970
  74.8015315 112.1845970 110.6304105  75.5936607 111.8436795 110.2150404
  75.0411965 112.2940945 111.5506258  82.8350442 114.3565746 103.1034349
  82.1838422 114.9419827 102.7168363  83.6294805 114.8871941 103.1629387
  76.7606069 111.4454883 103.5021483  77.5336945 110.8983870 103.3634359
  77.1131468 112.3099133 103.7135945  78.5991112 112.7731266 116.7088383
  78.3080978 113.6776896 116.5935049  79.2348096 112.8147793 117.4232452
  79.5247318 110.1508114 113.2989742  80.1210891 109.9264136 112.5846705
  79.5822290 109.4092860 113.9015190  79.0972347 107.6047549 101.1339933
  79.3497868 107.0829071 100.3723396  78.1596906 107.4413695 101.2366617
  84.1415630 106.6083328 108.9414677  84.9278719 106.1902751 108.5905094
  84.4054334 107.5129420 109.1096325  84.3125707 112.0456178 103.6403333
  83.6771540 112.1190805 104.3524238  83.9823113 112.6349777 102.9622413
  89.5424057 106.5458561 109.8447655  90.2749229 105.9757778 110.0785485
  88.7863413 106.1580161 110.2854161  78.8168636 109.5075655 103.3364308
  78.7004894 108.8320559 104.0045393  78.9270896 109.0208029 102.5196461
  81.1600177 108.9685802 107.0410998  80.7958384 108.4416423 107.7523919
  82.0167292 108.5784272 106.8677483  87.0649477 100.2580135 114.3042264
  86.7332802 101.1275546 114.0803479  86.4695091  99.9416419 114.9836294
  80.8005664 103.9975702 102.0372346  80.9680066 104.8655939 102.4042817
  80.6102833 104.1602984 101.1133635  83.5580997 112.4592681 113.7038176
  83.2581720 113.3617720 113.5953984  83.2132056 112.1924864 114.5559329
  77.0093478 108.9106478 109.7374881  76.0843975 108.7782692 109.9452573
  77.2577891 109.6900697 110.2344823  86.9578141 104.9775221 111.3835614
  86.0495018 104.9090630 111.0894375  86.9065736 105.4547166 112.2117439
  80.7794884 106.4533360 103.0219013  80.6594510 106.8990410 103.8604493
  80.0847473 106.8018677 102.4632551  74.3702289 108.5539751 110.5718670
  74.4994670 108.8074230 111.4858082  73.6899741 109.1467459 110.2523325
  78.5401777 119.2237001 106.6709144  78.4625806 120.1744826 106.7497625
  77.9363420 118.8782874 107.3284070  81.0319006 106.3964867 119.3270511
  80.2552340 106.9558787 119.3173376  81.6709569 106.8821650 119.8485381
  88.8239787 103.1791660 113.1613488  88.1814167 103.4724193 112.5153282
  88.3194715 103.0644580 113.9666684  86.4779951 106.9254833 103.8499347
  87.3897807 107.1582220 103.6747044  85.9689598 107.5091877 103.2874426
  79.2865379 109.2050320 118.8888478  80.0280063 109.7435364 118.6123302
  78.5802364 109.8316609 119.0460030  84.7620718 111.3479461 117.4860640
  85.1704074 110.9061871 116.7415272  84.0397980 110.7732088 117.7394832
  81.1151788 106.2852067 114.8594196  81.9612983 106.7091481 115.0028845
  81.0550426 105.6285692 115.5532760  85.0849533 111.9080651 111.2412928
  84.4558395 112.0726365 110.5388996  84.6975195 112.3222261 112.0123892
  88.9638765 112.8435089 108.5957292  88.2789803 113.2233990 108.0454325
  89.0482614 113.4530416 109.3289240  84.2651234 103.9456436 116.5175370
  84.0212165 104.6998496 115.9809646  84.5411164 104.3241783 117.3522617
  86.2189696 110.4895048 115.1952636  86.4306592 111.1326808 114.5187017
  86.1719445 109.6557365 114.7274566  83.8215925 103.1012869 112.0989208
  82.9600404 103.3994122 112.3905945  83.8478360 103.3183268 111.1670240
  80.6377495 111.6455059 108.5063013  81.1015840 111.9242762 107.7167636
  80.3734293 110.7438504 108.3236104  77.5301576 111.1926541 111.4442777
  78.1002933 111.6213809 110.8060261  78.1209688 110.9109126 112.1426962
  79.5746381 107.7678212 105.3152579  80.2770424 108.2199255 105.7826505
  79.2427009 107.1262031 105.9432472  78.0226742 106.3589968 119.6903788
  77.3925403 107.0406249 119.9239185  77.9162830 106.2473050 118.7456926
  73.3171715 106.0261764 110.6169712  72.5270769 106.2819293 110.1409823
  73.8082962 106.8410102 110.7221753  87.3335524 113.3667004 113.3674993
  88.1552968 112.9647191 113.0857675  87.3297927 113.2635238 114.3191109
  75.2686460 106.3906344 107.5753189  74.4717623 106.5025038 108.0936685
  75.0412052 106.7292996 106.7094079  81.0992128 112.9151047 115.5235704
  81.1636560 113.3771454 116.3593875  80.3903052 112.2848412 115.6518013
  71.6009418 106.2792255 113.0484703  71.8517456 107.1639265 113.3142279
  72.1368966 106.0996856 112.2759795  95.4241517 109.7105752 109.7159964
  94.6705226 109.1413150 109.5603969  95.5589059 109.6768417 110.6630599
  80.8140145 114.5819154 105.3914684  80.6785820 115.4270690 105.8199532
  81.3549958 114.7838432 104.6280618  77.3007485 100.6610734 122.0529039
  76.9074431 100.1076933 122.7276683  78.1173625 100.9721313 122.4435557
  74.2669543 112.0994592 105.9642609  74.7794063 112.8937843 106.1148174
  74.9192256 111.4020883 105.8976210  76.0764428 115.2160349 108.0465362
  76.2531056 116.1378313 107.8586346  76.8721261 114.9018768 108.4759742
  80.2175446 102.0768613 119.6449296  80.9585159 102.6775766 119.5653758
  80.4493369 101.3346251 119.0867338  75.3616784 107.2624981 117.9227525
  75.2470299 106.3610238 118.2234624  74.5061302 107.5088677 117.5712342
  82.4408622 115.2042721 119.5215026  81.9972476 114.4179099 119.2035930
  83.1025835 115.3921871 118.8558917  77.1995743 116.7338522 114.0475704
  77.7503168 116.6055586 113.2752698  76.3607219 117.0333411 113.6970597
  84.5389860 115.4845521 117.5496427  84.5208335 116.3054402 117.0576696
  85.4609780 115.3599596 117.7746568  80.9962914 112.9989650 118.3919936
  81.5291251 112.2377938 118.1619244  80.4676995 112.7063302 119.1344090
  84.1632609  98.1049716 113.9213577  83.8196878  98.9951358 113.8452688
  84.5311572  97.9151374 113.0583162  72.2318460 110.4283247 106.7402179
  73.0693682 110.8380255 106.5235887  72.4096727 109.4882689 106.7102373
  84.1282892 108.0958327 102.4286012  83.6129515 108.8662932 102.6674400
  83.8560200 107.4223464 103.0519074  81.7130003 102.9408028 107.4871251
  80.8571599 102.5514879 107.3076890  82.1256955 103.0199989 106.6271036
  83.2429149 100.4754371 111.8862811  82.7393945 100.4384507 111.0730616
  83.5359756 101.3847114 111.9459467  89.1017166 110.8490682 104.3639186
  88.3246609 110.5101841 103.9194348  89.7808647 110.8543305 103.6894151
  83.9169195 105.9685419 104.2545794  83.6119330 106.2831569 105.1055937
  84.8699637 106.0466839 104.2973127  82.3615627 112.1275643 105.9038748
  81.8336988 111.3928402 105.5911985  81.8603129 112.9050319 105.6578716
  87.3408473 110.3224663 111.0205794  86.6832147 111.0123925 111.1085923
  88.1448872 110.7121095 111.3639780  86.1513932 108.6769036 109.0709736
  86.6645813 109.3099028 109.5731445  86.8015155 108.0770231 108.7053096
  80.5068227 109.9455853  98.9073721  79.5995289 109.7145106  99.1064870
  81.0039259 109.1493472  99.0947702  83.4136306 118.6553360 101.8270407
  82.7398005 118.9585057 102.4355365  83.8002128 119.4582441 101.4775864
  82.6294762 106.1518491 111.3168076  81.7117324 106.3733439 111.1589764
  83.0454906 106.2264802 110.4579783  83.4129810 107.5509907 106.4470756
  84.1601629 108.0631304 106.1377878  83.6821400 107.2293960 107.3075150
  81.6856460 110.0468448 103.4297711  80.7767680 109.7627481 103.5270180
  81.7151544 110.4667526 102.5701018  86.9175728 113.6575037 107.1988878
  86.4638055 112.8165947 107.2554069  86.2869694 114.2936436 107.5363658
  85.8608647 104.5867023 108.4289546  85.1231404 104.0744410 108.7599788
  86.1135421 104.1467405 107.6172823  85.3608667 115.4951534 108.1338696
  85.6531641 116.0556591 107.4151062  85.8707288 115.7880095 108.8891856
  85.9620275  97.3643275 109.0231315  86.2679151  96.5040639 108.7357230
  86.6872879  97.9560896 108.8230309  72.2544631 107.7673962 107.4112913
  72.0569031 107.1743323 106.6863979  71.6991295 107.4626172 108.1288852
  80.2341354 107.6597068 109.5307506  80.2889964 106.7070905 109.4549983
  79.4232556 107.8156508 110.0148804  81.3832548 111.5877192 100.7685789
  80.9451978 110.8713050 100.3091427  82.1242989 111.8153306 100.2070881
  78.1733714 106.2774128 107.2897885  77.3601580 106.5768299 107.6963077
  78.6692709 105.8829817 108.0072367  80.3242292 116.2731885 109.2232150
  80.2818471 116.4992731 108.2940682  81.2404991 116.0395260 109.3717951
  83.7707926 106.7415953 116.1212779  84.1257314 106.9687426 116.9807245
  84.4180057 107.0734330 115.4990034  89.5005663 109.8634389 106.8262108
  89.3623562 110.0535985 105.8983297  89.1441882 110.6253771 107.2830159
  77.6647789 103.8492484 112.9059120  78.3047168 103.7081243 112.2082083
  76.8325320 103.5626997 112.5297722  89.5275043 111.9310916 111.8373379
  89.9611549 111.8386205 112.6856433  90.2406623 111.9068416 111.1993395
  78.4408093 113.1494914 109.0194112  79.2348691 112.6545234 108.8176687
  77.7299785 112.6212777 108.6561818  83.2602937 115.5313010 113.3706480
  83.3139960 116.1003946 114.1384196  82.3917719 115.7014895 113.0060517
  74.7490856 107.2937996 105.0953865  73.8188445 107.2322451 105.3123827
  74.8448328 106.7713949 104.2990506  74.6676405 103.8192809 107.6832107
  74.9283223 104.7338142 107.5741267  75.4893578 103.3517251 107.8328719
  76.1401331 105.2330566 114.8530931  76.8124384 105.0247928 114.2043580
  75.3131117 105.0352652 114.4136164  90.3890592 111.9734616 114.3706265
  90.5826482 112.8780427 114.6165540  90.2891210 111.5142035 115.2044850
  82.0426903 101.8592507 116.8696592  81.3954818 102.5582457 116.7761068
  82.8127918 102.2928651 117.2372840  85.4505701 112.1241359 119.9447145
  85.2991207 111.8951911 119.0277229  85.4410380 113.0811960 119.9578490
  82.2191037 109.6973272 114.9293412  83.1483097 109.8484431 114.7562379
  81.7982067 109.7857293 114.0742058  81.0179369 113.7223936 112.6991949
  80.8790455 113.3542721 113.5717888  80.2293965 114.2371576 112.5275907
  81.6127521 118.8233033 104.0417486  81.7879277 118.3521076 104.8563109
  80.9260309 119.4498799 104.2698747  82.5684584 113.1005539 110.0880787
  82.2334417 113.0606309 110.9838437  82.0688530 112.4350255 109.6151197
  76.5428828 108.5073169 115.6133368  76.4048626 107.7753408 116.2144907
  77.4533752 108.4182069 115.3317556  85.5043776 110.4461573 100.3617847
  84.8872946 109.7208401 100.2650900  85.0360264 111.2070933 100.0184921
  79.1711129 108.2193128 115.1017048  79.8810747 107.5786320 115.0603666
  79.1280437 108.4706023 116.0243229  87.1597907 115.1560482 118.0223627
  87.1010454 114.4719702 117.3554210  87.5617426 115.8979472 117.5704253
  77.8840063 105.2058346 116.9212687  77.3477420 104.7549085 117.5734284
  77.2956771 105.3404255 116.1783152  76.1788606 121.9722395 110.8157346
  76.4185204 122.6040920 111.4936365  75.3357803 121.6210435 111.1022705
  87.1615315 113.1200066 116.2537607  86.2742093 112.7825987 116.3764006
  87.7313866 112.3883097 116.4906372  68.8144462 109.4524157 109.5780658
  69.5015502 109.1385887 108.9901674  68.6592591 110.3565522 109.3047910
  73.6179184 104.3414354 114.0065682  73.5337373 103.7340023 113.2716092
  72.7961890 104.8323372 114.0075178  80.6916468 117.7801518 113.2198850
  80.6186640 118.5856489 113.7318155  80.2493861 117.9793484 112.3946871
  80.4806248 117.0173288 106.7301672  79.6973770 117.5594968 106.8239896
  81.1798993 117.5347268 107.1295913  83.7902898 102.8267917 109.3735877
  84.2871597 102.0737880 109.0536947  83.0189879 102.8632234 108.8079086
  91.6432655 108.5308283 111.0154169  91.6322531 109.4132998 110.6448102
  90.7750035 108.1779834 110.8208706  83.1515152 117.6788352 115.3757009
  83.8643124 118.3135817 115.3032910  82.6605180 117.7752218 114.5597011
  84.8732679 111.5839605 106.9474300  83.9388957 111.7041067 106.7779005
  85.0509347 110.6812071 106.6834310  80.3737867 104.9685300 109.1007562
  80.0035654 104.4156341 109.7888467  80.8696959 104.3643434 108.5482562
  88.2605230 107.4256924 107.4824335  88.7265682 108.2584915 107.4084637
  88.7112730 106.9601905 108.1869593  78.2027065 115.4282795 116.1962580
  78.9036525 116.0619278 116.3491974  77.7322180 115.7697527 115.4358219
  86.3281461 113.7700745 104.4810487  86.6041305 113.6557340 105.3904361
  85.4585960 113.3718230 104.4422660  86.2321893  99.7937511 111.5215236
  85.3184972 100.0241738 111.6897443  86.6614994  99.8775955 112.3729268
  86.0028351 107.9827403 114.0215130  85.3499801 108.2303310 113.3667583
  86.3808731 107.1691541 113.6877607  82.9635525 118.0187096 108.1243300
  83.1457920 117.2008752 108.5871053  83.7868511 118.2354788 107.6868190
  83.2977690 116.9455281 105.3858349  83.8265457 116.4347736 104.7728511
  83.5605910 116.6297811 106.2503882  82.0515924 108.7247214 120.5081167
  81.3756561 108.6241343 121.1783542  82.8743558 108.5686428 120.9717164
  73.7994783 114.9619150 113.1293682  74.3848220 114.2162838 113.2621586
  73.6019622 115.2723107 114.0130346  76.6533438 117.9970398 108.1456125
  75.9843814 118.4816525 107.6620165  76.5146308 118.2439618 109.0599503
  68.3912438 107.5324751 111.8498125  68.4296537 106.9988341 112.6435244
  67.8852731 107.0059956 111.2309103  80.7938707 120.0314141 114.7438783
  81.3457015 120.1945763 115.5087868  81.1344900 120.6218579 114.0718808
  75.7703200 102.3789291 115.3460668  75.8344527 103.2404122 114.9338065
  75.7070320 101.7663293 114.6133026  75.2455473 104.4512424 118.9933702
  75.8727512 104.0689501 119.6071226  74.3883392 104.2326626 119.3589394
  85.6449581 114.8575399 120.5987437  86.1889485 115.4705357 120.1042392
  85.0636426 115.4154977 121.1154450  72.0221016 106.2588853 104.9252057
  72.3174457 105.3499531 104.8719111  71.1209051 106.2376592 104.6033059
  83.9307094 117.9796117 111.7302465  83.8058234 117.1785857 111.2213411
  84.5886185 118.4742310 111.2416435  75.5515263 104.3344849 110.9079605
  74.8301848 104.9480817 110.7687079  76.3408518 104.8702614 110.8296251
  85.9942003 115.7805137 113.3582015  85.0472338 115.6610488 113.2860342
  86.3424776 114.8927635 113.4408277  78.3541576 101.6699276 117.1820257
  78.8775978 101.9161572 117.9446566  78.1353909 102.5019311 116.7623394
  82.9988436 115.5757853 109.5586367  82.8513398 114.6474561 109.7393938
  83.8241929 115.5977944 109.0743443  86.6022558 116.3986412 110.6451240
  87.5269105 116.1929273 110.5075691  86.4337861 116.1502813 111.5540582
  79.5594121 102.6112971 114.8669928  79.2190941 101.8120784 115.2690608
  78.8533127 102.9114682 114.2946761  80.2110593  99.6962283 113.3197251
  81.0336662  99.2222762 113.1976141  80.4548656 100.4752767 113.8195937
  82.9949950 103.4295691 104.5518485  83.2113565 104.3120329 104.2507313
  82.5144017 103.0381904 103.8224127  77.7349172 106.3881404 111.1289229
  77.5893752 106.7021707 112.0213511  77.2574375 107.0066304 110.5760128
  79.5945555 103.3783952 111.1770119  79.5807123 102.4825045 110.8402417
  80.3117983 103.3854616 111.8108405  81.4471685 103.8121292 113.2223246
  81.1889463 104.7338363 113.2207577  80.9156726 103.4151727 113.9123710
  86.3917874 116.9172079 106.0013332  86.5654752 116.3518502 105.2487184
  86.8846765 117.7172974 105.8192822  72.2094834 108.9286748 114.0676891
  71.6648302 109.7046556 114.1997165  73.0874184 109.2757553 113.9096012
  81.8673641  99.9453243 109.5824409  81.8895338 100.0092576 108.6276388
  82.2841700  99.1057751 109.7764915  92.2457265 109.6808502 107.6203631
  92.6888411 108.9315827 107.2222755  91.3683775 109.6718639 107.2377363
  87.3793047 116.2338844 103.1010230  88.0743951 116.8545536 103.3197545
  87.7216197 115.3834195 103.3762608  72.9960856 108.0556645 116.9607047
  72.2542592 108.2039280 117.5471678  72.6753600 108.3164910 116.0973797
  89.2784470 113.6838549 104.6297561  89.8035794 114.0225822 103.9046881
  89.1906822 112.7485565 104.4460695  80.9404518 117.5972623 116.7587437
  81.2491645 117.3521770 117.6310137  81.7380000 117.8019261 116.2706308
  80.9625130 119.7510533 108.9892814  80.5230121 119.2586911 109.6825671
  81.7133247 119.2083500 108.7484889  73.4417469 115.9422073 108.9917442
  74.2675489 115.6425845 108.6116086  73.0911521 115.1729696 109.4407231
  78.4099003 115.2948542 111.0615116  77.7879012 114.6319247 110.7617343
  79.0803869 115.3209674 110.3788763  71.6426074 113.8608400 109.9506376
  70.8057983 113.4330574 109.7690377  71.6149720 114.0540843 110.8877167
  78.4823530 103.7730330 120.6547622  78.5311686 104.6492452 120.2725391
  79.0246044 103.2307723 120.0819265  88.9678376 114.3171453 119.9348759
  88.1773919 114.2995592 119.3953258  88.7311730 114.8559747 120.6897795
  89.0876251 111.1663919 117.2481487  89.1374256 111.0013927 118.1897010
  88.9790174 110.2991178 116.8579368  77.9712509 113.8452465 104.5373576
  78.1200630 114.5287929 103.8840249  78.7778953 113.8257555 105.0523032
  86.3780013 107.1494847 118.5640794  87.2789876 107.0101312 118.2724792
  86.4527988 107.3149302 119.5038971  80.7122818 104.5261702 117.4093980
  79.8426128 104.8195268 117.1376569  80.9482299 105.1102147 118.1301244
  90.5894448 113.5860861 117.4923509  90.2979256 113.9490841 118.3286970
  89.9766579 112.8727869 117.3136841  91.7890130 111.1513741 110.0126079
  92.6237021 111.5903545 110.1763639  91.9249259 110.6752394 109.1934325
  88.8381636 108.7093475 115.9603567  89.3135757 108.9021122 115.1522418
  87.9147201 108.7652661 115.7146950  75.7265142 109.8717643 105.5434645
  75.4811184 108.9679973 105.7414855  75.8961057 109.8734793 104.6014123
  83.4161852 100.7441319 114.9259401  83.9343796 101.4802346 114.6005889
  83.0616985 101.0505312 115.7606160  83.6674446  97.1641602 110.4460297
  83.9476200  96.4964791 111.0720724  84.4525053  97.3570697 109.9334961
  81.4707915 116.3400595 102.0085324  80.8981882 116.9590783 101.5555795
  82.0440709 116.8899957 102.5425246  87.5383305 105.5859235 114.1931872
  88.4900728 105.6857333 114.2144096  87.3686755 104.7937504 114.7029957
  85.5597684 102.6714819 114.3791273  84.9647616 102.9519831 113.6837762
  85.2747381 103.1608720 115.1508014  84.6905175 116.6237746 103.1393906
  85.6235848 116.5583307 103.3426781  84.6028388 117.4594012 102.6808439
  87.3193191 115.9403616 100.0997853  87.2406823 115.6063479 100.9933611
  88.1402858 116.4325384 100.0989326  90.0171383 108.8065355 113.3074172
  89.9847703 107.8681356 113.4933856  90.6272006 108.8849392 112.5739997
  81.8554713 107.6761408  99.3501376  82.8013818 107.5467616  99.4189794
  81.4768958 106.9376070  99.8270804  90.1665871 105.5976399 113.3532455
  89.6504920 104.8134855 113.1662384  91.0505820 105.2695115 113.5178975
  87.8276598  99.3417414 109.3128268  87.6301419  99.0332502 110.1971600
  88.4376304 100.0679053 109.4426198  95.8347932 109.8681362 112.4480209
  96.5651321 109.6066650 113.0087912  95.2254878 109.1310084 112.4882277
  93.9163230 108.0089225 113.0454660  93.1896393 107.8745190 112.4371152
  93.5010516 108.3166053 113.8511378  81.7393406 111.7279154 120.8102033
  82.6596415 111.9057753 121.0042080  81.7042989 110.7835200 120.6581732
  80.0397631 105.6011385  99.2856261  79.1329086 105.3044497  99.3618975
  80.3173612 105.3041203  98.4190548  70.9575571 106.9217748 109.7355308
  70.6378355 106.0683056 109.4429682  70.4108999 107.1366326 110.4913275
  74.7355479 109.6380189 113.4524814  74.9541488 110.5697297 113.4712848
  75.1481252 109.2788163 114.2379618  83.5850245  99.2226321 107.0624799
  84.1381283  99.6421774 107.7214822  83.8220331  98.2962069 107.1047755
  79.6083344 105.2113395 122.8427563  79.5080071 106.1607752 122.7739654
  79.3904886 104.8831634 121.9703633  70.8263831 110.5420659 111.7048429
  70.1327302 110.1274612 111.1918384  71.5736822 110.5841196 111.1081848
  86.9629052 101.3326846 106.5703463  86.3827721 101.9911650 106.1881516
  86.6964984 100.5104191 106.1590881  85.4132618 100.7331904 108.7724784
  85.9132396 100.8448438 107.9639103  86.0568226 100.4292957 109.4125592
  79.4714614 108.6410534 121.6592625  78.9881696 109.4410894 121.8656514
  79.5575553 108.6518478 120.7060069  72.7400574 110.4738913 109.5814444
  72.7171262 110.5726601 108.6296327  73.0501210 111.3204064 109.9031610
  75.3987951 112.5315068 113.6961059  76.3531205 112.4999011 113.6290990
  75.2000475 112.0705692 114.5111284  75.9887334 111.1016184 116.2631856
  76.8080223 111.5960263 116.2866694  76.2624141 110.1848152 116.2349424
  85.7453930 103.4926937 105.6259812  84.8579785 103.7776587 105.4080007
  86.1607919 103.3320700 104.7787089  89.0968466 103.5173458 109.3414151
  89.8728856 104.0069910 109.6138768  88.3716600 103.9431512 109.7986020
  91.5341025 104.2301077 110.3988092  92.1285515 103.9896813 109.6881400
  91.6067608 103.5108207 111.0261628  73.7538180 118.0734688 110.7131256
  73.6192648 117.3135089 110.1469254  73.3370242 118.7975588 110.2460045
  84.8897143 113.2571611  99.7207832  85.5932993 113.4621614 100.3365487
  84.1659792 113.8248373  99.9856915  85.7194953 109.0081473 105.8410102
  85.6630155 109.4650024 105.0017734  86.2723296 108.2472157 105.6632945
  89.5299759 104.7971204 106.6660221  89.2736694 104.3967840 107.4968429
  88.9052627 105.5114998 106.5410361  93.8412097 107.5367278 109.1731513
  93.2811655 107.6060467 109.9463075  93.2355601 107.3608262 108.4531009
  76.9107306 118.9704005 110.9249699  76.7939690 119.9149437 110.8228389
  76.0899752 118.6677566 111.3135498  86.7983841 113.6954140 101.7706292
  87.6329445 113.2635339 101.5883767  86.6368184 113.5236154 102.6983186
  86.4529733 110.1986254 103.1362631  86.3978537 110.0330525 102.1951075
  85.8275788 110.9062287 103.2924821  71.2422248 105.4354318 116.9624053
  71.8881111 104.9253272 117.4511278  71.0339399 106.1723000 117.5367479
  83.7675640 112.5035166 122.4616194  84.6366800 112.6775818 122.1002829
  83.2882391 113.3229582 122.3391923  77.9361820 119.6232267 114.1405628
  78.8389067 119.6555877 114.4572122  77.7099190 118.6932718 114.1551963
  79.6915422 118.3763253 110.8015706  78.7411053 118.3765115 110.6880078
  79.9947908 117.6295988 110.2851741  83.5777978  96.2937139 106.9693886
  82.8110374  95.7395626 107.1150569  83.9888683  96.3659008 107.8308038
  75.5819739 102.5821935 121.0599068  76.4451200 102.2258740 121.2702392
  75.0085149 102.2435830 121.7474472  95.4268116 124.2123792 111.8661469
  96.0646526 124.0930539 111.1624809  95.3088959 125.1604636 111.9249421
  92.2357822 124.1651220 111.8022993  91.8976334 124.0492284 110.9143528
  93.1047590 123.7642385 111.7823999  88.0944638 126.0186696 107.7919884
  87.5309503 125.9276633 107.0236172  87.9797033 125.1986601 108.2722377
  85.6409070 127.5137888 110.6304105  86.4330362 127.1728712 110.2150404
  85.8805720 127.6232863 111.5506258  93.6744196 129.6857664 103.1034349
  93.0232176 130.2711744 102.7168363  94.4688559 130.2163859 103.1629387
  87.5999824 126.7746801 103.5021483  88.3730700 126.2275788 103.3634359
  87.9525222 127.6391050 103.7135945  90.3641073 125.4800032 113.2989742
  90.9604645 125.2556054 112.5846705  90.4216045 124.7384777 113.9015190
  89.9366101 122.9339467 101.1339933  90.1891622 122.4120988 100.3723396
  88.9990660 122.7705613 101.2366617  94.9809384 121.9375245 108.9414677
  95.7672473 121.5194669 108.5905094  95.2448089 122.8421338 109.1096325
  95.1519462 127.3748096 103.6403333  94.5165295 127.4482722 104.3524238
  94.8216868 127.9641695 102.9622413 100.3817811 121.8750479 109.8447655
 101.1142983 121.3049695 110.0785485  99.6257167 121.4872079 110.2854161
  89.6562390 124.8367573 103.3364308  89.5398648 124.1612476 104.0045393
  89.7664650 124.3499947 102.5196461  91.9993931 124.2977720 107.0410998
  91.6352138 123.7708341 107.7523919  92.8561047 123.9076189 106.8677483
  97.9043232 115.5872053 114.3042264  97.5726556 116.4567464 114.0803479
  97.3088845 115.2708337 114.9836294  91.6399418 119.3267620 102.0372346
  91.8073820 120.1947856 102.4042817  91.4496587 119.4894902 101.1133635
  87.8487233 124.2398396 109.7374881  86.9237729 124.1074610 109.9452573
  88.0971646 125.0192615 110.2344823  97.7971895 120.3067139 111.3835614
  96.8888772 120.2382547 111.0894375  97.7459491 120.7839084 112.2117439
  91.6188639 121.7825277 103.0219013  91.4988264 122.2282328 103.8604493
  90.9241227 122.1310595 102.4632551  85.2096044 123.8831669 110.5718670
  85.3388425 124.1366148 111.4858082  84.5293495 124.4759377 110.2523325
  89.3795531 134.5528919 106.6709144  89.3019561 135.5036744 106.7497625
  88.7757175 134.2074792 107.3284070  99.6633541 118.5083577 113.1613488
  99.0207922 118.8016110 112.5153282  99.1588470 118.3936498 113.9666684
  97.3173705 122.2546751 103.8499347  98.2291561 122.4874137 103.6747044
  96.8083352 122.8383795 103.2874426  91.9545543 121.6143985 114.8594196
  92.8006738 122.0383399 115.0028845  91.8944180 120.9577609 115.5532760
  95.9243287 127.2372569 111.2412928  95.2952150 127.4018283 110.5388996
  95.5368949 127.6514179 112.0123892  99.8032519 128.1727007 108.5957292
  99.1183557 128.5525908 108.0454325  99.8876369 128.7822333 109.3289240
  95.1044988 119.2748353 116.5175370  94.8605920 120.0290414 115.9809646
  95.3804919 119.6533701 117.3522617  94.6609680 118.4304786 112.0989208
  93.7994159 118.7286040 112.3905945  94.6872114 118.6475185 111.1670240
  91.4771249 126.9746977 108.5063013  91.9409595 127.2534680 107.7167636
  91.2128047 126.0730422 108.3236104  88.3695330 126.5218459 111.4442777
  88.9396687 126.9505727 110.8060261  88.9603442 126.2401043 112.1426962
  90.4140135 123.0970129 105.3152579  91.1164179 123.5491173 105.7826505
  90.0820764 122.4553948 105.9432472  84.1565469 121.3553682 110.6169712
  83.3664523 121.6111211 110.1409823  84.6476717 122.1702020 110.7221753
  86.1080215 121.7198261 107.5753189  85.3111378 121.8316956 108.0936685
  85.8805807 122.0584914 106.7094079  82.4403172 121.6084173 113.0484703
  82.6911211 122.4931182 113.3142279  82.9762721 121.4288774 112.2759795
 106.2635272 125.0397670 109.7159964 105.5098980 124.4705068 109.5603969
 106.3982813 125.0060334 110.6630599  91.6533900 129.9111072 105.3914684
  91.5179575 130.7562608 105.8199532  92.1943712 130.1130350 104.6280618
  88.1401240 115.9902652 122.0529039  87.7468185 115.4368850 122.7276683
  88.9567380 116.3013230 122.4435557  85.1063297 127.4286510 105.9642609
  85.6187818 128.2229760 106.1148174  85.7586010 126.7312801 105.8976210
  86.9158182 130.5452266 108.0465362  87.0924810 131.4670231 107.8586346
  87.7115016 130.2310686 108.4759742  91.0569201 117.4060531 119.6449296
  91.7978914 118.0067684 119.5653758  91.2887123 116.6638169 119.0867338
  86.2010539 122.5916898 117.9227525  86.0864054 121.6902155 118.2234624
  85.3455056 122.8380595 117.5712342  88.0389497 132.0630440 114.0475704
  88.5896923 131.9347504 113.2752698  87.2000973 132.3625329 113.6970597
  95.0026363 113.4341634 113.9213577  94.6590633 114.3243276 113.8452688
  95.3705326 113.2443292 113.0583162  83.0712214 125.7575164 106.7402179
  83.9087436 126.1672173 106.5235887  83.2490482 124.8174607 106.7102373
  94.9676646 123.4250245 102.4286012  94.4523270 124.1954850 102.6674400
  94.6953955 122.7515381 103.0519074  92.5523757 118.2699946 107.4871251
  91.6965354 117.8806796 107.3076890  92.9650709 118.3491907 106.6271036
  94.0822904 115.8046289 111.8862811  93.5787699 115.7676424 111.0730616
  94.3753511 116.7139032 111.9459467  90.3265790 115.8885019 110.8928992
  91.1918787 115.6927827 110.5334882  90.3943299 115.6595371 111.8198349
  99.9410920 126.1782600 104.3639186  99.1640363 125.8393759 103.9194348
 100.6202401 126.1835223 103.6894151  94.7562949 121.2977337 104.2545794
  94.4513085 121.6123486 105.1055937  95.7093392 121.3758757 104.2973127
  93.2009381 127.4567560 105.9038748  92.6730743 126.7220320 105.5911985
  92.6996884 128.2342237 105.6578716  98.1802227 125.6516581 111.0205794
  97.5225902 126.3415842 111.1085923  98.9842626 126.0413013 111.3639780
  87.9328109 118.1187227 108.2645359  88.5071861 117.8962408 107.5318552
  88.5199091 118.1875921 109.0173960  96.9907686 124.0060954 109.0709736
  97.5039568 124.6390945 109.5731445  97.6408910 123.4062149 108.7053096
  88.2597696 120.1491688 102.2841244  87.4235008 120.4866374 102.6050519
  88.1202466 120.0140668 101.3468381  90.2350777 114.9928476 106.9920429
  89.5815189 114.6777493 106.3677043  90.1931251 114.3704216 107.7180251
  91.3461981 125.2747771  98.9073721  90.4389043 125.0437024  99.1064870
  91.8433013 124.4785390  99.0947702  94.2530060 133.9845278 101.8270407
  93.5791759 134.2876975 102.4355365  94.6395882 134.7874358 101.4775864
  93.4688517 121.4810409 111.3168076  92.5511078 121.7025356 111.1589764
  93.8848661 121.5556720 110.4579783  94.2523565 122.8801825 106.4470756
  94.9995384 123.3923222 106.1377878  94.5215154 122.5585878 107.3075150
  92.5250215 125.3760366 103.4297711  91.6161434 125.0919398 103.5270180
  92.5545299 125.7959444 102.5701018  97.7569482 128.9866955 107.1988878
  97.3031809 128.1457865 107.2554069  97.1263449 129.6228353 107.5363658
  96.7002402 119.9158941 108.4289546  95.9625159 119.4036327 108.7599788
  96.9529175 119.4759323 107.6172823  96.2002422 130.8243452 108.1338696
  96.4925396 131.3848509 107.4151062  96.7101042 131.1172013 108.8891856
  96.8014029 112.6935193 109.0231315  97.1072906 111.8332557 108.7357230
  97.5266634 113.2852813 108.8230309  83.0938385 123.0965880 107.4112913
  82.8962785 122.5035240 106.6863979  82.5385049 122.7918090 108.1288852
  91.0735109 122.9888986 109.5307506  91.1283719 122.0362823 109.4549983
  90.2626311 123.1448425 110.0148804  92.2226303 126.9169109 100.7685789
  91.7845733 126.2004968 100.3091427  92.9636744 127.1445224 100.2070881
  89.0127469 121.6066046 107.2897885  88.1995334 121.9060216 107.6963077
  89.5086463 121.2121735 108.0072367  91.1636047 131.6023803 109.2232150
  91.1212225 131.8284649 108.2940682  92.0798746 131.3687177 109.3717951
  94.6101680 122.0707870 116.1212779  94.9651068 122.2979344 116.9807245
  95.2573812 122.4026247 115.4990034 100.3399417 125.1926306 106.8262108
 100.2017316 125.3827902 105.8983297  99.9835636 125.9545689 107.2830159
  88.5041544 119.1784401 112.9059120  89.1440923 119.0373161 112.2082083
  87.6719074 118.8918915 112.5297722  89.2801847 128.4786832 109.0194112
  90.0742446 127.9837152 108.8176687  88.5693540 127.9504695 108.6561818
  85.5884611 122.6229914 105.0953865  84.6582199 122.5614369 105.3123827
  85.6842083 122.1005866 104.2990506  85.5070160 119.1484726 107.6832107
  85.7676977 120.0630060 107.5741267  86.3287332 118.6809169 107.8328719
  86.9795085 120.5622484 114.8530931  87.6518139 120.3539846 114.2043580
  86.1524872 120.3644570 114.4136164  92.8820657 117.1884425 116.8696592
  92.2348572 117.8874374 116.7761068  93.6521673 117.6220568 117.2372840
  93.0584792 125.0265189 114.9293412  93.9876852 125.1776349 114.7562379
  92.6375822 125.1149210 114.0742058  91.8573123 129.0515854 112.6991949
  91.7184209 128.6834638 113.5717888  91.0687720 129.5663493 112.5275907
  92.4521275 134.1524950 104.0417486  92.6273031 133.6812994 104.8563109
  91.7654063 134.7790717 104.2698747  93.4078339 128.4297457 110.0880787
  93.0728171 128.3898227 110.9838437  92.9082284 127.7642172 109.6151197
  87.3822583 123.8365087 115.6133368  87.2442381 123.1045325 116.2144907
  88.2927506 123.7473987 115.3317556  96.3437530 125.7753491 100.3617847
  95.7266701 125.0500319 100.2650900  95.8754019 126.5362851 100.0184921
  90.0104883 123.5485046 115.1017048  90.7204502 122.9078238 115.0603666
  89.9674191 123.7997941 116.0243229  88.7233817 120.5350264 116.9212687
  88.1871174 120.0841002 117.5734284  88.1350526 120.6696173 116.1783152
  88.1336076 119.9938915  99.4839151  87.2565542 119.8727716  99.1201398
  88.6093829 119.2024993  99.2318040  79.6538216 124.7816075 109.5780658
  80.3409256 124.4677805 108.9901674  79.4986345 125.6857440 109.3047910
  84.4572938 119.6706271 114.0065682  84.3731127 119.0631941 113.2716092
  83.6355645 120.1615290 114.0075178  91.3200002 132.3465206 106.7301672
  90.5367524 132.8886886 106.8239896  92.0192747 132.8639185 107.1295913
  94.6296652 118.1559835 109.3735877  95.1265352 117.4029797 109.0536947
  93.8583634 118.1924152 108.8079086 102.4826410 123.8600201 111.0154169
 102.4716286 124.7424916 110.6448102 101.6143789 123.5071751 110.8208706
  95.7126433 126.9131522 106.9474300  94.7782712 127.0332985 106.7779005
  95.8903101 126.0103989 106.6834310  91.2131621 120.2977218 109.1007562
  90.8429409 119.7448258 109.7888467  91.7090714 119.6935351 108.5482562
  99.0998984 122.7548842 107.4824335  99.5659437 123.5876833 107.4084637
  99.5506485 122.2893823 108.1869593  97.1675215 129.0992663 104.4810487
  97.4435059 128.9849257 105.3904361  96.2979714 128.7010148 104.4422660
  97.0715647 115.1229429 111.5215236  96.1578727 115.3533655 111.6897443
  97.5008749 115.2067873 112.3729268  96.8422106 123.3119320 114.0215130
  96.1893556 123.5595228 113.3667583  97.2202486 122.4983459 113.6877607
  93.8029279 133.3479014 108.1243300  93.9851674 132.5300670 108.5871053
  94.6262266 133.5646706 107.6868190  94.1371445 132.2747199 105.3858349
  94.6659211 131.7639653 104.7728511  94.3999665 131.9589729 106.2503882
  84.6388538 130.2911068 113.1293682  85.2241975 129.5454756 113.2621586
  84.4413376 130.6015025 114.0130346  87.4927193 133.3262315 108.1456125
  86.8237568 133.8108443 107.6620165  87.3540063 133.5731536 109.0599503
  79.2306192 122.8616668 111.8498125  79.2690292 122.3280259 112.6435244
  78.7246485 122.3351874 111.2309103  86.6096955 117.7081209 115.3460668
  86.6738281 118.5696040 114.9338065  86.5464075 117.0955210 114.6133026
  86.0849227 119.7804341 118.9933702  86.7121266 119.3981419 119.6071226
  85.2277146 119.5618543 119.3589394  82.8614770 121.5880770 104.9252057
  83.1568211 120.6791449 104.8719111  81.9602806 121.5668510 104.6033059
  86.3909017 119.6636767 110.9079605  85.6695603 120.2772735 110.7687079
  87.1802273 120.1994532 110.8296251  89.1935331 116.9991194 117.1820257
  89.7169732 117.2453490 117.9446566  88.9747664 117.8311228 116.7623394
  84.5902612 119.2694868 105.0491382  84.2615318 118.3892247 104.8666488
  84.9441982 119.2142537 105.9367771  93.8382190 130.9049771 109.5586367
  93.6907153 129.9766478 109.7393938  94.6635684 130.9269862 109.0743443
  87.7044435 119.5567838 105.4166860  88.0440507 120.0853759 104.6945468
  88.1516555 119.8948244 106.1925426  90.3987876 117.9404889 114.8669928
  90.0584696 117.1412702 115.2690608  89.6926882 118.2406599 114.2946761
  91.0504347 115.0254201 113.3197251  91.8730417 114.5514679 113.1976141
  91.2942411 115.8044685 113.8195937  89.6912582 118.0542459 103.6160152
  90.4120944 118.4323712 103.1123869  89.0677886 118.7731336 103.7195130
  93.8343705 118.7587608 104.5518485  94.0507319 119.6412246 104.2507313
  93.3537772 118.3673822 103.8224127  88.5742926 121.7173322 111.1289229
  88.4287507 122.0313625 112.0213511  88.0968130 122.3358222 110.5760128
  90.4339309 118.7075870 111.1770119  90.4200878 117.8116963 110.8402417
  91.1511737 118.7146533 111.8108405  92.2865440 119.1413210 113.2223246
  92.0283218 120.0630281 113.2207577  91.7550480 118.7443644 113.9123710
  97.2311629 132.2463997 106.0013332  97.4048506 131.6810419 105.2487184
  97.7240520 133.0464892 105.8192822  83.0488588 124.2578666 114.0676891
  82.5042056 125.0338474 114.1997165  83.9267938 124.6049471 113.9096012
  89.8376205 117.5890250 106.4457689  89.9592116 116.6606896 106.6448577
  89.5478247 117.6028936 105.5336004  92.7067395 115.2745160 109.5824409
  92.7289092 115.3384493 108.6276388  93.1235454 114.4349669 109.7764915
 103.0851020 125.0100420 107.6203631 103.5282166 124.2607745 107.2222755
 102.2077530 125.0010556 107.2377363  98.2186801 131.5630761 103.1010230
  98.9137706 132.1837454 103.3197545  98.5609951 130.7126113 103.3762608
  83.8354610 123.3848562 116.9607047  83.0936346 123.5331198 117.5471678
  83.5147354 123.6456828 116.0973797 100.1178224 129.0130467 104.6297561
 100.6429548 129.3517740 103.9046881 100.0300577 128.0777482 104.4460695
  91.8018885 135.0802450 108.9892814  91.3623875 134.5878829 109.6825671
  92.5527002 134.5375418 108.7484889  84.2811224 131.2713991 108.9917442
  85.1069244 130.9717763 108.6116086  83.9305276 130.5021614 109.4407231
  89.2492757 130.6240459 111.0615116  88.6272766 129.9611164 110.7617343
  89.9197624 130.6501591 110.3788763  82.4819829 129.1900318 109.9506376
  81.6451737 128.7622492 109.7690377  82.4543474 129.3832761 110.8877167
  89.3217285 119.1022247 120.6547622  89.3705440 119.9784370 120.2725391
  89.8639799 118.5599640 120.0819265  88.8106264 129.1744383 104.5373576
  88.9594384 129.8579847 103.8840249  89.6172707 129.1549473 105.0523032
  91.5516573 119.8553620 117.4093980  90.6819882 120.1487186 117.1376569
  91.7876053 120.4394065 118.1301244 102.6283884 126.4805658 110.0126079
 103.4630776 126.9195462 110.1763639 102.7643013 126.0044311 109.1934325
  86.5658897 125.2009560 105.5434645  86.3204939 124.2971890 105.7414855
  86.7354811 125.2026711 104.6014123  94.2555607 116.0733237 114.9259401
  94.7737551 116.8094264 114.6005889  93.9010740 116.3797230 115.7606160
  85.8354544 120.9337918 103.0420807  85.1423789 121.0082273 102.3860842
  85.5906296 120.1698261 103.5642323  94.5068201 112.4933519 110.4460297
  94.7869955 111.8256708 111.0720724  95.2918808 112.6862615 109.9334961
  92.3101669 131.6692513 102.0085324  91.7375637 132.2882700 101.5555795
  92.8834463 132.2191875 102.5425246  98.3777059 120.9151153 114.1931872
  99.3294482 121.0149251 114.2144096  98.2080510 120.1229422 114.7029957
  96.3991439 118.0006736 114.3791273  95.8041371 118.2811749 113.6837762
  96.1141135 118.4900637 115.1508014  95.5298929 131.9529663 103.1393906
  96.4629602 131.8875225 103.3426781  95.4422142 132.7885930 102.6808439
  98.1586946 131.2695534 100.0997853  98.0800577 130.9355397 100.9933611
  98.9796613 131.7617301 100.0989326 100.8565137 124.1357273 113.3074172
 100.8241457 123.1973274 113.4933856 101.4665761 124.2141310 112.5739997
  92.6948468 123.0053326  99.3501376  93.6407573 122.8759534  99.4189794
  92.3162713 122.2667988  99.8270804 101.0059626 120.9268316 113.3532455
 100.4898674 120.1426773 113.1662384 101.8899574 120.5987033 113.5178975
  98.6670353 114.6709332 109.3128268  98.4695174 114.3624420 110.1971600
  99.2770058 115.3970971 109.4426198  90.8791385 120.9303302  99.2856261
  89.9722841 120.6336415  99.3618975  91.1567366 120.6333120  98.4190548
  81.7969325 122.2509666 109.7355308  81.4772110 121.3974974 109.4429682
  81.2502754 122.4658244 110.4913275  85.5749233 124.9672107 113.4524814
  85.7935243 125.8989214 113.4712848  85.9875007 124.6080081 114.2379618
  92.4953451 115.4740192 105.4400503  91.6854179 115.1287277 105.8155749
  93.1837868 115.1647736 106.0288114  94.4243999 114.5518239 107.0624799
  94.9775038 114.9713692 107.7214822  94.6614085 113.6253987 107.1047755
  89.6490170 117.7890237  99.4268240  90.5109334 118.1145136  99.6864058
  89.8340514 117.0021733  98.9141306  81.6657585 125.8712577 111.7048429
  80.9721057 125.4566530 111.1918384  82.4130577 125.9133114 111.1081848
  97.8022806 116.6618764 106.5703463  97.2221475 117.3203568 106.1881516
  97.5358739 115.8396108 106.1590881  96.2526373 116.0623822 108.7724784
  96.7526151 116.1740356 107.9639103  96.8961981 115.7584874 109.4125592
  83.5794328 125.8030831 109.5814444  83.5565016 125.9018518 108.6296327
  83.8894965 126.6495982 109.9031610  86.2381706 127.8606986 113.6961059
  87.1924959 127.8290928 113.6290990  86.0394229 127.3997610 114.5111284
  86.8281088 126.4308102 116.2631856  87.6473977 126.9252181 116.2866694
  87.1017896 125.5140070 116.2349424  96.5847684 118.8218854 105.6259812
  95.6973539 119.1068505 105.4080007  97.0001673 118.6612618 104.7787089
  99.9362220 118.8465375 109.3414151 100.7122610 119.3361828 109.6138768
  99.2110355 119.2723429 109.7986020 102.3734779 119.5592994 110.3988092
 102.9679270 119.3188730 109.6881400 102.4461363 118.8400125 111.0261628
  84.5931935 133.4026605 110.7131256  84.4586403 132.6427006 110.1469254
  84.1763997 134.1267505 110.2460045  95.7290898 128.5863529  99.7207832
  96.4326748 128.7913531 100.3365487  95.0053546 129.1540291  99.9856915
  96.5588708 124.3373390 105.8410102  96.5023909 124.7941942 105.0017734
  97.1117050 123.5764075 105.6632945 100.3693514 120.1263122 106.6660221
 100.1130448 119.7259758 107.4968429  99.7446382 120.8406916 106.5410361
 104.6805852 122.8659195 109.1731513 104.1205410 122.9352385 109.9463075
 104.0749355 122.6900180 108.4531009  87.7501061 134.2995922 110.9249699
  87.6333445 135.2441355 110.8228389  86.9293507 133.9969484 111.3135498
  97.6377595 129.0246058 101.7706292  98.4723199 128.5927257 101.5883767
  97.4761938 128.8528072 102.6983186  97.2923487 125.5278171 103.1362631
  97.2372291 125.3622443 102.1951075  96.6669543 126.2354204 103.2924821
  82.0816002 120.7646236 116.9624053  82.7274866 120.2545190 117.4511278
  81.8733153 121.5014917 117.5367479  90.6019613 115.0286280 102.7147949
  90.5898283 115.9728120 102.8716220  91.4943035 114.8456426 102.4207411
  90.5309177 133.7055171 110.8015706  89.5804808 133.7057032 110.6880078
  90.8341663 132.9587905 110.2851741  94.4171732 111.6229057 106.9693886
  93.6504128 111.0687544 107.1150569  94.8282437 111.6950926 107.8308038
  86.4213493 117.9113853 121.0599068  87.2844955 117.5550658 121.2702392
  85.8478904 117.5727748 121.7474472 100.7759856 138.2631385 101.1339933
 101.0285377 137.7412906 100.3723396  99.8384415 138.0997530 101.2366617
 100.4956145 140.1659491 103.3364308 100.3792403 139.4904394 104.0045393
 100.6058405 139.6791865 102.5196461 102.4793173 134.6559538 102.0372346
 102.6467575 135.5239774 102.4042817 102.2890342 134.8186819 101.1133635
 102.4582393 137.1117195 103.0219013 102.3382019 137.5574246 103.8604493
 101.7634982 137.4602513 102.4632551  96.9473969 137.0490179 107.5753189
  96.1505132 137.1608873 108.0936685  96.7199561 137.3876831 106.7094079
 105.8070401 138.7542163 102.4286012 105.2917024 139.5246767 102.6674400
 105.5347709 138.0807299 103.0519074  99.0991450 135.4783605 102.2841244
  98.2628763 135.8158292 102.6050519  98.9596220 135.3432585 101.3468381
 101.0744531 130.3220393 106.9920429 100.4208943 130.0069410 106.3677043
 101.0325005 129.6996134 107.7180251 102.1855736 140.6039688  98.9073721
 101.2782798 140.3728942  99.1064870 102.6826768 139.8077308  99.0947702
  93.9332140 138.4257797 107.4112913  93.7356540 137.8327158 106.6863979
  93.3778804 138.1210008 108.1288852 103.0620057 142.2461027 100.7685789
 102.6239487 141.5296886 100.3091427 103.8030498 142.4737142 100.2070881
  96.4278365 137.9521831 105.0953865  95.4975954 137.8906287 105.3123827
  96.5235837 137.4297784 104.2990506  96.3463914 134.4776644 107.6832107
  96.6070732 135.3921977 107.5741267  97.1681087 134.0101087 107.8328719
 107.1831285 141.1045409 100.3617847 106.5660455 140.3792237 100.2650900
 106.7147773 141.8654769 100.0184921  98.9729831 135.3230833  99.4839151
  98.0959297 135.2019634  99.1201398  99.4487584 134.5316911  99.2318040
  93.7008525 136.9172688 104.9252057  93.9961966 136.0083367 104.8719111
  92.7996560 136.8960428 104.6033059  95.4296366 134.5986786 105.0491382
  95.1009072 133.7184165 104.8666488  95.7835737 134.5434454 105.9367771
  98.5438189 134.8859756 105.4166860  98.8834262 135.4145677 104.6945468
  98.9910310 135.2240162 106.1925426 100.5306336 133.3834377 103.6160152
 101.2514699 133.7615630 103.1123869  99.9071641 134.1023254 103.7195130
 104.6737459 134.0879526 104.5518485 104.8901074 134.9704164 104.2507313
 104.1931526 133.6965740 103.8224127 100.6769959 132.9182168 106.4457689
 100.7985871 131.9898814 106.6448577 100.3872002 132.9320854 105.5336004
  97.4052651 140.5301478 105.5434645  97.1598693 139.6263808 105.7414855
  97.5748566 140.5318628 104.6014123  96.6748299 136.2629836 103.0420807
  95.9817544 136.3374191 102.3860842  96.4300051 135.4990179 103.5642323
 103.5342222 138.3345244  99.3501376 104.4801327 138.2051452  99.4189794
 103.1556467 137.5959905  99.8270804 101.7185140 136.2595220  99.2856261
 100.8116595 135.9628333  99.3618975 101.9961121 135.9625038  98.4190548
 103.3347205 130.8032110 105.4400503 102.5247934 130.4579195 105.8155749
 104.0231622 130.4939653 106.0288114 105.2637754 129.8810156 107.0624799
 105.8168792 130.3005610 107.7214822 105.5007840 128.9545905 107.1047755
 100.4883924 133.1182155  99.4268240 101.3503088 133.4437053  99.6864058
 100.6734268 132.3313651  98.9141306 101.4413367 130.3578198 102.7147949
 101.4292037 131.3020038 102.8716220 102.3336789 130.1748344 102.4207411
 105.2565487 126.9520975 106.9693886 104.4897883 126.3979461 107.1150569
 105.6676192 127.0242844 107.8308038  30.3905590   9.2434408  98.5906775
  31.0284000   9.1241155  97.8870115  30.2726433  10.1915252  98.6494727
  27.1995296   9.1961836  98.5268300  26.8613808   9.0802901  97.6388835
  28.0685064   8.7953001  98.5069306  23.0582112  11.0497313  94.5165191
  22.4946977  10.9587250  93.7481479  22.9434507  10.2297217  94.9967683
  20.6046544  12.5448504  97.3549411  21.3967836  12.2039329  96.9395711
  20.8443194  12.6543479  98.2751565  28.6381671  14.7168280  89.8279656
  27.9869650  15.3022361  89.4413670  29.4326034  15.2474475  89.8874693
  22.5637298  11.8057418  90.2266790  23.3368174  11.2586405  90.0879666
  22.9162697  12.6701667  90.4381251  24.4022340  13.1333800 103.4333689
  24.1112206  14.0379431 103.3180356  25.0379325  13.1750327 104.1477759
  25.3278547  10.5110648 100.0235049  25.9242120  10.2866671  99.3092012
  25.3853519   9.7695394 100.6260497  24.9003576   7.9650084  87.8585240
  25.1529096   7.4431605  87.0968703  23.9628135   7.8016229  87.9611924
  29.9446859   6.9685862  95.6659983  30.7309948   6.5505285  95.3150400
  30.2085563   7.8731954  95.8341632  30.1156936  12.4058712  90.3648640
  29.4802769  12.4793339  91.0769545  29.7854342  12.9952311  89.6867719
  35.3455286   6.9061095  96.5692962  36.0780458   6.3360312  96.8030791
  34.5894641   6.5182696  97.0099467  24.6199864   9.8678190  90.0609615
  24.5036123   9.1923093  90.7290699  24.7302124   9.3810564  89.2441768
  26.9631405   9.3288337  93.7656304  26.5989613   8.8018958  94.4769226
  27.8198521   8.9386806  93.5922790  26.6036892   4.3578236  88.7617653
  26.7711295   5.2258473  89.1288124  26.4134061   4.5205518  87.8378942
  29.3612226  12.8195215 100.4283483  29.0612949  13.7220254 100.3199290
  29.0163285  12.5527398 101.2804636  22.8124707   9.2709012  96.4620187
  21.8875203   9.1385226  96.6697879  23.0609120  10.0503231  96.9590130
  32.7609369   5.3377755  98.1080920  31.8526247   5.2693164  97.8139681
  32.7096965   5.8149700  98.9362746  26.5826113   6.8135894  89.7464320
  26.4625738   7.2592945  90.5849800  25.8878702   7.1621212  89.1877858
  20.1733518   8.9142286  97.2963977  20.3025899   9.1676765  98.2103388
  19.4930969   9.5069994  96.9768632  24.3433005  19.5839536  93.3954451
  24.2657035  20.5347361  93.4742931  23.7394649  19.2385408  94.0529377
  34.6271016   3.5394194  99.8858794  33.9845396   3.8326727  99.2398589
  34.1225944   3.4247114 100.6911991  32.2811179   7.2857367  90.5744654
  33.1929035   7.5184754  90.3992351  31.7720826   7.8694411  90.0119732
  30.5651947  11.7081995 104.2105946  30.9735303  11.2664405 103.4660578
  29.8429209  11.1334622 104.4640139  30.8880762  12.2683186  97.9658235
  30.2589624  12.4328900  97.2634303  30.5006424  12.6824795  98.7369199
  34.7669994  13.2037623  95.3202599  34.0821032  13.5836525  94.7699632
  34.8513843  13.8132950  96.0534547  32.0220925  10.8497582 101.9197942
  32.2337820  11.4929342 101.2432323  31.9750673  10.0159899 101.4519872
  29.6247154   3.4615403  98.8234514  28.7631633   3.7596657  99.1151252
  29.6509589   3.6785802  97.8915547  26.4408724  12.0057594  95.2308320
  26.9047069  12.2845297  94.4412943  26.1765522  11.1041038  95.0481411
  23.3332805  11.5529075  98.1688083  23.9034162  11.9816344  97.5305568
  23.9240916  11.2711660  98.8672269  25.3777610   8.1280746  92.0397885
  26.0801653   8.5801790  92.5071812  25.0458238   7.4864565  92.6677778
  33.1366753  13.7269538 100.0920300  33.9584197  13.3249725  99.8102981
  33.1329156  13.6237772 101.0436415  26.9023357  13.2753581 102.2481010
  26.9667789  13.7373988 103.0839182  26.1934280  12.6450946 102.3763320
  41.2272746  10.0708286  96.4405271  40.4736455   9.5015684  96.2849276
  41.3620287  10.0370951  97.3875906  26.6171374  14.9421689  92.1159990
  26.4817049  15.7873224  92.5444838  27.1581187  15.1440966  91.3525924
  20.0700772  12.4597127  92.6887916  20.5825292  13.2540377  92.8393480
  20.7223484  11.7623417  92.6221517  21.8795656  15.5762883  94.7710669
  22.0562285  16.4980848  94.5831653  22.6752490  15.2621302  95.2005049
  28.2439851  15.5645255 106.2460333  27.8003705  14.7781634 105.9281237
  28.9057064  15.7524406 105.5804223  23.0026972  17.0941057 100.7721011
  23.5534397  16.9658120  99.9998005  22.1638448  17.3935946 100.4215904
  30.3421089  15.8448055 104.2741734  30.3239564  16.6656936 103.7822003
  31.2641009  15.7202130 104.4991875  18.0349688  10.7885781  93.4647486
  18.8724910  11.1982789  93.2481194  18.2127956   9.8485223  93.4347680
  29.9314121   8.4560862  89.1531319  29.4160744   9.2265466  89.3919706
  29.6591429   7.7825998  89.7764381  27.5161232   3.3010562  94.2116557
  26.6602828   2.9117413  94.0322196  27.9288183   3.3802523  93.3516343
  34.9048395  11.2093216  91.0884493  34.1277837  10.8704376  90.6439655
  35.5839876  11.2145839  90.4139458  29.7200424   6.3287954  90.9791100
  29.4150559   6.6434103  91.8301243  30.6730866   6.4069374  91.0218433
  28.1646856  12.4878177  92.6284054  27.6368217  11.7530937  92.3157292
  27.6634358  13.2652853  92.3824023  33.1439702  10.6827197  97.7451101
  32.4863376  11.3726459  97.8331229  33.9480101  11.0723629  98.0885087
  31.9545160   9.0371570  95.7955042  32.4677042   9.6701562  96.2976752
  32.6046384   8.4372766  95.4298402  23.2235170   5.1802304  89.0086551
  22.3872483   5.5176991  89.3295826  23.0839940   5.0451284  88.0713688
  26.3099456  10.3058387  85.6319027  25.4026517  10.0747641  85.8310176
  26.8070488   9.5096007  85.8193009  29.2167535  19.0155894  88.5515713
  28.5429233  19.3187591  89.1600671  29.6033357  19.8184975  88.2021170
  28.4325991   6.5121026  98.0413383  27.5148553   6.7335973  97.8835071
  28.8486135   6.5867336  97.1825090  29.2161039   7.9112441  93.1716063
  29.9632858   8.4233839  92.8623185  29.4852629   7.5896494  94.0320457
  27.4887689  10.4070982  90.1543017  26.5798908  10.1230015  90.2515487
  27.5182773  10.8270061  89.2946324  32.7206957  14.0177572  93.9234185
  32.2669284  13.1768481  93.9799375  32.0900923  14.6538970  94.2608965
  31.6639876   4.9469558  95.1534852  30.9262633   4.4346944  95.4845095
  31.9166650   4.5069939  94.3418129  31.1639896  15.8554068  94.8584003
  31.4562870  16.4159125  94.1396369  31.6738516  16.1482629  95.6137162
  26.0372583   8.0199603  96.2552813  26.0921193   7.0673439  96.1795289
  25.2263785   8.1759042  96.7394111  27.1863777  11.9479726  87.4931096
  26.7483207  11.2315585  87.0336733  27.9274218  12.1755841  86.9316187
  23.9764943   6.6376662  94.0143192  23.1632809   6.9370833  94.4208384
  24.4723937   6.2432351  94.7317674  26.1273521  16.6334419  95.9477456
  26.0849700  16.8595266  95.0185988  27.0436220  16.3997794  96.0963257
  35.3036892  10.2236923  93.5507414  35.1654790  10.4138519  92.6228604
  34.9473111  10.9856306  94.0075466  35.3306271  12.2913450  98.5618686
  35.7642778  12.1988739  99.4101740  36.0437852  12.2670950  97.9238702
  24.2439322  13.5097448  95.7439419  25.0379920  13.0147769  95.5421994
  23.5331014  12.9815312  95.3807125  29.0634166  15.8915544 100.0951787
  29.1171189  16.4606480 100.8629502  28.1948948  16.0617429  99.7305824
  20.5522085   7.6540530  91.8199172  19.6219673   7.5924986  92.0369134
  20.6479557   7.1316483  91.0235813  36.1921821  12.3337150 101.0951571
  36.3857711  13.2382961 101.3410846  36.0922439  11.8744570 101.9290156
  31.2536930  12.4843893 106.6692452  31.1022436  12.2554445 105.7522536
  31.2441609  13.4414495 106.6823797  28.0222266  10.0575806 101.6538718
  28.9514326  10.2086966 101.4807686  27.6013296  10.1459827 100.7987365
  26.8210598  14.0826470  99.4237256  26.6821683  13.7145255 100.2963194
  26.0325194  14.5974110  99.2521214  27.4158750  19.1835567  90.7662793
  27.5910505  18.7123610  91.5808415  26.7291538  19.8101333  90.9944053
  28.3715813  13.4608073  96.8126094  28.0365646  13.4208843  97.7083744
  27.8719759  12.7952789  96.3396504  31.3075005  10.8064107  87.0863154
  30.6904175  10.0810936  86.9896206  30.8391493  11.5673468  86.7430228
  32.9629136  15.5163016 104.7468934  32.9041682  14.8322236 104.0799517
  33.3648655  16.2582006 104.2949560  21.9819835  22.3324930  97.5402653
  22.2216433  22.9643454  98.2181671  21.1389032  21.9812970  97.8268012
  32.9646544  13.4802600 102.9782914  32.0773322  13.1428522 103.1009312
  33.5345095  12.7485631 103.2151679  26.4947697  18.1404052  99.9444157
  26.4217868  18.9459024 100.4563461  26.0525090  18.3396018  99.1192178
  26.2837477  17.3775822  93.4546978  25.5004998  17.9197502  93.5485203
  26.9830222  17.8949802  93.8541219  29.5934127   3.1870452  96.0981184
  30.0902826   2.4340414  95.7782254  28.8221108   3.2234768  95.5324393
  37.4463884   8.8910817  97.7399475  37.4353760   9.7735533  97.3693408
  36.5781263   8.5382368  97.5454012  28.9546380  18.0390886 102.1002315
  29.6674353  18.6738351 102.0278217  28.4636409  18.1354752 101.2842317
  30.6763907  11.9442139  93.6719607  29.7420186  12.0643601  93.5024311
  30.8540576  11.0414606  93.4079617  26.1769095   5.3287835  95.8252868
  25.8066883   4.7758875  96.5133774  26.6728188   4.7245968  95.2727868
  34.0636459   7.7859458  94.2069641  34.5296911   8.6187450  94.1329944
  34.5143959   7.3204440  94.9114900  24.0058294  15.7885330 102.9207886
  24.7067753  16.4221813 103.0737280  23.5353409  16.1300061 102.1603525
  32.1312690  14.1303279  91.2055793  32.4072534  14.0159874  92.1149667
  31.2617189  13.7320764  91.1667966  32.0353121   0.1540045  98.2460543
  31.1216201   0.3844272  98.4142749  32.4646223   0.2378489  99.0974575
  31.8059580   8.3429937 100.7460437  31.1531030   8.5905844 100.0912889
  32.1839960   7.5294075 100.4122914  28.7666754  18.3789630  94.8488607
  28.9489148  17.5611286  95.3116359  29.5899740  18.5957322  94.4113497
  29.1008919  17.3057815  92.1103655  29.6296686  16.7950270  91.4973817
  29.3637139  16.9900346  92.9749188  19.6026012  15.3221685  99.8538989
  20.1879449  14.5765373  99.9866893  19.4050850  15.6325641 100.7375653
  22.4564667  18.3572932  94.8701431  21.7875043  18.8419060  94.3865471
  22.3177537  18.6042152  95.7844810  26.5969936  20.3916676 101.4684090
  27.1488244  20.5548297 102.2333175  26.9376129  20.9821113 100.7964114
  31.4480810  15.2177933 107.3232744  31.9920714  15.8307891 106.8287699
  30.8667655  15.7757511 107.8399757  29.7338323  18.3398651  98.4547772
  29.6089463  17.5388391  97.9458717  30.3917414  18.8344844  97.9661742
  31.7973231  16.1407671 100.0827322  30.8503567  16.0213022 100.0105649
  32.1456005  15.2530169 100.1653583  28.8019665  15.9360387  96.2831674
  28.6544627  15.0077095  96.4639244  29.6273158  15.9580478  95.7988749
  32.4053787  16.7588946  97.3696547  33.3300334  16.5531807  97.2320998
  32.2369090  16.5105347  98.2785888  28.7981179   3.7898225  91.2763791
  29.0144793   4.6722863  90.9752620  28.3175246   3.3984438  90.5469433
  23.5380400   6.7483938  97.8534536  23.3924981   7.0624241  98.7458817
  23.0605604   7.3668839  97.3005435  32.1949103  17.2774614  92.7258638
  32.3685980  16.7121036  91.9732491  32.6877994  18.0775508  92.5438128
  38.0488494  10.0411036  94.3448938  38.4919640   9.2918362  93.9468061
  37.1715004  10.0321173  93.9622670  33.1824275  16.5941378  89.8255537
  33.8775180  17.2148071  90.0442851  33.5247425  15.7436729  90.1007914
  35.0815698  14.0441083  91.3542867  35.6067023  14.3828356  90.6292187
  34.9938051  13.1088099  91.1706002  26.7435747  17.9575157 103.4832744
  27.0522874  17.7124304 104.3555444  27.5411229  18.1621796 102.9951614
  26.7656359  20.1113067  95.7138121  26.3261349  19.6189445  96.4070977
  27.5164476  19.5686034  95.4730196  19.2448698  16.3024608  95.7162749
  20.0706718  16.0028379  95.3361392  18.8942750  15.5332230  96.1652537
  24.2130231  15.6551076  97.7860422  23.5910241  14.9921781  97.4862650
  24.8835098  15.6812208  97.1034070  17.4457303  14.2210934  96.6751682
  16.6089212  13.7933108  96.4935683  17.4180949  14.4143377  97.6122473
  34.7709605  14.6773987 106.6594065  33.9805148  14.6598126 106.1198565
  34.5342959  15.2162281 107.4143102  34.8907480  11.5266453 103.9726794
  34.9405484  11.3616461 104.9142317  34.7821403  10.6593713 103.5824675
  23.7743738  14.2054999  91.2618883  23.9231859  14.8890464  90.6085556
  24.5810182  14.1860089  91.7768339  36.3925676  13.9463395 104.2168815
  36.1010485  14.3093376 105.0532276  35.7797808  13.2330403 104.0382147
  37.5921359  11.5116275  96.7371386  38.4268250  11.9506079  96.9008946
  37.7280488  11.0354928  95.9179631  34.6412865   9.0696010 102.6848873
  35.1166986   9.2623656 101.8767725  33.7178430   9.1255195 102.4392257
  21.5296371  10.2320177  92.2679952  21.2842413   9.3282507  92.4660162
  21.6992286  10.2337327  91.3259430  27.2739144  16.7003130  88.7330630
  26.7013111  17.3193317  88.2801102  27.8471937  17.2502491  89.2670552
  33.3414534   5.9461770 100.9177179  34.2931957   6.0459867 100.9389403
  33.1717984   5.1540038 101.4275263  31.3628913   3.0317353 101.1036580
  30.7678845   3.3122366 100.4083069  31.0778610   3.5211254 101.8753321
  30.4936404  16.9840280  89.8639212  31.4267077  16.9185841  90.0672088
  30.4059616  17.8196547  89.4053745  33.1224420  16.3006150  86.8243160
  33.0438052  15.9666014  87.7178918  33.9434087  16.7927918  86.8234632
  35.8202611   9.1667889 100.0319479  35.7878932   8.2283890 100.2179162
  36.4303235   9.2451926  99.2985304  27.6585942   8.0363942  86.0746683
  28.6045047   7.9070150  86.1435101  27.2800187   7.2978604  86.5516111
  35.9697100   5.9578933 100.0777762  35.4536149   5.1737389  99.8907691
  36.8537048   5.6297649 100.2424281  33.6307827  -0.2980052  96.0373575
  33.4332648  -0.6064963  96.9216906  34.2407532   0.4281587  96.1671504
  41.6379161  10.2283896  99.1725515  42.3682550   9.9669184  99.7333219
  41.0286107   9.4912618  99.2127583  39.7194458   8.3691759  99.7699967
  38.9927622   8.2347724  99.1616458  39.3041745   8.6768587 100.5756685
  25.8428859   5.9613919  86.0101568  24.9360315   5.6647031  86.0864282
  26.1204840   5.6643737  85.1435854  20.5386707   9.9982723 100.1770121
  20.7572717  10.9299831 100.1958155  20.9512481   9.6390698 100.9624925
  16.6295060  10.9023194  98.4293736  15.9358531  10.4877146  97.9163690
  17.3768051  10.9443730  97.8327155  32.7660281   1.6929380  93.2948770
  32.1858950   2.3514184  92.9126823  32.4996213   0.8706725  92.8836188
  31.2163847   1.0934438  95.4970090  31.7163625   1.2050973  94.6884409
  31.8599455   0.7895491  96.1370899  18.5431802  10.8341447  96.3059751
  18.5202490  10.9329135  95.3541634  18.8532439  11.6806598  96.6276917
  21.2019180  12.8917602 100.4206365  22.1562434  12.8601545 100.3536297
  21.0031704  12.4308226 101.2356591  31.5485159   3.8529471  92.3505118
  30.6611014   4.1379121  92.1325313  31.9639148   3.6923234  91.5032395
  34.8999695   3.8775992  96.0659458  35.6760085   4.3672444  96.3384074
  34.1747829   4.3034046  96.5231327  37.3372253   4.5903611  97.1233398
  37.9316744   4.3499347  96.4126706  37.4098837   3.8710742  97.7506935
  19.5569409  18.4337222  97.4376563  19.4223877  17.6737623  96.8714561
  19.1401471  19.1578122  96.9705352  30.6928372  13.6174145  86.4453138
  31.3964222  13.8224148  87.0610794  29.9691021  14.1850907  86.7102222
  31.5226182   9.3684007  92.5655409  31.4661384   9.8252558  91.7263041
  32.0754525   8.6074691  92.3878251  35.3330988   5.1573739  93.3905528
  35.0767922   4.7570374  94.2213736  34.7083856   5.8717533  93.2655667
  39.6443326   7.8969812  95.8976819  39.0842884   7.9663001  96.6708381
  39.0386829   7.7210796  95.1776316  22.7138535  19.3306539  97.6495006
  22.5970919  20.2751971  97.5473696  21.8930981  19.0280101  98.0380805
  32.6015069  14.0556675  88.4951598  33.4360673  13.6237873  88.3129073
  32.4399412  13.8838688  89.4228493  32.2560962  10.5588788  89.8607938
  32.2009765  10.3933059  88.9196382  31.6307017  11.2664821  90.0170127
  23.7393049  19.9834801 100.8650934  24.6420296  20.0158411 101.1817429
  23.5130419  19.0535252 100.8797270  25.4946651  18.7365787  97.5261013
  24.5442282  18.7367649  97.4125385  25.7979137  17.9898522  97.0097047
  41.2299345  24.5726326  98.5906775  41.8677754  24.4533073  97.8870115
  41.1120187  25.5207170  98.6494727  38.0389051  24.5253754  98.5268300
  37.7007562  24.4094819  97.6388835  38.9078819  24.1244919  98.5069306
  33.8975866  26.3789230  94.5165191  33.3340732  26.2879167  93.7481479
  33.7828262  25.5589135  94.9967683  38.5208834  25.6788606 104.4854505
  38.5097475  25.2841404 103.6135009  38.6829473  24.9454678 105.0788277
  31.4440298  27.8740422  97.3549411  32.2361590  27.5331247  96.9395711
  31.6836949  27.9835397  98.2751565  39.4775425  30.0460198  89.8279656
  38.8263405  30.6314278  89.4413670  40.2719788  30.5766393  89.8874693
  33.4031052  27.1349335  90.2266790  34.1761928  26.5878322  90.0879666
  33.7556451  27.9993584  90.4381251  35.2416095  28.4625717 103.4333689
  34.9505961  29.3671348 103.3180356  35.8773079  28.5042245 104.1477759
  36.1672302  25.8402566 100.0235049  36.7635874  25.6158588  99.3092012
  36.2247273  25.0987311 100.6260497  35.7397330  23.2942001  87.8585240
  35.9922851  22.7723523  87.0968703  34.8021889  23.1308147  87.9611924
  40.7840613  22.2977780  95.6659983  41.5703702  21.8797203  95.3150400
  41.0479317  23.2023872  95.8341632  40.9550690  27.7350630  90.3648640
  40.3196523  27.8085256  91.0769545  40.6248097  28.3244229  89.6867719
  46.1849040  22.2353013  96.5692962  46.9174212  21.6652230  96.8030791
  45.4288396  21.8474613  97.0099467  35.4593619  25.1970107  90.0609615
  35.3429877  24.5215011  90.7290699  35.5695879  24.7102481  89.2441768
  37.8025160  24.6580254  93.7656304  37.4383367  24.1310875  94.4769226
  38.6592276  24.2678723  93.5922790  43.7074460  15.9474587 101.0287570
  43.3757785  16.8169998 100.8048785  43.1120074  15.6310871 101.7081601
  37.4430647  19.6870154  88.7617653  37.6105049  20.5550390  89.1288124
  37.2527816  19.8497436  87.8378942  40.2005980  28.1487133 100.4283483
  39.9006703  29.0512172 100.3199290  39.8557040  27.8819316 101.2804636
  33.6518461  24.6000930  96.4620187  32.7268958  24.4677144  96.6697879
  33.9002875  25.3795149  96.9590130  43.6003124  20.6669673  98.1080920
  42.6920001  20.5985082  97.8139681  43.5490720  21.1441618  98.9362746
  37.4219868  22.1427812  89.7464320  37.3019493  22.5884862  90.5849800
  36.7272456  22.4913129  89.1877858  31.0127273  24.2434203  97.2963977
  31.1419654  24.4968682  98.2103388  30.3324724  24.8361911  96.9768632
  35.1826760  34.9131453  93.3954451  35.1050790  35.8639278  93.4742931
  34.5788403  34.5677326  94.0529377  37.6743990  22.0859319 106.0515818
  36.8977324  22.6453239 106.0418682  38.3134553  22.5716102 106.5730688
  45.4664770  18.8686112  99.8858794  44.8239150  19.1618645  99.2398589
  44.9619699  18.7539032 100.6911991  43.1204934  22.6149285  90.5744654
  44.0322790  22.8476671  90.3992351  42.6114581  23.1986329  90.0119732
  35.9290362  24.8944772 105.6133785  36.6705046  25.4329816 105.3368608
  35.2227347  25.5211061 105.7705336  41.4045702  27.0373913 104.2105946
  41.8129058  26.5956323 103.4660578  40.6822963  26.4626540 104.4640139
  37.7576772  21.9746519 101.5839503  38.6037967  22.3985933 101.7274152
  37.6975409  21.3180144 102.2778066  41.7274516  27.5975103  97.9658235
  41.0983379  27.7620817  97.2634303  41.3400178  28.0116713  98.7369199
  45.6063748  28.5329541  95.3202599  44.9214786  28.9128442  94.7699632
  45.6907597  29.1424868  96.0534547  40.9076217  19.6350888 103.2420677
  40.6637149  20.3892948 102.7054952  41.1836147  20.0136235 104.0767924
  42.8614680  26.1789500 101.9197942  43.0731575  26.8221260 101.2432323
  42.8144428  25.3451817 101.4519872  40.4640909  18.7907321  98.8234514
  39.6025388  19.0888574  99.1151252  40.4903343  19.0077720  97.8915547
  37.2802478  27.3349511  95.2308320  37.7440824  27.6137214  94.4412943
  37.0159276  26.4332956  95.0481411  34.1726559  26.8820993  98.1688083
  34.7427916  27.3108261  97.5305568  34.7634671  26.6003578  98.8672269
  36.2171364  23.4572664  92.0397885  36.9195407  23.9093707  92.5071812
  35.8851993  22.8156483  92.6677778  34.6651726  22.0484420 106.4149095
  34.0350386  22.7300701 106.6484491  34.5587814  21.9367502 105.4702233
  29.9596698  21.7156216  97.3415019  29.1695752  21.9713745  96.8655129
  30.4507945  22.5304554  97.4467059  43.9760508  29.0561455 100.0920300
  44.7977951  28.6541643  99.8102981  43.9722910  28.9529690 101.0436415
  31.9111443  22.0800796  94.2998496  31.1142607  22.1919490  94.8181991
  31.6837036  22.4187448  93.4339386  37.7417111  28.6045499 102.2481010
  37.8061544  29.0665906 103.0839182  37.0328035  27.9742864 102.3763320
  28.2434401  21.9686707  99.7730010  28.4942439  22.8533717 100.0387586
  28.7793949  21.7891308  99.0005101  52.0666501  25.4000204  96.4405271
  51.3130209  24.8307602  96.2849276  52.2014042  25.3662868  97.3875906
  37.4565129  30.2713606  92.1159990  37.3210804  31.1165142  92.5444838
  37.9974941  30.4732884  91.3525924  33.9432468  16.3505186 108.7774346
  33.5499414  15.7971385 109.4521990  34.7598609  16.6615765 109.1680863
  30.9094526  27.7889044  92.6887916  31.4219047  28.5832295  92.8393480
  31.5617239  27.0915335  92.6221517  32.7189411  30.9054801  94.7710669
  32.8956039  31.8272765  94.5831653  33.5146244  30.5913220  95.2005049
  36.8600429  17.7663065 106.3694602  37.6010143  18.3670218 106.2899065
  37.0918352  17.0240703 105.8112645  32.0041767  22.9519432 104.6472832
  31.8895282  22.0504690 104.9479931  31.1486285  23.1983129 104.2957648
  39.0833605  30.8937173 106.2460333  38.6397459  30.1073551 105.9281237
  39.7450819  31.0816323 105.5804223  33.8420726  32.4232974 100.7721011
  34.3928151  32.2950038  99.9998005  33.0032202  32.7227863 100.4215904
  41.1814843  31.1739973 104.2741734  41.1633319  31.9948854 103.7822003
  42.1034763  31.0494048 104.4991875  37.6387897  28.6884102 105.1165242
  38.1716234  27.9272390 104.8864550  37.1101978  28.3957754 105.8589397
  40.8057592  13.7944168 100.6458884  40.4621862  14.6845810 100.5697995
  41.1736555  13.6045826  99.7828469  28.8743443  26.1177699  93.4647486
  29.7118665  26.5274707  93.2481194  29.0521711  25.1777141  93.4347680
  40.7707875  23.7852779  89.1531319  40.2554498  24.5557384  89.3919706
  40.4985183  23.1117915  89.7764381  38.3554986  18.6302480  94.2116557
  37.4996582  18.2409330  94.0322196  38.7681938  18.7094441  93.3516343
  39.8854133  16.1648823  98.6108117  39.3818928  16.1278958  97.7975922
  40.1784740  17.0741566  98.6704774  36.1297019  16.2487553  97.6174299
  36.9950015  16.0530362  97.2580188  36.1974527  16.0197905  98.5443656
  45.7442149  26.5385134  91.0884493  44.9671592  26.1996293  90.6439655
  46.4233630  26.5437757  90.4139458  40.5594178  21.6579871  90.9791100
  40.2544314  21.9726021  91.8301243  41.5124620  21.7361291  91.0218433
  39.0040610  27.8170095  92.6284054  38.4761972  27.0822854  92.3157292
  38.5028113  28.5944771  92.3824023  43.9833456  26.0119115  97.7451101
  43.3257130  26.7018377  97.8331229  44.7873855  26.4015547  98.0885087
  33.7359338  18.4789761  94.9890666  34.3103090  18.2564942  94.2563859
  34.3230320  18.5478455  95.7419267  42.7938915  24.3663488  95.7955042
  43.3070797  24.9993480  96.2976752  43.4440139  23.7664683  95.4298402
  34.0628925  20.5094222  89.0086551  33.2266237  20.8468909  89.3295826
  33.9233694  20.3743202  88.0713688  36.0382005  15.3531010  93.7165735
  35.3846418  15.0380027  93.0922350  35.9962479  14.7306750  94.4425558
  37.1493210  25.6350305  85.6319027  36.2420272  25.4039558  85.8310176
  37.6464242  24.8387924  85.8193009  40.0561289  34.3447812  88.5515713
  39.3822988  34.6479509  89.1600671  40.4427111  35.1476892  88.2021170
  39.2719746  21.8412943  98.0413383  38.3542307  22.0627890  97.8835071
  39.6879889  21.9159254  97.1825090  40.0554793  23.2404359  93.1716063
  40.8026612  23.7525756  92.8623185  40.3246383  22.9188412  94.0320457
  38.3281444  25.7362900  90.1543017  37.4192663  25.4521933  90.2515487
  38.3576527  26.1561978  89.2946324  43.5600711  29.3469489  93.9234185
  43.1063038  28.5060399  93.9799375  42.9294678  29.9830888  94.2608965
  42.5033631  20.2761475  95.1534852  41.7656387  19.7638862  95.4845095
  42.7560404  19.8361857  94.3418129  42.0033650  31.1845986  94.8584003
  42.2956625  31.7451043  94.1396369  42.5132271  31.4774547  95.6137162
  42.6045258  13.0537727  95.7476622  42.9104135  12.1935091  95.4602537
  43.3297863  13.6455348  95.5475616  28.8969614  23.4568414  94.1358220
  28.6994014  22.8637775  93.4109286  28.3416278  23.1520624  94.8534158
  36.8766338  23.3491520  96.2552813  36.9314947  22.3965357  96.1795289
  36.0657540  23.5050959  96.7394111  38.0257531  27.2771643  87.4931096
  37.5876961  26.5607502  87.0336733  38.7667972  27.5047758  86.9316187
  34.8158698  21.9668580  94.0143192  34.0026563  22.2662751  94.4208384
  35.3117692  21.5724269  94.7317674  36.9667275  31.9626337  95.9477456
  36.9243454  32.1887183  95.0185988  37.8829974  31.7289712  96.0963257
  40.4132909  22.4310405 102.8458085  40.7682297  22.6581878 103.7052551
  41.0605041  22.7628781 102.2235341  46.1430646  25.5528840  93.5507414
  46.0048545  25.7430436  92.6228604  45.7866865  26.3148223  94.0075466
  34.3072772  19.5386936  99.6304427  34.9472152  19.3975695  98.9327390
  33.4750303  19.2521449  99.2543029  46.1700026  27.6205368  98.5618686
  46.6036533  27.5280657  99.4101740  46.8831607  27.5962868  97.9238702
  35.0833076  28.8389366  95.7439419  35.8773675  28.3439686  95.5421994
  34.3724769  28.3107229  95.3807125  39.9027921  31.2207462 100.0951787
  39.9564943  31.7898398 100.8629502  39.0342702  31.3909347  99.7305824
  31.3915840  22.9832448  91.8199172  30.4613428  22.9216903  92.0369134
  31.4873312  22.4608401  91.0235813  31.3101389  19.5087261  94.4077413
  31.5708206  20.4232594  94.2986574  32.1318561  19.0411703  94.5574026
  32.7826314  20.9225018 101.5776238  33.4549368  20.7142380 100.9288887
  31.9556101  20.7247104 101.1381470  47.0315575  27.6629068 101.0951571
  47.2251465  28.5674879 101.3410846  46.9316194  27.2036487 101.9290156
  38.6851886  17.5486959 103.5941899  38.0379801  18.2476908 103.5006375
  39.4552902  17.9823103 103.9618147  42.0930684  27.8135811 106.6692452
  41.9416190  27.5846363 105.7522536  42.0835364  28.7706412 106.6823797
  38.8616020  25.3867724 101.6538718  39.7908080  25.5378883 101.4807686
  38.4407051  25.4751744 100.7987365  37.6604352  29.4118388  99.4237256
  37.5215438  29.0437172 100.2963194  36.8718948  29.9266027  99.2521214
  38.2552504  34.5127485  90.7662793  38.4304260  34.0415528  91.5808415
  37.5685292  35.1393251  90.9944053  39.2109567  28.7899991  96.8126094
  38.8759400  28.7500761  97.7083744  38.7113513  28.1244707  96.3396504
  33.1853811  24.1967621 102.3378675  33.0473609  23.4647860 102.9390214
  34.0958735  24.1076521 102.0562863  42.1468759  26.1356025  87.0863154
  41.5297930  25.4102853  86.9896206  41.6785248  26.8965385  86.7430228
  35.8136112  23.9087580 101.8262355  36.5235731  23.2680772 101.7848973
  35.7705420  24.1600475 102.7488535  43.8022891  30.8454933 104.7468934
  43.7435437  30.1614154 104.0799517  44.2042409  31.5873923 104.2949560
  34.5265046  20.8952798 103.6457994  33.9902403  20.4443536 104.2979590
  33.9381754  21.0298707 102.9028458  32.8213590  37.6616847  97.5402653
  33.0610188  38.2935371  98.2181671  31.9782786  37.3104887  97.8268012
  33.9367305  20.3541449  86.2084458  33.0596771  20.2330250  85.8446704
  34.4125058  19.5627528  85.9563346  43.8040298  28.8094517 102.9782914
  42.9167077  28.4720439 103.1009312  44.3738849  28.0777549 103.2151679
  25.4569445  25.1418609  96.3025965  26.1440485  24.8280339  95.7146980
  25.3017574  26.0459974  96.0293216  30.2604167  20.0308806 100.7310989
  30.1762356  19.4234475  99.9961399  29.4386874  20.5217824 100.7320485
  37.3341451  33.4695970  99.9444157  37.2611623  34.2750941 100.4563461
  36.8918844  33.6687936  99.1192178  37.1231231  32.7067740  93.4546978
  36.3398753  33.2489420  93.5485203  37.8223976  33.2241719  93.8541219
  40.4327881  18.5162369  96.0981184  40.9296581  17.7632332  95.7782254
  39.6614863  18.5526686  95.5324393  48.2857639  24.2202735  97.7399475
  48.2747515  25.1027450  97.3693408  47.4175018  23.8674286  97.5454012
  39.7940135  33.3682804 102.1002315  40.5068107  34.0030269 102.0278217
  39.3030164  33.4646670 101.2842317  41.5157662  27.2734056  93.6719607
  40.5813941  27.3935519  93.5024311  41.6934330  26.3706523  93.4079617
  37.0162850  20.6579752  95.8252868  36.6460637  20.1050793  96.5133774
  37.5121942  20.0537886  95.2727868  44.9030213  23.1151376  94.2069641
  45.3690665  23.9479367  94.1329944  45.3537714  22.6496357  94.9114900
  34.8452048  31.1177247 102.9207886  35.5461508  31.7513730 103.0737280
  34.3747163  31.4591979 102.1603525  42.9706444  29.4595197  91.2055793
  43.2466288  29.3451792  92.1149667  42.1010943  29.0612682  91.1667966
  42.8746876  15.4831963  98.2460543  41.9609956  15.7136190  98.4142749
  43.3039977  15.5670407  99.0974575  42.6453334  23.6721855 100.7460437
  41.9924785  23.9197762 100.0912889  43.0233714  22.8585993 100.4122914
  39.6060508  33.7081548  94.8488607  39.7882903  32.8903204  95.3116359
  40.4293494  33.9249240  94.4113497  39.9402674  32.6349733  92.1103655
  40.4690440  32.1242188  91.4973817  40.2030893  32.3192263  92.9749188
  38.6940907  24.4141666 107.2326474  38.0181544  24.3135795 107.9028849
  39.5168541  24.2580879 107.6962471  30.4419767  30.6513602  99.8538989
  31.0273203  29.9057290  99.9866893  30.2444605  30.9617559 100.7375653
  33.2958422  33.6864850  94.8701431  32.6268797  34.1710977  94.3865471
  33.1571291  33.9334070  95.7844810  25.0337421  23.2219203  98.5743432
  25.0721521  22.6882793  99.3680550  24.5277714  22.6954408  97.9554409
  37.4363690  35.7208593 101.4684090  37.9881998  35.8840215 102.2333175
  37.7769884  36.3113031 100.7964114  32.4128184  18.0683743 102.0705974
  32.4769510  18.9298574 101.6583372  32.3495304  17.4557745 101.3378333
  31.8880456  20.1406876 105.7179009  32.5152495  19.7583953 106.3316533
  31.0308375  19.9221077 106.0834701  42.2874565  30.5469851 107.3232744
  42.8314469  31.1599809 106.8287699  41.7061409  31.1049429 107.8399757
  28.6645999  21.9483305  91.6497363  28.9599440  21.0393983  91.5964417
  27.7634035  21.9271044  91.3278366  40.5732078  33.6690569  98.4547772
  40.4483217  32.8680309  97.9458717  41.2311169  34.1636762  97.9661742
  32.1940246  20.0239301  97.6324912  31.4726832  20.6375269  97.4932385
  32.9833502  20.5597066  97.5541558  42.6366986  31.4699589 100.0827322
  41.6897322  31.3504940 100.0105649  42.9849759  30.5822087 100.1653583
  34.9966559  17.3593728 103.9065564  35.5200961  17.6056024 104.6691873
  34.7778893  18.1913763 103.4868701  30.3933840  19.6297402  91.7736689
  30.0646547  18.7494781  91.5911795  30.7473211  19.5745071  92.6613078
  39.6413419  31.2652305  96.2831674  39.4938382  30.3369012  96.4639244
  40.4666913  31.2872396  95.7988749  33.5075664  19.9170372  92.1412166
  33.8471736  20.4456293  91.4190775  33.9547784  20.2550778  92.9170733
  43.2447541  32.0880864  97.3696547  44.1694089  31.8823725  97.2320998
  43.0762844  31.8397265  98.2785888  36.2019104  18.3007423 101.5915234
  35.8615925  17.5015236 101.9935914  35.4958111  18.6009134 101.0192068
  36.8535576  15.3856735 100.0442557  37.6761646  14.9117213  99.9221448
  37.0973640  16.1647219 100.5441244  35.4943811  18.4144994  90.3405459
  36.2152173  18.7926246  89.8369176  34.8709115  19.1333871  90.4440437
  39.6374934  19.1190143  91.2763791  39.8538548  20.0014781  90.9752620
  39.1569001  18.7276356  90.5469433  34.3774155  22.0775856  97.8534536
  34.2318736  22.3916159  98.7458817  33.8999359  22.6960756  97.3005435
  36.2370538  19.0678404  97.9015426  36.2232107  18.1719497  97.5647723
  36.9542966  19.0749068  98.5353712  38.0896669  19.5015744  99.9468553
  37.8314446  20.4232815  99.9452883  37.5581709  19.1046179 100.6369017
  43.0342857  32.6066531  92.7258638  43.2079735  32.0412954  91.9732491
  43.5271749  33.4067426  92.5438128  28.8519817  24.6181200 100.7922197
  28.3073285  25.3941008 100.9242471  29.7299167  24.9652005 100.6341319
  35.6407434  17.9492784  93.1702996  35.7623345  17.0209430  93.3693883
  35.3509476  17.9631470  92.2581311  38.5098624  15.6347695  96.3069715
  38.5320321  15.6987028  95.3521695  38.9266683  14.7952203  96.5010222
  48.8882248  25.3702954  94.3448938  49.3313395  24.6210279  93.9468061
  48.0108759  25.3613091  93.9622670  44.0218030  31.9233296  89.8255537
  44.7168934  32.5439988  90.0442851  44.3641180  31.0728647  90.1007914
  29.6385839  23.7451097 103.6852354  28.8967575  23.8933732 104.2716984
  29.3178583  24.0059362 102.8219103  45.9209453  29.3733001  91.3542867
  46.4460777  29.7120274  90.6292187  45.8331805  28.4380016  91.1706002
  37.5829502  33.2867075 103.4832744  37.8916628  33.0416222 104.3555444
  38.3804984  33.4913713 102.9951614  37.6050114  35.4404984  95.7138121
  37.1655104  34.9481363  96.4070977  38.3558231  34.8977952  95.4730196
  30.0842453  31.6316525  95.7162749  30.9100473  31.3320297  95.3361392
  29.7336505  30.8624148  96.1652537  35.0523986  30.9842994  97.7860422
  34.4303995  30.3213699  97.4862650  35.7228853  31.0104125  97.1034070
  28.2851058  29.5502852  96.6751682  27.4482966  29.1225026  96.4935683
  28.2574703  29.7435295  97.6122473  35.1248513  19.4624782 107.3792928
  35.1736669  20.3386904 106.9970698  35.6671028  18.9202175 106.8064571
  45.6103359  30.0065905 106.6594065  44.8198903  29.9890044 106.1198565
  45.3736714  30.5454198 107.4143102  45.7301234  26.8558371 103.9726794
  45.7799239  26.6908379 104.9142317  45.6215157  25.9885630 103.5824675
  34.6137493  29.5346917  91.2618883  34.7625613  30.2182381  90.6085556
  35.4203936  29.5152007  91.7768339  43.0204996  22.8389299 105.2886101
  43.9214859  22.6995764 104.9970098  43.0952971  23.0043754 106.2284278
  37.3547802  20.2156154 104.1339287  36.4851111  20.5089720 103.8621875
  37.5907282  20.7996599 104.8546551  47.2319431  29.2755313 104.2168815
  46.9404239  29.6385293 105.0532276  46.6191562  28.5622321 104.0382147
  48.4315113  26.8408192  96.7371386  49.2662005  27.2797997  96.9008946
  48.5674242  26.3646846  95.9179631  45.4806619  24.3987927 102.6848873
  45.9560741  24.5915574 101.8767725  44.5572184  24.4547113 102.4392257
  32.3690126  25.5612094  92.2679952  32.1236168  24.6574424  92.4660162
  32.5386040  25.5629245  91.3259430  40.0586836  16.4335771 101.6504707
  40.5768779  17.1696798 101.3251196  39.7041968  16.7399764 102.4851466
  31.6385773  21.2940452  89.7666113  30.9455018  21.3684807  89.1106149
  31.3937525  20.5300796  90.2887630  40.3099430  12.8536053  97.1705604
  40.5901184  12.1859242  97.7966030  41.0950037  13.0465149  96.6580268
  38.1132898  32.0295047  88.7330630  37.5406865  32.6485234  88.2801102
  38.6865692  32.5794409  89.2670552  44.1808288  21.2753687 100.9177179
  45.1325711  21.3751785 100.9389403  44.0111739  20.4831956 101.4275263
  42.2022668  18.3609271 101.1036580  41.6072600  18.6414283 100.4083069
  41.9172364  18.8503172 101.8753321  41.3330158  32.3132197  89.8639212
  42.2660831  32.2477759  90.0672088  41.2453371  33.1488464  89.4053745
  43.9618175  31.6298068  86.8243160  43.8831806  31.2957931  87.7178918
  44.7827842  32.1219836  86.8234632  46.6596366  24.4959807 100.0319479
  46.6272686  23.5575808 100.2179162  47.2696990  24.5743844  99.2985304
  38.4979697  23.3655860  86.0746683  39.4438801  23.2362068  86.1435101
  38.1193942  22.6270522  86.5516111  46.8090854  21.2870851 100.0777762
  46.2929903  20.5029307  99.8907691  47.6930803  20.9589567 100.2424281
  44.4701581  15.0311866  96.0373575  44.2726402  14.7226954  96.9216906
  45.0801287  15.7573505  96.1671504  52.4772916  25.5575814  99.1725515
  53.2076304  25.2961102  99.7333219  51.8679861  24.8204536  99.2127583
  50.5588213  23.6983677  99.7699967  49.8321376  23.5639641  99.1616458
  50.1435500  24.0060505 100.5756685  38.3818389  27.4173606 107.5347340
  39.3021399  27.5952205 107.7287386  38.3467972  26.4729652 107.3827039
  36.6822614  21.2905836  86.0101568  35.7754069  20.9938949  86.0864282
  36.9598595  20.9935655  85.1435854  27.6000554  22.6112200  96.4600614
  27.2803339  21.7577508  96.1674988  27.0533982  22.8260778  97.2158582
  31.3780462  25.3274641 100.1770121  31.5966472  26.2591749 100.1958155
  31.7906236  24.9682615 100.9624925  38.2984680  15.8342726  92.1645809
  37.4885408  15.4889811  92.5401055  38.9869097  15.5250270  92.7533421
  40.2275228  14.9120773  93.7870106  40.7806267  15.3316226  94.4460129
  40.4645314  13.9856521  93.8293062  36.2508327  20.9007847 109.5672870
  36.1505054  21.8502204 109.4984961  36.0329869  20.5726086 108.6948940
  35.4521399  18.1492772  86.1513547  36.3140563  18.4747670  86.4109364
  35.6371743  17.3624268  85.6386613  27.4688814  26.2315111  98.4293736
  26.7752286  25.8169064  97.9163690  28.2161805  26.2735648  97.8327155
  43.6054035  17.0221298  93.2948770  43.0252704  17.6806102  92.9126823
  43.3389968  16.1998643  92.8836188  42.0557601  16.4226356  95.4970090
  42.5557380  16.5342890  94.6884409  42.6993209  16.1187409  96.1370899
  36.1139597  24.3304985 108.3837931  35.6306679  25.1305346 108.5901820
  36.2000536  24.3412930 107.4305375  29.3825557  26.1633365  96.3059751
  29.3596245  26.2621052  95.3541634  29.6926193  27.0098516  96.6276917
  32.0412935  28.2209520 100.4206365  32.9956188  28.1893462 100.3536297
  31.8425458  27.7600144 101.2356591  32.6312317  26.7910636 102.9877163
  33.4505206  27.2854715 103.0112000  32.9049125  25.8742604 102.9594730
  42.3878913  19.1821389  92.3505118  41.5004768  19.4671039  92.1325313
  42.8032902  19.0215152  91.5032395  45.7393449  19.2067909  96.0659458
  46.5153839  19.6964362  96.3384074  45.0141583  19.6325964  96.5231327
  48.1766008  19.9195529  97.1233398  48.7710499  19.6791265  96.4126706
  48.2492592  19.2002659  97.7506935  30.3963164  33.7629140  97.4376563
  30.2617631  33.0029541  96.8714561  29.9795226  34.4870039  96.9705352
  41.5322127  28.9466063  86.4453138  42.2357977  29.1516066  87.0610794
  40.8084775  29.5142825  86.7102222  42.3619937  24.6975924  92.5655409
  42.3055138  25.1544476  91.7263041  42.9148279  23.9366609  92.3878251
  46.1724743  20.4865656  93.3905528  45.9161677  20.0862292  94.2213736
  45.5477611  21.2009450  93.2655667  50.4837081  23.2261730  95.8976819
  49.9236639  23.2954919  96.6708381  49.8780584  23.0502714  95.1776316
  33.5532289  34.6598457  97.6495006  33.4364674  35.6043889  97.5473696
  32.7324736  34.3572018  98.0380805  43.4408824  29.3848592  88.4951598
  44.2754428  28.9529791  88.3129073  43.2793167  29.2130606  89.4228493
  43.0954716  25.8880706  89.8607938  43.0403520  25.7224977  88.9196382
  42.4700771  26.5956739  90.0170127  27.8847231  21.1248770 103.6869360
  28.5306095  20.6147724 104.1756585  27.6764382  21.8617452 104.2612785
  40.4100623  28.1929618 109.1861500  41.2791783  28.3670270 108.8248135
  39.9307375  29.0124034 109.0637230  36.4050842  15.3888815  89.4393256
  36.3929511  16.3330655  89.5961527  37.2974263  15.2058960  89.1452717
  34.5786804  35.3126719 100.8650934  35.4814050  35.3450329 101.1817429
  34.3524174  34.3827170 100.8797270  36.3340406  34.0657705  97.5261013
  35.3836037  34.0659567  97.4125385  36.6372892  33.3190440  97.0097047
  40.2202961  11.9831591  93.6939193  39.4535357  11.4290078  93.8395875
  40.6313666  12.0553460  94.5553345  32.2244722  18.2716387 107.7844374
  33.0876184  17.9153192 107.9947699  31.6510133  17.9330282 108.4719778
  52.0693099  39.9018243  98.5906775  52.7071509  39.7824991  97.8870115
  51.9513942  40.8499087  98.6494727  48.8782805  39.8545672  98.5268300
  48.5401317  39.7386736  97.6388835  49.7472573  39.4536837  98.5069306
  44.7369621  41.7081148  94.5165191  44.1734486  41.6171085  93.7481479
  44.6222016  40.8881052  94.9967683  49.3602588  41.0080523 104.4854505
  49.3491229  40.6133322 103.6135009  49.5223228  40.2746596 105.0788277
  42.2834053  43.2032340  97.3549411  43.0755345  42.8623164  96.9395711
  42.5230703  43.3127315  98.2751565  50.3169180  45.3752116  89.8279656
  49.6657159  45.9606196  89.4413670  51.1113543  45.9058311  89.8874693
  44.2424807  42.4641253  90.2266790  45.0155683  41.9170240  90.0879666
  44.5950206  43.3285502  90.4381251  46.0809849  43.7917635 103.4333689
  45.7899715  44.6963266 103.3180356  46.7166834  43.8334163 104.1477759
  47.0066056  41.1694484 100.0235049  47.6029629  40.9450506  99.3092012
  47.0641028  40.4279229 100.6260497  46.5791085  38.6233919  87.8585240
  46.8316605  38.1015440  87.0968703  45.6415644  38.4600064  87.9611924
  51.6234367  37.6269697  95.6659983  52.4097457  37.2089121  95.3150400
  51.8873072  38.5315790  95.8341632  51.7944445  43.0642548  90.3648640
  51.1590278  43.1377174  91.0769545  51.4641851  43.6536146  89.6867719
  57.0242795  37.5644931  96.5692962  57.7567967  36.9944147  96.8030791
  56.2682150  37.1766531  97.0099467  46.2987373  40.5262025  90.0609615
  46.1823632  39.8506928  90.7290699  46.4089633  40.0394399  89.2441768
  48.6418914  39.9872172  93.7656304  48.2777122  39.4602793  94.4769226
  49.4986030  39.5970641  93.5922790  54.5468215  31.2766505 101.0287570
  54.2151540  32.1461916 100.8048785  53.9513828  30.9602789 101.7081601
  48.2824401  35.0162072  88.7617653  48.4498804  35.8842308  89.1288124
  48.0921570  35.1789353  87.8378942  51.0399734  43.4779051 100.4283483
  50.7400458  44.3804089 100.3199290  50.6950794  43.2111234 101.2804636
  44.4912216  39.9292847  96.4620187  43.5662712  39.7969062  96.6697879
  44.7396629  40.7087067  96.9590130  54.4396878  35.9961591  98.1080920
  53.5313756  35.9276999  97.8139681  54.3884474  36.4733536  98.9362746
  48.2613622  37.4719729  89.7464320  48.1413247  37.9176780  90.5849800
  47.5666211  37.8205047  89.1877858  41.8521027  39.5726121  97.2963977
  41.9813408  39.8260600  98.2103388  41.1718478  40.1653829  96.9768632
  46.0220514  50.2423371  93.3954451  45.9444544  51.1931196  93.4742931
  45.4182158  49.8969243  94.0529377  48.5137744  37.4151236 106.0515818
  47.7371078  37.9745157 106.0418682  49.1528307  37.9008019 106.5730688
  56.3058525  34.1978029  99.8858794  55.6632905  34.4910562  99.2398589
  55.8013453  34.0830950 100.6911991  53.9598688  37.9441202  90.5744654
  54.8716544  38.1768589  90.3992351  53.4508335  38.5278247  90.0119732
  46.7684116  40.2236690 105.6133785  47.5098801  40.7621734 105.3368608
  46.0621102  40.8502979 105.7705336  52.2439456  42.3665830 104.2105946
  52.6522812  41.9248241 103.4660578  51.5216718  41.7918458 104.4640139
  48.5970526  37.3038437 101.5839503  49.4431721  37.7277851 101.7274152
  48.5369164  36.6472061 102.2778066  52.5668271  42.9267021  97.9658235
  51.9377133  43.0912735  97.2634303  52.1793933  43.3408630  98.7369199
  56.4457503  43.8621459  95.3202599  55.7608541  44.2420360  94.7699632
  56.5301352  44.4716785  96.0534547  51.7469971  34.9642805 103.2420677
  51.5030903  35.7184866 102.7054952  52.0229902  35.3428153 104.0767924
  53.7008434  41.5081418 101.9197942  53.9125329  42.1513178 101.2432323
  53.6538182  40.6743734 101.4519872  51.3034663  34.1199238  98.8234514
  50.4419142  34.4180492  99.1151252  51.3297098  34.3369637  97.8915547
  48.1196233  42.6641429  95.2308320  48.5834578  42.9429132  94.4412943
  47.8553031  41.7624874  95.0481411  45.0120314  42.2112910  98.1688083
  45.5821671  42.6400179  97.5305568  45.6028425  41.9295495  98.8672269
  47.0565119  38.7864581  92.0397885  47.7589162  39.2385625  92.5071812
  46.7245747  38.1448400  92.6677778  45.5045480  37.3776338 106.4149095
  44.8744141  38.0592619 106.6484491  45.3981568  37.2659420 105.4702233
  40.7990453  37.0448134  97.3415019  40.0089507  37.3005663  96.8655129
  41.2901700  37.8596472  97.4467059  54.8154262  44.3853373 100.0920300
  55.6371706  43.9833560  99.8102981  54.8116665  44.2821607 101.0436415
  42.7505198  37.4092713  94.2998496  41.9536361  37.5211407  94.8181991
  42.5230790  37.7479365  93.4339386  48.5810866  43.9337416 102.2481010
  48.6455298  44.3957824 103.0839182  47.8721789  43.3034781 102.3763320
  39.0828156  37.2978624  99.7730010  39.3336194  38.1825634 100.0387586
  39.6187704  37.1183226  99.0005101  62.9060255  40.7292122  96.4405271
  62.1523964  40.1599520  96.2849276  63.0407796  40.6954786  97.3875906
  48.2958883  45.6005524  92.1159990  48.1604558  46.4457060  92.5444838
  48.8368696  45.8024802  91.3525924  44.7826223  31.6797104 108.7774346
  44.3893168  31.1263302 109.4521990  45.5992363  31.9907682 109.1680863
  41.7488281  43.1180962  92.6887916  42.2612801  43.9124212  92.8393480
  42.4010993  42.4207252  92.6221517  43.5583165  46.2346718  94.7710669
  43.7349794  47.1564683  94.5831653  44.3539999  45.9205137  95.2005049
  47.6994184  33.0954983 106.3694602  48.4403897  33.6962136 106.2899065
  47.9312107  32.3532621 105.8112645  42.8435522  38.2811350 104.6472832
  42.7289037  37.3796607 104.9479931  41.9880040  38.5275047 104.2957648
  49.9227360  46.2229090 106.2460333  49.4791214  45.4365469 105.9281237
  50.5844573  46.4108241 105.5804223  44.6814481  47.7524892 100.7721011
  45.2321906  47.6241955  99.9998005  43.8425957  48.0519781 100.4215904
  52.0208598  46.5031890 104.2741734  52.0027073  47.3240771 103.7822003
  52.9428518  46.3785966 104.4991875  48.4781652  44.0176020 105.1165242
  49.0109989  43.2564308 104.8864550  47.9495733  43.7249672 105.8589397
  51.6451347  29.1236086 100.6458884  51.3015616  30.0137727 100.5697995
  52.0130309  28.9337743  99.7828469  39.7137197  41.4469616  93.4647486
  40.5512419  41.8566625  93.2481194  39.8915465  40.5069058  93.4347680
  51.6101630  39.1144697  89.1531319  51.0948253  39.8849302  89.3919706
  51.3378938  38.4409833  89.7764381  49.1948741  33.9594398  94.2116557
  48.3390337  33.5701248  94.0322196  49.6075692  34.0386359  93.3516343
  50.7247887  31.4940741  98.6108117  50.2212683  31.4570876  97.7975922
  51.0178494  32.4033484  98.6704774  46.9690773  31.5779471  97.6174299
  47.8343770  31.3822279  97.2580188  47.0368282  31.3489822  98.5443656
  56.5835904  41.8677052  91.0884493  55.8065346  41.5288211  90.6439655
  57.2627385  41.8729675  90.4139458  51.3987933  36.9871789  90.9791100
  51.0938068  37.3017938  91.8301243  52.3518375  37.0653209  91.0218433
  49.8434365  43.1462012  92.6284054  49.3155726  42.4114772  92.3157292
  49.3421867  43.9236689  92.3824023  54.8227211  41.3411033  97.7451101
  54.1650885  42.0310294  97.8331229  55.6267610  41.7307465  98.0885087
  44.5753092  33.8081679  94.9890666  45.1496844  33.5856860  94.2563859
  45.1624075  33.8770373  95.7419267  53.6332669  39.6955406  95.7955042
  54.1464551  40.3285397  96.2976752  54.2833893  39.0956601  95.4298402
  44.9022679  35.8386140  89.0086551  44.0659992  36.1760826  89.3295826
  44.7627449  35.7035119  88.0713688  46.8775760  30.6822928  93.7165735
  46.2240172  30.3671945  93.0922350  46.8356234  30.0598668  94.4425558
  47.9886965  40.9642223  85.6319027  47.0814026  40.7331476  85.8310176
  48.4857997  40.1679842  85.8193009  50.8955044  49.6739730  88.5515713
  50.2216742  49.9771427  89.1600671  51.2820866  50.4768810  88.2021170
  50.1113500  37.1704861  98.0413383  49.1936062  37.3919808  97.8835071
  50.5273644  37.2451172  97.1825090  50.8948548  38.5696277  93.1716063
  51.6420367  39.0817674  92.8623185  51.1640138  38.2480329  94.0320457
  49.1675198  41.0654817  90.1543017  48.2586417  40.7813850  90.2515487
  49.1970282  41.4853896  89.2946324  54.3994466  44.6761407  93.9234185
  53.9456793  43.8352317  93.9799375  53.7688432  45.3122805  94.2608965
  53.3427385  35.6053393  95.1534852  52.6050142  35.0930779  95.4845095
  53.5954159  35.1653775  94.3418129  52.8427405  46.5137904  94.8584003
  53.1350379  47.0742961  94.1396369  53.3526025  46.8066465  95.6137162
  53.4439012  28.3829645  95.7476622  53.7497889  27.5227008  95.4602537
  54.1691617  28.9747265  95.5475616  39.7363369  38.7860332  94.1358220
  39.5387768  38.1929692  93.4109286  39.1810033  38.4812542  94.8534158
  47.7160092  38.6783438  96.2552813  47.7708702  37.7257274  96.1795289
  46.9051294  38.8342877  96.7394111  48.8651286  42.6063561  87.4931096
  48.4270716  41.8899420  87.0336733  49.6061727  42.8339676  86.9316187
  45.6552452  37.2960498  94.0143192  44.8420318  37.5954668  94.4208384
  46.1511446  36.9016187  94.7317674  47.8061030  47.2918255  95.9477456
  47.7637209  47.5179101  95.0185988  48.7223729  47.0581629  96.0963257
  51.2526664  37.7602322 102.8458085  51.6076052  37.9873795 103.7052551
  51.8998795  38.0920699 102.2235341  56.9824401  40.8820758  93.5507414
  56.8442299  41.0722354  92.6228604  56.6260620  41.6440141  94.0075466
  45.1466527  34.8678853  99.6304427  45.7865906  34.7267612  98.9327390
  44.3144057  34.5813367  99.2543029  57.0093780  42.9497285  98.5618686
  57.4430287  42.8572574  99.4101740  57.7225361  42.9254786  97.9238702
  45.9226831  44.1681284  95.7439419  46.7167429  43.6731604  95.5421994
  45.2118523  43.6399147  95.3807125  50.7421675  46.5499379 100.0951787
  50.7958698  47.1190316 100.8629502  49.8736457  46.7201264  99.7305824
  42.2309594  38.3124365  91.8199172  41.3007182  38.2508821  92.0369134
  42.3267066  37.7900318  91.0235813  42.1495143  34.8379178  94.4077413
  42.4101961  35.7524512  94.2986574  42.9712316  34.3703621  94.5574026
  43.6220069  36.2516936 101.5776238  44.2943122  36.0434298 100.9288887
  42.7949855  36.0539021 101.1381470  57.8709330  42.9920986 101.0951571
  58.0645220  43.8966796 101.3410846  57.7709948  42.5328405 101.9290156
  49.5245641  32.8778876 103.5941899  48.8773556  33.5768826 103.5006375
  50.2946656  33.3115020 103.9618147  52.9324439  43.1427729 106.6692452
  52.7809945  42.9138280 105.7522536  52.9229118  44.0998330 106.6823797
  49.7009775  40.7159641 101.6538718  50.6301835  40.8670801 101.4807686
  49.2800805  40.8043662 100.7987365  48.4998107  44.7410306  99.4237256
  48.3609192  44.3729090 100.2963194  47.7112703  45.2557945  99.2521214
  49.0946259  49.8419402  90.7662793  49.2698014  49.3707445  91.5808415
  48.4079047  50.4685168  90.9944053  50.0503322  44.1191908  96.8126094
  49.7153155  44.0792678  97.7083744  49.5507268  43.4536624  96.3396504
  44.0247566  39.5259538 102.3378675  43.8867364  38.7939777 102.9390214
  44.9352489  39.4368439 102.0562863  52.9862514  41.4647943  87.0863154
  52.3691684  40.7394771  86.9896206  52.5179002  42.2257303  86.7430228
  46.6529867  39.2379498 101.8262355  47.3629485  38.5972690 101.7848973
  46.6099175  39.4892393 102.7488535  54.6416645  46.1746851 104.7468934
  54.5829191  45.4906071 104.0799517  55.0436164  46.9165841 104.2949560
  45.3658801  36.2244716 103.6457994  44.8296158  35.7735454 104.2979590
  44.7775509  36.3590625 102.9028458  43.6607344  52.9908765  97.5402653
  43.9003942  53.6227289  98.2181671  42.8176540  52.6396805  97.8268012
  44.7761059  35.6833367  86.2084458  43.8990526  35.5622168  85.8446704
  45.2518813  34.8919445  85.9563346  54.6434052  44.1386435 102.9782914
  53.7560831  43.8012357 103.1009312  55.2132604  43.4069466 103.2151679
  36.2963200  40.4710527  96.3025965  36.9834239  40.1572257  95.7146980
  36.1411328  41.3751891  96.0293216  41.0997922  35.3600723 100.7310989
  41.0156110  34.7526393  99.9961399  40.2780628  35.8509742 100.7320485
  48.1735206  48.7987887  99.9444157  48.1005377  49.6042859 100.4563461
  47.7312599  48.9979853  99.1192178  47.9624986  48.0359657  93.4546978
  47.1792507  48.5781338  93.5485203  48.6617731  48.5533637  93.8541219
  51.2721636  33.8454287  96.0981184  51.7690335  33.0924249  95.7782254
  50.5008617  33.8818604  95.5324393  59.1251393  39.5494652  97.7399475
  59.1141269  40.4319368  97.3693408  58.2568772  39.1966203  97.5454012
  50.6333889  48.6974721 102.1002315  51.3461862  49.3322186 102.0278217
  50.1423918  48.7938587 101.2842317  52.3551416  42.6025974  93.6719607
  51.4207695  42.7227437  93.5024311  52.5328085  41.6998441  93.4079617
  47.8556604  35.9871670  95.8252868  47.4854392  35.4342710  96.5133774
  48.3515697  35.3829803  95.2727868  55.7423968  38.4443293  94.2069641
  56.2084420  39.2771285  94.1329944  56.1931468  37.9788275  94.9114900
  45.6845803  46.4469165 102.9207886  46.3855262  47.0805648 103.0737280
  45.2140918  46.7883896 102.1603525  53.8100199  44.7887115  91.2055793
  54.0860043  44.6743709  92.1149667  52.9404698  44.3904600  91.1667966
  53.7140630  30.8123880  98.2460543  52.8003710  31.0428107  98.4142749
  54.1433732  30.8962324  99.0974575  53.4847089  39.0013772 100.7460437
  52.8318539  39.2489680 100.0912889  53.8627469  38.1877911 100.4122914
  50.4454263  49.0373466  94.8488607  50.6276657  48.2195121  95.3116359
  51.2687249  49.2541158  94.4113497  50.7796428  47.9641651  92.1103655
  51.3084195  47.4534105  91.4973817  51.0424648  47.6484181  92.9749188
  49.5334662  39.7433583 107.2326474  48.8575299  39.6427713 107.9028849
  50.3562296  39.5872797 107.6962471  41.2813521  45.9805520  99.8538989
  41.8666958  45.2349208  99.9866893  41.0838359  46.2909477 100.7375653
  44.1352176  49.0156767  94.8701431  43.4662551  49.5002895  94.3865471
  43.9965046  49.2625988  95.7844810  35.8731176  38.5511120  98.5743432
  35.9115275  38.0174711  99.3680550  35.3671469  38.0246326  97.9554409
  48.2757445  51.0500511 101.4684090  48.8275753  51.2132132 102.2333175
  48.6163638  51.6404949 100.7964114  43.2521938  33.3975661 102.0705974
  43.3163265  34.2590492 101.6583372  43.1889058  32.7849662 101.3378333
  42.7274211  35.4698793 105.7179009  43.3546249  35.0875871 106.3316533
  41.8702129  35.2512995 106.0834701  53.1268319  45.8761768 107.3232744
  53.6708223  46.4891727 106.8287699  52.5455164  46.4341347 107.8399757
  39.5039753  37.2775222  91.6497363  39.7993194  36.3685901  91.5964417
  38.6027789  37.2562962  91.3278366  51.4125832  48.9982486  98.4547772
  51.2876972  48.1972226  97.9458717  52.0704923  49.4928680  97.9661742
  43.0334000  35.3531219  97.6324912  42.3120586  35.9667187  97.4932385
  43.8227256  35.8888984  97.5541558  53.4760740  46.7991506 100.0827322
  52.5291076  46.6796858 100.0105649  53.8243514  45.9114005 100.1653583
  45.8360314  32.6885645 103.9065564  46.3594716  32.9347942 104.6691873
  45.6172647  33.5205680 103.4868701  41.2327595  34.9589320  91.7736689
  40.9040301  34.0786699  91.5911795  41.5866966  34.9036989  92.6613078
  50.4807174  46.5944223  96.2831674  50.3332136  45.6660930  96.4639244
  51.3060667  46.6164313  95.7988749  44.3469418  35.2462290  92.1412166
  44.6865491  35.7748211  91.4190775  44.7941539  35.5842696  92.9170733
  54.0841296  47.4172781  97.3696547  55.0087843  47.2115643  97.2320998
  53.9156599  47.1689183  98.2785888  47.0412859  33.6299341 101.5915234
  46.7009679  32.8307154 101.9935914  46.3351865  33.9301051 101.0192068
  47.6929331  30.7148653 100.0442557  48.5155400  30.2409131  99.9221448
  47.9367394  31.4939137 100.5441244  46.3337565  33.7436911  90.3405459
  47.0545928  34.1218164  89.8369176  45.7102869  34.4625788  90.4440437
  50.4768688  34.4482060  91.2763791  50.6932302  35.3306698  90.9752620
  49.9962755  34.0568274  90.5469433  45.2167909  37.4067774  97.8534536
  45.0712490  37.7208077  98.7458817  44.7393113  38.0252674  97.3005435
  47.0764292  34.3970322  97.9015426  47.0625861  33.5011415  97.5647723
  47.7936720  34.4040985  98.5353712  48.9290423  34.8307662  99.9468553
  48.6708201  35.7524732  99.9452883  48.3975463  34.4338096 100.6369017
  53.8736612  47.9358449  92.7258638  54.0473489  47.3704871  91.9732491
  54.3665503  48.7359344  92.5438128  39.6913572  39.9473118 100.7922197
  39.1467040  40.7232926 100.9242471  40.5692921  40.2943922 100.6341319
  46.4801188  33.2784702  93.1702996  46.6017099  32.3501348  93.3693883
  46.1903231  33.2923388  92.2581311  49.3492379  30.9639612  96.3069715
  49.3714075  31.0278945  95.3521695  49.7660438  30.1244121  96.5010222
  59.7276003  40.6994872  94.3448938  60.1707149  39.9502197  93.9468061
  58.8502513  40.6905008  93.9622670  54.8611784  47.2525213  89.8255537
  55.5562689  47.8731906  90.0442851  55.2034934  46.4020565  90.1007914
  40.4779593  39.0743014 103.6852354  39.7361330  39.2225650 104.2716984
  40.1572338  39.3351280 102.8219103  56.7603207  44.7024919  91.3542867
  57.2854532  45.0412192  90.6292187  56.6725560  43.7671934  91.1706002
  48.4223256  48.6158992 103.4832744  48.7310383  48.3708139 104.3555444
  49.2198738  48.8205631 102.9951614  48.4443868  50.7696902  95.7138121
  48.0048858  50.2773281  96.4070977  49.1951985  50.2269870  95.4730196
  40.9236207  46.9608443  95.7162749  41.7494227  46.6612215  95.3361392
  40.5730259  46.1916065  96.1652537  45.8917740  46.3134911  97.7860422
  45.2697750  45.6505616  97.4862650  46.5622607  46.3396043  97.1034070
  39.1244812  44.8794769  96.6751682  38.2876721  44.4516944  96.4935683
  39.0968458  45.0727213  97.6122473  45.9642268  34.7916699 107.3792928
  46.0130423  35.6678822 106.9970698  46.5064782  34.2494092 106.8064571
  56.4497113  45.3357822 106.6594065  55.6592657  45.3181961 106.1198565
  56.2130468  45.8746116 107.4143102  56.5694989  42.1850289 103.9726794
  56.6192993  42.0200296 104.9142317  56.4608912  41.3177548 103.5824675
  45.4531247  44.8638835  91.2618883  45.6019368  45.5474299  90.6085556
  46.2597691  44.8443925  91.7768339  53.8598751  38.1681217 105.2886101
  54.7608614  38.0287682 104.9970098  53.9346725  38.3335672 106.2284278
  48.1941556  35.5448072 104.1339287  47.3244866  35.8381638 103.8621875
  48.4301037  36.1288517 104.8546551  58.0713185  44.6047230 104.2168815
  57.7797994  44.9677211 105.0532276  57.4585317  43.8914239 104.0382147
  59.2708868  42.1700110  96.7371386  60.1055759  42.6089914  96.9008946
  59.4067996  41.6938763  95.9179631  56.3200374  39.7279845 102.6848873
  56.7954495  39.9207491 101.8767725  55.3965939  39.7839031 102.4392257
  43.2083880  40.8904012  92.2679952  42.9629922  39.9866342  92.4660162
  43.3779795  40.8921163  91.3259430  50.8980590  31.7627689 101.6504707
  51.4162534  32.4988715 101.3251196  50.5435723  32.0691682 102.4851466
  42.4779528  36.6232370  89.7666113  41.7848773  36.6976725  89.1106149
  42.2331280  35.8592713  90.2887630  51.1493184  28.1827971  97.1705604
  51.4294938  27.5151160  97.7966030  51.9343791  28.3757067  96.6580268
  48.9526653  47.3586965  88.7330630  48.3800620  47.9777152  88.2801102
  49.5259446  47.9086327  89.2670552  55.0202043  36.6045605 100.9177179
  55.9719466  36.7043703 100.9389403  54.8505493  35.8123874 101.4275263
  53.0416422  33.6901188 101.1036580  52.4466354  33.9706201 100.4083069
  52.7566119  34.1795089 101.8753321  52.1723913  47.6424115  89.8639212
  53.1054586  47.5769677  90.0672088  52.0847125  48.4780382  89.4053745
  54.8011929  46.9589985  86.8243160  54.7225561  46.6249849  87.7178918
  55.6221596  47.4511753  86.8234632  57.4990120  39.8251725 100.0319479
  57.4666441  38.8867725 100.2179162  58.1090744  39.9035761  99.2985304
  49.3373451  38.6947778  86.0746683  50.2832556  38.5653986  86.1435101
  48.9587696  37.9562440  86.5516111  57.6484609  36.6162768 100.0777762
  57.1323658  35.8321225  99.8907691  58.5324557  36.2881485 100.2424281
  55.3095336  30.3603784  96.0373575  55.1120157  30.0518872  96.9216906
  55.9195041  31.0865423  96.1671504  63.3166670  40.8867732  99.1725515
  64.0470059  40.6253020  99.7333219  62.7073616  40.1496454  99.2127583
  61.3981967  39.0275594  99.7699967  60.6715131  38.8931559  99.1616458
  60.9829254  39.3352423 100.5756685  49.2212144  42.7465524 107.5347340
  50.1415153  42.9244123 107.7287386  49.1861727  41.8021569 107.3827039
  47.5216368  36.6197754  86.0101568  46.6147824  36.3230867  86.0864282
  47.7992349  36.3227572  85.1435854  38.4394309  37.9404118  96.4600614
  38.1197093  37.0869426  96.1674988  37.8927737  38.1552696  97.2158582
  42.2174216  40.6566559 100.1770121  42.4360226  41.5883666 100.1958155
  42.6299990  40.2974533 100.9624925  49.1378434  31.1634644  92.1645809
  48.3279162  30.8181729  92.5401055  49.8262851  30.8542188  92.7533421
  51.0668982  30.2412691  93.7870106  51.6200021  30.6608144  94.4460129
  51.3039069  29.3148439  93.8293062  47.0902082  36.2299764 109.5672870
  46.9898809  37.1794121 109.4984961  46.8723624  35.9018003 108.6948940
  46.2915153  33.4784689  86.1513547  47.1534317  33.8039588  86.4109364
  46.4765497  32.6916185  85.6386613  38.3082569  41.5607029  98.4293736
  37.6146040  41.1460982  97.9163690  39.0555560  41.6027566  97.8327155
  54.4447790  32.3513216  93.2948770  53.8646459  33.0098020  92.9126823
  54.1783722  31.5290560  92.8836188  52.8951356  31.7518274  95.4970090
  53.3951134  31.8634808  94.6884409  53.5386964  31.4479326  96.1370899
  46.9533352  39.6596903 108.3837931  46.4700433  40.4597263 108.5901820
  47.0394291  39.6704848 107.4305375  40.2219311  41.4925283  96.3059751
  40.1989999  41.5912970  95.3541634  40.5319948  42.3390434  96.6276917
  42.8806689  43.5501438 100.4206365  43.8349943  43.5185380 100.3536297
  42.6819213  43.0892062 101.2356591  43.4706071  42.1202554 102.9877163
  44.2898960  42.6146633 103.0112000  43.7442879  41.2034522 102.9594730
  53.2272668  34.5113306  92.3505118  52.3398523  34.7962957  92.1325313
  53.6426657  34.3507070  91.5032395  56.5787204  34.5359827  96.0659458
  57.3547594  35.0256280  96.3384074  55.8535338  34.9617881  96.5231327
  59.0159762  35.2487446  97.1233398  59.6104253  35.0083182  96.4126706
  59.0886346  34.5294577  97.7506935  41.2356918  49.0921057  97.4376563
  41.1011386  48.3321458  96.8714561  40.8188980  49.8161957  96.9705352
  52.3715881  44.2757981  86.4453138  53.0751731  44.4807983  87.0610794
  51.6478530  44.8434743  86.7102222  53.2013691  40.0267842  92.5655409
  53.1448893  40.4836394  91.7263041  53.7542034  39.2658527  92.3878251
  57.0118497  35.8157574  93.3905528  56.7555431  35.4154210  94.2213736
  56.3871365  36.5301368  93.2655667  61.3230835  38.5553647  95.8976819
  60.7630393  38.6246837  96.6708381  60.7174338  38.3794632  95.1776316
  44.3926044  49.9890374  97.6495006  44.2758428  50.9335807  97.5473696
  43.5718490  49.6863936  98.0380805  54.2802578  44.7140510  88.4951598
  55.1148182  44.2821709  88.3129073  54.1186921  44.5422524  89.4228493
  53.9348471  41.2172623  89.8607938  53.8797274  41.0516895  88.9196382
  53.3094526  41.9248656  90.0170127  38.7240986  36.4540688 103.6869360
  39.3699849  35.9439642 104.1756585  38.5158137  37.1909369 104.2612785
  51.2494378  43.5221535 109.1861500  52.1185537  43.6962188 108.8248135
  50.7701129  44.3415952 109.0637230  47.2444596  30.7180732  89.4393256
  47.2323266  31.6622572  89.5961527  48.1368018  30.5350878  89.1452717
  45.4180558  50.6418636 100.8650934  46.3207805  50.6742246 101.1817429
  45.1917928  49.7119087 100.8797270  47.1734160  49.3949623  97.5261013
  46.2229791  49.3951484  97.4125385  47.4766646  48.6482357  97.0097047
  51.0596716  27.3123509  93.6939193  50.2929111  26.7581996  93.8395875
  51.4707420  27.3845378  94.5553345  43.0638477  33.6008305 107.7844374
  43.9269938  33.2445110 107.9947699  42.4903887  33.2622200 108.4719778
  65.3861969  46.6058422 101.0287570  65.0545294  47.4753833 100.8048785
  64.7907583  46.2894706 101.7081601  59.1218156  50.3453989  88.7617653
  59.2892558  51.2134226  89.1288124  58.9315325  50.5081271  87.8378942
  65.2790633  51.3253509  98.1080920  64.3707510  51.2568917  97.8139681
  65.2278229  51.8025453  98.9362746  52.6914782  54.9018039  97.2963977
  52.8207163  55.1552518  98.2103388  52.0112233  55.4945747  96.9768632
  67.1452279  49.5269947  99.8858794  66.5026659  49.8202480  99.2398589
  66.6407208  49.4122867 100.6911991  62.5863726  50.2934723 103.2420677
  62.3424658  51.0476784 102.7054952  62.8623656  50.6720071 104.0767924
  62.1428418  49.4491156  98.8234514  61.2812897  49.7472410  99.1151252
  62.1690852  49.6661555  97.8915547  51.6384207  52.3740052  97.3415019
  50.8483261  52.6297580  96.8655129  52.1295454  53.1888390  97.4467059
  49.9221910  52.6270542  99.7730010  50.1729948  53.5117552 100.0387586
  50.4581458  52.4475144  99.0005101  55.6219977  47.0089021 108.7774346
  55.2286923  46.4555220 109.4521990  56.4386118  47.3199600 109.1680863
  58.5387938  48.4246901 106.3694602  59.2797652  49.0254054 106.2899065
  58.7705861  47.6824538 105.8112645  62.4845101  44.4528003 100.6458884
  62.1409371  45.3429645 100.5697995  62.8524064  44.2629661  99.7828469
  60.0342495  49.2886315  94.2116557  59.1784091  48.8993166  94.0322196
  60.4469447  49.3678276  93.3516343  61.5641642  46.8232659  98.6108117
  61.0606437  46.7862794  97.7975922  61.8572249  47.7325401  98.6704774
  57.8084528  46.9071388  97.6174299  58.6737524  46.7114197  97.2580188
  57.8762036  46.6781740  98.5443656  62.2381687  52.3163707  90.9791100
  61.9331823  52.6309856  91.8301243  63.1912129  52.3945127  91.0218433
  55.4146847  49.1373596  94.9890666  55.9890599  48.9148778  94.2563859
  56.0017829  49.2062291  95.7419267  55.7416434  51.1678057  89.0086551
  54.9053746  51.5052744  89.3295826  55.6021203  51.0327037  88.0713688
  57.7169514  46.0114845  93.7165735  57.0633927  45.6963862  93.0922350
  57.6749988  45.3890586  94.4425558  60.9507255  52.4996779  98.0413383
  60.0329816  52.7211726  97.8835071  61.3667398  52.5743089  97.1825090
  64.1821140  50.9345311  95.1534852  63.4443896  50.4222697  95.4845095
  64.4347913  50.4945692  94.3418129  64.2832767  43.7121563  95.7476622
  64.5891644  42.8518926  95.4602537  65.0085372  44.3039183  95.5475616
  50.5757123  54.1152249  94.1358220  50.3781523  53.5221610  93.4109286
  50.0203787  53.8104459  94.8534158  55.9860281  50.1970771  99.6304427
  56.6259661  50.0559530  98.9327390  55.1537812  49.9105284  99.2543029
  52.9888898  50.1671096  94.4077413  53.2495715  51.0816429  94.2986574
  53.8106070  49.6995539  94.5574026  54.4613823  51.5808853 101.5776238
  55.1336877  51.3726215 100.9288887  53.6343610  51.3830939 101.1381470
  60.3639395  48.2070794 103.5941899  59.7167310  48.9060744 103.5006375
  61.1340411  48.6406938 103.9618147  54.8641320  54.8551456 102.3378675
  54.7261118  54.1231695 102.9390214  55.7746244  54.7660356 102.0562863
  56.2052555  51.5536633 103.6457994  55.6689912  51.1027372 104.2979590
  55.6169263  51.6882542 102.9028458  55.6154814  51.0125285  86.2084458
  54.7384280  50.8914086  85.8446704  56.0912567  50.2211363  85.9563346
  47.1356954  55.8002444  96.3025965  47.8227994  55.4864175  95.7146980
  46.9805083  56.7043809  96.0293216  51.9391676  50.6892641 100.7310989
  51.8549865  50.0818311  99.9961399  51.1174383  51.1801659 100.7320485
  62.1115390  49.1746205  96.0981184  62.6084090  48.4216167  95.7782254
  61.3402372  49.2110521  95.5324393  64.5534385  46.1415798  98.2460543
  63.6397465  46.3720025  98.4142749  64.9827486  46.2254242  99.0974575
  46.7124930  53.8803038  98.5743432  46.7509030  53.3466629  99.3680550
  46.2065223  53.3538243  97.9554409  54.0915693  48.7267578 102.0705974
  54.1557019  49.5882409 101.6583372  54.0282813  48.1141580 101.3378333
  53.5667965  50.7990711 105.7179009  54.1940004  50.4167788 106.3316533
  52.7095884  50.5804913 106.0834701  50.3433508  52.6067140  91.6497363
  50.6386949  51.6977818  91.5964417  49.4421544  52.5854879  91.3278366
  53.8727755  50.6823137  97.6324912  53.1514341  51.2959104  97.4932385
  54.6621011  51.2180901  97.5541558  56.6754068  48.0177563 103.9065564
  57.1988470  48.2639860 104.6691873  56.4566402  48.8497598 103.4868701
  52.0721349  50.2881238  91.7736689  51.7434056  49.4078617  91.5911795
  52.4260720  50.2328906  92.6613078  57.8806613  48.9591258 101.5915234
  57.5403434  48.1599071 101.9935914  57.1745620  49.2592969 101.0192068
  58.5323085  46.0440571 100.0442557  59.3549155  45.5701049  99.9221448
  58.7761149  46.8231054 100.5441244  57.1731320  49.0728829  90.3405459
  57.8939682  49.4510082  89.8369176  56.5496624  49.7917706  90.4440437
  61.3162443  49.7773978  91.2763791  61.5326057  50.6598616  90.9752620
  60.8356510  49.3860191  90.5469433  57.9158047  49.7262239  97.9015426
  57.9019616  48.8303333  97.5647723  58.6330475  49.7332903  98.5353712
  59.7684178  50.1599579  99.9468553  59.5101955  51.0816650  99.9452883
  59.2369218  49.7630014 100.6369017  57.3194943  48.6076620  93.1702996
  57.4410854  47.6793266  93.3693883  57.0296985  48.6215305  92.2581311
  60.1886133  46.2931530  96.3069715  60.2107830  46.3570863  95.3521695
  60.6054192  45.4536039  96.5010222  56.8036022  50.1208617 107.3792928
  56.8524178  50.9970740 106.9970698  57.3458537  49.5786010 106.8064571
  61.7374345  47.0919606 101.6504707  62.2556288  47.8280633 101.3251196
  61.3829477  47.3983600 102.4851466  53.3173282  51.9524287  89.7666113
  52.6242527  52.0268642  89.1106149  53.0725034  51.1884631  90.2887630
  61.9886939  43.5119889  97.1705604  62.2688693  42.8443078  97.7966030
  62.7737546  43.7048984  96.6580268  63.8810177  49.0193106 101.1036580
  63.2860109  49.2998119 100.4083069  63.5959873  49.5087007 101.8753321
  66.1489090  45.6895701  96.0373575  65.9513911  45.3810790  96.9216906
  66.7588796  46.4157340  96.1671504  58.3610123  51.9489672  86.0101568
  57.4541578  51.6522785  86.0864282  58.6386104  51.6519490  85.1435854
  49.2788063  53.2696035  96.4600614  48.9590848  52.4161343  96.1674988
  48.7321491  53.4844613  97.2158582  59.9772189  46.4926562  92.1645809
  59.1672917  46.1473646  92.5401055  60.6656606  46.1834105  92.7533421
  61.9062737  45.5704608  93.7870106  62.4593776  45.9900062  94.4460129
  62.1432823  44.6440356  93.8293062  57.1308908  48.8076607  86.1513547
  57.9928072  49.1331505  86.4109364  57.3159252  48.0208103  85.6386613
  65.2841544  47.6805133  93.2948770  64.7040213  48.3389938  92.9126823
  65.0177477  46.8582478  92.8836188  63.7345110  47.0810191  95.4970090
  64.2344889  47.1926726  94.6884409  64.3780718  46.7771244  96.1370899
  64.0666422  49.8405224  92.3505118  63.1792277  50.1254874  92.1325313
  64.4820411  49.6798987  91.5032395  67.4180958  49.8651745  96.0659458
  68.1941348  50.3548197  96.3384074  66.6929092  50.2909799  96.5231327
  69.8553517  50.5779364  97.1233398  70.4498008  50.3375100  96.4126706
  69.9280100  49.8586495  97.7506935  67.8512252  51.1449492  93.3905528
  67.5949186  50.7446127  94.2213736  67.2265120  51.8593286  93.2655667
  49.5634740  51.7832605 103.6869360  50.2093604  51.2731559 104.1756585
  49.3551891  52.5201287 104.2612785  58.0838351  46.0472650  89.4393256
  58.0717020  46.9914490  89.5961527  58.9761772  45.8642795  89.1452717
  61.8990470  42.6415427  93.6939193  61.1322866  42.0873913  93.8395875
  62.3101175  42.7137295  94.5553345  53.9032231  48.9300222 107.7844374
  54.7663693  48.5737027 107.9947699  53.3297642  48.5914117 108.4719778
  78.1245012  74.5205294  95.3202599  77.4396050  74.9004195  94.7699632
  78.2088861  75.1300621  96.0534547  84.5847764  71.3875957  96.4405271
  83.8311473  70.8183355  96.2849276  84.7195305  71.3538621  97.3875906
  79.5496839  73.6504821 101.0951571  79.7432729  74.5550632 101.3410846
  79.4497457  73.1912240 101.9290156  75.5524121  78.5942284  92.7258638
  75.7260998  78.0288707  91.9732491  76.0453012  79.3943179  92.5438128
  78.1284622  75.9941658 106.6594065  77.3380166  75.9765797 106.1198565
  77.8917977  76.5329952 107.4143102  78.2482498  72.8434124 103.9726794
  78.2980502  72.6784132 104.9142317  78.1396421  71.9761383 103.5824675
  79.7500694  75.2631066 104.2168815  79.4585503  75.6261046 105.0532276
  79.1372826  74.5498074 104.0382147  80.9496377  72.8283945  96.7371386
  81.7843268  73.2673750  96.9008946  81.0855505  72.3522599  95.9179631
  77.9987883  70.3863680 102.6848873  78.4742004  70.5791327 101.8767725
  77.0753448  70.4422866 102.4392257  70.6314162  78.0170800  88.7330630
  70.0588129  78.6360987  88.2801102  71.2046955  78.5670162  89.2670552
  79.1777629  70.4835560 100.0319479  79.1453949  69.5451561 100.2179162
  79.7878253  70.5619597  99.2985304  84.9954179  71.5451567  99.1725515
  85.7257568  71.2836855  99.7333219  84.3861125  70.8080289  99.2127583
  84.1415631  83.6145450  95.6659983  84.9278720  83.1964874  95.3150400
  84.4054335  84.5191543  95.8341632  89.5424058  83.5520684  96.5692962
  90.2749230  82.9819900  96.8030791  88.7863414  83.1642284  97.0099467
  87.0649478  77.2642258 101.0287570  86.7332803  78.1337669 100.8048785
  86.4695092  76.9478542 101.7081601  86.9578142  81.9837344  98.1080920
  86.0495019  81.9152752  97.8139681  86.9065738  82.4609289  98.9362746
  88.8239788  80.1853782  99.8858794  88.1814168  80.4786315  99.2398589
  88.3194717  80.0706703 100.6911991  81.1151790  83.2914190 101.5839503
  81.9612985  83.7153604 101.7274152  81.0550427  82.6347814 102.2778066
  84.2651235  80.9518558 103.2420677  84.0212167  81.7060619 102.7054952
  84.5411165  81.3303906 104.0767924  83.8215927  80.1074991  98.8234514
  82.9600406  80.4056245  99.1151252  83.8478361  80.3245390  97.8915547
  80.2175447  79.0830736 106.3694602  80.9585161  79.6837889 106.2899065
  80.4493370  78.3408374 105.8112645  84.5389861  92.4907643 104.2741734
  84.5208336  93.3116524 103.7822003  85.4609781  92.3661719 104.4991875
  84.1632610  75.1111839 100.6458884  83.8196880  76.0013481 100.5697995
  84.5311573  74.9213496  99.7828469  81.7130004  79.9470151  94.2116557
  80.8571600  79.5577001  94.0322196  82.1256956  80.0262112  93.3516343
  83.2429151  77.4816494  98.6108117  82.7393946  77.4446629  97.7975922
  83.5359758  78.3909237  98.6704774  79.4872037  77.5655224  97.6174299
  80.3525033  77.3698032  97.2580188  79.5549545  77.3365575  98.5443656
  77.0934356  79.7957432  94.9890666  77.6678108  79.5732613  94.2563859
  77.6805338  79.8646126  95.7419267  86.1513933  85.6831159  95.7955042
  86.6645815  86.3161150  96.2976752  86.8015157  85.0832354  95.4298402
  79.3957023  76.6698681  93.7165735  78.7421436  76.3547698  93.0922350
  79.3537497  76.0474421  94.4425558  82.6294764  83.1580614  98.0413383
  81.7117325  83.3795561  97.8835071  83.0454907  83.2326925  97.1825090
  85.8608649  81.5929146  95.1534852  85.1231405  81.0806532  95.4845095
  86.1135422  81.1529528  94.3418129  85.9620276  74.3705398  95.7476622
  86.2679153  73.5102761  95.4602537  86.6872881  74.9623018  95.5475616
  78.1733716  83.2836251  94.0143192  77.3601581  83.5830421  94.4208384
  78.6692710  82.8891940  94.7317674  83.7707927  83.7478075 102.8458085
  84.1257315  83.9749548 103.7052551  84.4180058  84.0796452 102.2235341
  74.6676407  80.8254931  94.4077413  74.9283224  81.7400265  94.2986574
  75.4893579  80.3579374  94.5574026  90.3890593  88.9796739 101.0951571
  90.5826483  89.8842549 101.3410846  90.2891212  88.5204158 101.9290156
  82.0426904  78.8654629 103.5941899  81.3954819  79.5644579 103.5006375
  82.8127920  79.2990773 103.9618147  87.1597909  92.1622604 104.7468934
  87.1010455  91.4781824 104.0799517  87.5617427  92.9041594 104.2949560
  83.7902899  79.8330040  96.0981184  84.2871599  79.0800002  95.7782254
  83.0189881  79.8694357  95.5324393  80.3737868  81.9747423  95.8252868
  80.0035655  81.4218463  96.5133774  80.8696960  81.3705556  95.2727868
  86.2321894  76.7999633  98.2460543  85.3184974  77.0303860  98.4142749
  86.6614995  76.8838077  99.0974575  85.6449583  91.8637521 107.3232744
  86.1889487  92.4767480 106.8287699  85.0636427  92.4217100 107.8399757
  78.3541577  78.6761398 103.9065564  78.8775979  78.9223695 104.6691873
  78.1353911  79.5081433 103.4868701  73.7508858  80.9465073  91.7736689
  73.4221565  80.0662452  91.5911795  74.1048229  80.8912742  92.6613078
  76.8650682  81.2338043  92.1412166  77.2046754  81.7623964  91.4190775
  77.3122802  81.5718449  92.9170733  79.5594122  79.6175094 101.5915234
  79.2190943  78.8182907 101.9935914  78.8533129  79.9176804 101.0192068
  80.2110594  76.7024406 100.0442557  81.0336663  76.2284884  99.9221448
  80.4548658  77.4814890 100.5441244  79.5945556  80.3846075  97.9015426
  79.5807125  79.4887168  97.5647723  80.3117984  80.3916738  98.5353712
  81.4471687  80.8183415  99.9468553  81.1889464  81.7400485  99.9452883
  80.9156727  80.4213849 100.6369017  78.9982452  79.2660455  93.1702996
  79.1198363  78.3377101  93.3693883  78.7084494  79.2799141  92.2581311
  81.8673642  76.9515365  96.3069715  81.8895339  77.0154698  95.3521695
  82.2841701  76.1119874  96.5010222  88.9678377  91.3233575 106.6594065
  88.1773921  91.3057714 106.1198565  88.7311732  91.8621869 107.4143102
  80.7122820  81.5323825 104.1339287  79.8426129  81.8257391 103.8621875
  80.9482300  82.1164270 104.8546551  90.5894449  90.5922983 104.2168815
  90.2979257  90.9552964 105.0532276  89.9766580  89.8789992 104.0382147
  83.4161854  77.7503442 101.6504707  83.9343797  78.4864468 101.3251196
  83.0616986  78.0567435 102.4851466  74.9960791  82.6108123  89.7666113
  74.3030036  82.6852478  89.1106149  74.7512543  81.8468466  90.2887630
  83.6674448  74.1703724  97.1705604  83.9476202  73.5026913  97.7966030
  84.4525055  74.3632820  96.6580268  87.5383306  82.5921358 100.9177179
  88.4900729  82.6919456 100.9389403  87.3686757  81.7999627 101.4275263
  85.5597686  79.6776941 101.1036580  84.9647618  79.9581954 100.4083069
  85.2747382  80.1670842 101.8753321  90.0171384  85.8127478 100.0319479
  89.9847704  84.8743479 100.2179162  90.6272008  85.8911514  99.2985304
  90.1665872  82.6038521 100.0777762  89.6504921  81.8196978  99.8907691
  91.0505821  82.2757238 100.2424281  87.8276599  76.3479537  96.0373575
  87.6301420  76.0394625  96.9216906  88.4376305  77.0741176  96.1671504
  95.8347934  86.8743485  99.1725515  96.5651322  86.6128773  99.7333219
  95.2254879  86.1372207  99.2127583  93.9163231  85.0151347  99.7699967
  93.1896394  84.8807312  99.1616458  93.5010518  85.3228176 100.5756685
  81.6559698  77.1510397  92.1645809  80.8460426  76.8057482  92.5401055
  82.3444115  76.8417941  92.7533421  83.5850246  76.2288444  93.7870106
  84.1381285  76.6483897  94.4460129  83.8220332  75.3024192  93.8293062
  85.4132619  77.7394027  95.4970090  85.9132398  77.8510561  94.6884409
  86.0568227  77.4355079  96.1370899  89.0968467  80.5235580  96.0659458
  89.8728857  81.0132033  96.3384074  88.3716601  80.9493634  96.5231327
  91.5341026  81.2363199  97.1233398  92.1285517  80.9958935  96.4126706
  91.6067609  80.5170330  97.7506935  95.4268117 101.2185914  98.5906775
  96.0646527 101.0992662  97.8870115  95.3088960 102.1666758  98.6494727
  92.2357823 101.1713342  98.5268300  91.8976335 101.0554407  97.6388835
  93.1047591 100.7704507  98.5069306  92.7177606 102.3248194 104.4854505
  92.7066247 101.9300992 103.6135009  92.8798246 101.5914267 105.0788277
  85.6409071 104.5200010  97.3549411  86.4330363 104.1790835  96.9395711
  85.8805721 104.6294985  98.2751565  89.4384867 105.1085306 103.4333689
  89.1474733 106.0130937 103.3180356  90.0741852 105.1501833 104.1477759
  90.3641074 102.4862154 100.0235049  90.9604646 102.2618177  99.3092012
  90.4216046 101.7446900 100.6260497  94.9809385  98.9437368  95.6659983
  95.7672475  98.5256791  95.3150400  95.2448090  99.8483460  95.8341632
  95.1519463 104.3810218  90.3648640  94.5165296 104.4544845  91.0769545
  94.8216869 104.9703817  89.6867719 100.3817813  98.8812601  96.5692962
 101.1142985  98.3111818  96.8030791  99.6257168  98.4934202  97.0099467
  91.9993932 101.3039843  93.7656304  91.6352140 100.7770464  94.4769226
  92.8561048 100.9138312  93.5922790  97.9043233  92.5934175 101.0287570
  97.5726558  93.4629586 100.8048785  97.3088846  92.2770459 101.7081601
  94.3974752 104.7946721 100.4283483  94.0975476 105.6971760 100.3199290
  94.0525812 104.5278905 101.2804636  87.8487234 101.2460518  96.4620187
  86.9237730 101.1136732  96.6697879  88.0971647 102.0254737  96.9590130
  97.7971896  97.3129262  98.1080920  96.8888774  97.2444670  97.8139681
  97.7459492  97.7901206  98.9362746  85.2096045 100.8893792  97.2963977
  85.3388426 101.1428271  98.2103388  84.5293496 101.4821500  96.9768632
  89.3795532 111.5591042  93.3954451  89.3019562 112.5098867  93.4742931
  88.7757176 111.2136914  94.0529377  91.8712762  98.7318907 106.0515818
  91.0946096  99.2912827 106.0418682  92.5103325  99.2175690 106.5730688
  99.6633543  95.5145700  99.8858794  99.0207923  95.8078233  99.2398589
  99.1588471  95.3998620 100.6911991  97.3173706  99.2608873  90.5744654
  98.2291562  99.4936260  90.3992351  96.8083353  99.8445917  90.0119732
  90.1259134 101.5404360 105.6133785  90.8673819 102.0789404 105.3368608
  89.4196120 102.1670649 105.7705336  95.6014474 103.6833501 104.2105946
  96.0097830 103.2415911 103.4660578  94.8791735 103.1086128 104.4640139
  91.9545544  98.6206108 101.5839503  92.8006739  99.0445521 101.7274152
  91.8944182  97.9639732 102.2778066  95.9243289 104.2434692  97.9658235
  95.2952151 104.4080406  97.2634303  95.5368951 104.6576301  98.7369199
  99.8032521 105.1789129  95.3202599  99.1183559 105.5588031  94.7699632
  99.8876370 105.7884456  96.0534547  95.1044989  96.2810476 103.2420677
  94.8605921  97.0352537 102.7054952  95.3804920  96.6595824 104.0767924
  97.0583452 102.8249088 101.9197942  97.2700347 103.4680848 101.2432323
  97.0113200 101.9911405 101.4519872  94.6609681  95.4366909  98.8234514
  93.7994160  95.7348163  99.1151252  94.6872116  95.6537308  97.8915547
  88.3695332 103.5280581  98.1688083  88.9396689 103.9567850  97.5305568
  88.9603443 103.2463166  98.8672269  88.8620498  98.6944009 106.4149095
  88.2319159  99.3760290 106.6484491  88.7556586  98.5827090 105.4702233
  98.1729280 105.7021044 100.0920300  98.9946724 105.3001231  99.8102981
  98.1691683 105.5989278 101.0436415  91.9385884 105.2505087 102.2481010
  92.0030316 105.7125494 103.0839182  91.2296807 104.6202452 102.3763320
 106.2635273 102.0459792  96.4405271 105.5098982 101.4767190  96.2849276
 106.3982814 102.0122457  97.3875906  88.1401241  92.9964774 108.7774346
  87.7468186  92.4430973 109.4521990  88.9567381  93.3075353 109.1680863
  86.9158183 107.5514389  94.7710669  87.0924812 108.4732354  94.5831653
  87.7115017 107.2372808  95.2005049  91.0569202  94.4122654 106.3694602
  91.7978915  95.0129807 106.2899065  91.2887125  93.6700291 105.8112645
  86.2010540  99.5979021 104.6472832  86.0864055  98.6964278 104.9479931
  85.3455058  99.8442718 104.2957648  93.2802378 107.5396761 106.2460333
  92.8366232 106.7533140 105.9281237  93.9419591 107.7275912 105.5804223
  88.0389499 109.0692563 100.7721011  88.5896924 108.9409626  99.9998005
  87.2000975 109.3687452 100.4215904  95.3783616 107.8199561 104.2741734
  95.3602091 108.6408442 103.7822003  96.3003536 107.6953636 104.4991875
  91.8356670 105.3343691 105.1165242  92.3685007 104.5731979 104.8864550
  91.3070751 105.0417342 105.8589397  95.0026365  90.4403757 100.6458884
  94.6590634  91.3305398 100.5697995  95.3705327  90.2505414  99.7828469
  94.9676647 100.4312368  89.1531319  94.4523271 101.2016972  89.3919706
  94.6953956  99.7577504  89.7764381  92.5523759  95.2762068  94.2116557
  91.6965355  94.8868919  94.0322196  92.9650710  95.3554029  93.3516343
  94.0822905  92.8108412  98.6108117  93.5787701  92.7738547  97.7975922
  94.3753512  93.7201154  98.6704774  99.9410922 103.1844722  91.0884493
  99.1640364 102.8455882  90.6439655 100.6202403 103.1897345  90.4139458
  94.7562951  98.3039460  90.9791100  94.4513086  98.6185609  91.8301243
  95.7093393  98.3820880  91.0218433  98.1802229 102.6578704  97.7451101
  97.5225903 103.3477965  97.8331229  98.9842628 103.0475135  98.0885087
  96.9907687 101.0123076  95.7955042  97.5039569 101.6453068  96.2976752
  97.6408911 100.4124272  95.4298402  94.2530062 110.9907400  88.5515713
  93.5791760 111.2939097  89.1600671  94.6395884 111.7936481  88.2021170
  93.4688518  98.4872532  98.0413383  92.5511080  98.7087479  97.8835071
  93.8848662  98.5618842  97.1825090  94.2523566  99.8863947  93.1716063
  94.9995385 100.3985345  92.8623185  94.5215155  99.5648000  94.0320457
  97.7569484 105.9929078  93.9234185  97.3031811 105.1519988  93.9799375
  97.1263450 106.6290476  94.2608965  96.7002403  96.9221064  95.1534852
  95.9625160  96.4098450  95.4845095  96.9529177  96.4821445  94.3418129
  96.2002423 107.8305574  94.8584003  96.4925397 108.3910631  94.1396369
  96.7101043 108.1234135  95.6137162  96.8014030  89.6997316  95.7476622
  97.1072907  88.8394679  95.4602537  97.5266635  90.2914936  95.5475616
  91.0735110  99.9951109  96.2552813  91.1283720  99.0424945  96.1795289
  90.2626312 100.1510548  96.7394111  91.1636048 108.6085925  95.9477456
  91.1212227 108.8346772  95.0185988  92.0798747 108.3749300  96.0963257
  94.6101682  99.0769993 102.8458085  94.9651069  99.3041466 103.7052551
  95.2573813  99.4088370 102.2235341 100.3399419 102.1988429  93.5507414
 100.2017317 102.3890025  92.6228604  99.9835638 102.9607812  94.0075466
 100.3668798 104.2664956  98.5618686 100.8005305 104.1740245  99.4101740
 101.0800379 104.2422456  97.9238702  89.2801849 105.4848954  95.7439419
  90.0742447 104.9899275  95.5421994  88.5693541 104.9566818  95.3807125
  94.0996693 107.8667050 100.0951787  94.1533715 108.4357986 100.8629502
  93.2311475 108.0368935  99.7305824 101.2284348 104.3088657 101.0951571
 101.4220238 105.2134467 101.3410846 101.1284966 103.8496076 101.9290156
  92.8820659  94.1946547 103.5941899  92.2348574  94.8936497 103.5006375
  93.6521674  94.6282691 103.9618147  96.2899457 104.4595399 106.6692452
  96.1384963 104.2305951 105.7522536  96.2804136 105.4166001 106.6823797
  93.0584793 102.0327312 101.6538718  93.9876853 102.1838472 101.4807686
  92.6375823 102.1211333 100.7987365  91.8573125 106.0577976  99.4237256
  91.7184210 105.6896761 100.2963194  91.0687721 106.5725616  99.2521214
  92.4521277 111.1587073  90.7662793  92.6273032 110.6875116  91.5808415
  91.7654065 111.7852839  90.9944053  93.4078340 105.4359579  96.8126094
  93.0728172 105.3960349  97.7083744  92.9082286 104.7704295  96.3396504
  87.3822584 100.8427209 102.3378675  87.2442382 100.1107448 102.9390214
  88.2927507 100.7536109 102.0562863  96.3437532 102.7815613  87.0863154
  95.7266702 102.0562442  86.9896206  95.8754020 103.5424974  86.7430228
  90.0104884 100.5547169 101.8262355  90.7204503  99.9140361 101.7848973
  89.9674193 100.8060063 102.7488535  97.9991663 107.4914522 104.7468934
  97.9404209 106.8073742 104.0799517  98.4011182 108.2333512 104.2949560
  87.0182362 114.3076436  97.5402653  87.2578960 114.9394960  98.2181671
  86.1751558 113.9564476  97.8268012  98.0009070 105.4554106 102.9782914
  97.1135849 105.1180028 103.1009312  98.5707622 104.7237137 103.2151679
  91.5310224 110.1155558  99.9444157  91.4580395 110.9210530 100.4563461
  91.0887617 110.3147524  99.1192178  91.3200003 109.3527328  93.4546978
  90.5367525 109.8949008  93.5485203  92.0192749 109.8701308  93.8541219
  94.6296654  95.1621958  96.0981184  95.1265353  94.4091920  95.7782254
  93.8583635  95.1986274  95.5324393 102.4826411 100.8662323  97.7399475
 102.4716287 101.7487039  97.3693408 101.6143790 100.5133874  97.5454012
  93.9908907 110.0142392 102.1002315  94.7036880 110.6489857 102.0278217
  93.4998936 110.1106258 101.2842317  95.7126434 103.9193645  93.6719607
  94.7782713 104.0395107  93.5024311  95.8903103 103.0166112  93.4079617
  91.2131622  97.3039341  95.8252868  90.8429410  96.7510381  96.5133774
  91.7090715  96.6997474  95.2727868  99.0998986  99.7610964  94.2069641
  99.5659438 100.5938956  94.1329944  99.5506486  99.2955946  94.9114900
  89.0420821 107.7636836 102.9207886  89.7430280 108.3973319 103.0737280
  88.5715936 108.1051567 102.1603525  97.1675217 106.1054785  91.2055793
  97.4435061 105.9911380  92.1149667  96.2979715 105.7072270  91.1667966
  97.0715648  92.1291551  98.2460543  96.1578728  92.3595778  98.4142749
  97.5008750  92.2129995  99.0974575  96.8422107 100.3181443 100.7460437
  96.1893557 100.5657351 100.0912889  97.2202487  99.5045581 100.4122914
  93.8029281 110.3541136  94.8488607  93.9851675 109.5362792  95.3116359
  94.6262267 110.5708829  94.4113497  94.1371446 109.2809321  92.1103655
  94.6659213 108.7701776  91.4973817  94.3999666 108.9651852  92.9749188
  92.8909680 101.0601254 107.2326474  92.2150317 100.9595383 107.9028849
  93.7137314 100.9040468 107.6962471  84.6388539 107.2973191  99.8538989
  85.2241976 106.5516879  99.9866893  84.4413377 107.6077147 100.7375653
  87.4927194 110.3324438  94.8701431  86.8237569 110.8170566  94.3865471
  87.3540064 110.5793659  95.7844810  91.6332463 112.3668182 101.4684090
  92.1850771 112.5299803 102.2333175  91.9738656 112.9572619 100.7964114
  96.4843337 107.1929439 107.3232744  97.0283241 107.8059397 106.8287699
  95.9030182 107.7509018 107.8399757  94.7700850 110.3150157  98.4547772
  94.6451989 109.5139897  97.9458717  95.4279941 110.8096350  97.9661742
  96.8335758 108.1159177 100.0827322  95.8866094 107.9964528 100.0105649
  97.1818532 107.2281675 100.1653583  89.1935332  94.0053316 103.9065564
  89.7169734  94.2515613 104.6691873  88.9747665  94.8373351 103.4868701
  93.8382192 107.9111893  96.2831674  93.6907154 106.9828601  96.4639244
  94.6635685 107.9331984  95.7988749  97.4416314 108.7340452  97.3696547
  98.3662861 108.5283313  97.2320998  97.2731617 108.4856853  98.2785888
  90.3987877  94.9467011 101.5915234  90.0584697  94.1474824 101.9935914
  89.6926883  95.2468722 101.0192068  88.5742927  98.7235444  97.8534536
  88.4287508  99.0375747  98.7458817  88.0968131  99.3420345  97.3005435
  92.2865441  96.1475332  99.9468553  92.0283219  97.0692403  99.9452883
  91.7550481  95.7505767 100.6369017  97.2311630 109.2526120  92.7258638
  97.4048507 108.6872542  91.9732491  97.7240521 110.0527014  92.5438128
  83.0488590 101.2640789 100.7922197  82.5042058 102.0400597 100.9242471
  83.9267939 101.6111593 100.6341319  89.8376206  94.5952373  93.1702996
  89.9592117  93.6669019  93.3693883  89.5478249  94.6091059  92.2581311
  92.7067397  92.2807283  96.3069715  92.7289093  92.3446616  95.3521695
  93.1235456  91.4411792  96.5010222 103.0851021 102.0162543  94.3448938
 103.5282167 101.2669868  93.9468061 102.2077531 102.0072679  93.9622670
  98.2186802 108.5692884  89.8255537  98.9137707 109.1899577  90.0442851
  98.5609952 107.7188235  90.1007914  83.8354611 100.3910685 103.6852354
  83.0936347 100.5393320 104.2716984  83.5147356 100.6518951 102.8219103
 100.1178225 106.0192590  91.3542867 100.6429549 106.3579862  90.6292187
 100.0300578 105.0839605  91.1706002  91.7798274 109.9326663 103.4832744
  92.0885401 109.6875810 104.3555444  92.5773756 110.1373302 102.9951614
  91.8018886 112.0864573  95.7138121  91.3623876 111.5940951  96.4070977
  92.5527003 111.5437540  95.4730196  84.2811225 108.2776114  95.7162749
  85.1069245 107.9779886  95.3361392  83.9305277 107.5083736  96.1652537
  89.2492758 107.6302582  97.7860422  88.6272768 106.9673287  97.4862650
  89.9197625 107.6563714  97.1034070  82.4819830 106.1962440  96.6751682
  81.6451738 105.7684614  96.4935683  82.4543476 106.3894883  97.6122473
  89.3217286  96.1084370 107.3792928  89.3705441  96.9846493 106.9970698
  89.8639800  95.5661763 106.8064571  99.8072131 106.6525493 106.6594065
  99.0167675 106.6349632 106.1198565  99.5705486 107.1913787 107.4143102
  99.9270007 103.5017960 103.9726794  99.9768011 103.3367967 104.9142317
  99.8183930 102.6345219 103.5824675  97.2173769  99.4848888 105.2886101
  98.1183632  99.3455352 104.9970098  97.2921743  99.6503342 106.2284278
  91.5516574  96.8615742 104.1339287  90.6819884  97.1549308 103.8621875
  91.7876055  97.4456187 104.8546551 101.4288203 105.9214901 104.2168815
 101.1373012 106.2844882 105.0532276 100.8160335 105.2081909 104.0382147
 102.6283886 103.4867781  96.7371386 103.4630777 103.9257585  96.9008946
 102.7643014 103.0106434  95.9179631  99.6775392 101.0447516 102.6848873
 100.1529513 101.2375162 101.8767725  98.7540957 101.1006702 102.4392257
  94.2555608  93.0795359 101.6504707  94.7737552  93.8156386 101.3251196
  93.9010741  93.3859353 102.4851466  94.5068202  89.4995642  97.1705604
  94.7869956  88.8318831  97.7966030  95.2918809  89.6924737  96.6580268
  92.3101671 108.6754636  88.7330630  91.7375638 109.2944823  88.2801102
  92.8834464 109.2253997  89.2670552  98.3777061  97.9213276 100.9177179
  99.3294483  98.0211373 100.9389403  98.2080511  97.1291544 101.4275263
  96.3991440  95.0068859 101.1036580  95.8041372  95.2873872 100.4083069
  96.1141137  95.4962760 101.8753321  95.5298931 108.9591786  89.8639212
  96.4629604 108.8937347  90.0672088  95.4422143 109.7948053  89.4053745
  98.1586947 108.2757656  86.8243160  98.0800579 107.9417520  87.7178918
  98.9796614 108.7679424  86.8234632 100.8565138 101.1419395 100.0319479
 100.8241458 100.2035396 100.2179162 101.4665762 101.2203432  99.2985304
  92.6948469 100.0115448  86.0746683  93.6407574  99.8821657  86.1435101
  92.3162714  99.2730110  86.5516111 101.0059627  97.9330439 100.0777762
 100.4898675  97.1488896  99.8907691 101.8899575  97.6049156 100.2424281
  98.6670354  91.6771454  96.0373575  98.4695175  91.3686543  96.9216906
  99.2770059  92.4033093  96.1671504 106.6741688 102.2035402  99.1725515
 107.4045077 101.9420690  99.7333219 106.0648634 101.4664124  99.2127583
 104.7556985 100.3443265  99.7699967 104.0290149 100.2099230  99.1616458
 104.3404272 100.6520093 100.5756685  92.5787162 104.0633195 107.5347340
  93.4990171 104.2411794 107.7287386  92.5436745 103.1189240 107.3827039
  85.5749234 101.9734229 100.1770121  85.7935244 102.9051337 100.1958155
  85.9875008 101.6142204 100.9624925  94.4244000  91.5580361  93.7870106
  94.9775039  91.9775815  94.4460129  94.6614087  90.6316109  93.8293062
  90.4477100  97.5467435 109.5672870  90.3473827  98.4961792 109.4984961
  90.2298642  97.2185674 108.6948940  97.8022807  93.6680886  93.2948770
  97.2221477  94.3265691  92.9126823  97.5358740  92.8458231  92.8836188
  96.2526374  93.0685944  95.4970090  96.7526152  93.1802479  94.6884409
  96.8961982  92.7646997  96.1370899  90.3108370 100.9764574 108.3837931
  89.8275451 101.7764934 108.5901820  90.3969309 100.9872519 107.4305375
  86.2381707 104.8669109 100.4206365  87.1924961 104.8353051 100.3536297
  86.0394231 104.4059732 101.2356591  86.8281089 103.4370225 102.9877163
  87.6473978 103.9314303 103.0112000  87.1017897 102.5202193 102.9594730
  96.5847685  95.8280977  92.3505118  95.6973541  96.1130628  92.1325313
  97.0001675  95.6674740  91.5032395  99.9362222  95.8527498  96.0659458
 100.7122612  96.3423950  96.3384074  99.2110356  96.2785552  96.5231327
 102.3734780  96.5655117  97.1233398 102.9679271  96.3250853  96.4126706
 102.4461364  95.8462248  97.7506935  84.5931936 110.4088728  97.4376563
  84.4586404 109.6489129  96.8714561  84.1763998 111.1329628  96.9705352
  95.7290899 105.5925652  86.4453138  96.4326749 105.7975654  87.0610794
  95.0053548 106.1602413  86.7102222  96.5588709 101.3435513  92.5655409
  96.5023911 101.8004064  91.7263041  97.1117052 100.5826197  92.3878251
 100.3693515  97.1325245  93.3905528 100.1130449  96.7321880  94.2213736
  99.7446383  97.8469039  93.2655667 104.6805853  99.8721318  95.8976819
 104.1205411  99.9414507  96.6708381 104.0749356  99.6962303  95.1776316
  87.7501062 111.3058045  97.6495006  87.6333446 112.2503478  97.5473696
  86.9293508 111.0031607  98.0380805  97.6377596 106.0308181  88.4951598
  98.4723200 105.5989379  88.3129073  97.4761939 105.8590194  89.4228493
  97.2923489 102.5340294  89.8607938  97.2372292 102.3684565  88.9196382
  96.6669544 103.2416327  90.0170127  94.6069396 104.8389206 109.1861500
  95.4760555 105.0129858 108.8248135  94.1276147 105.6583623 109.0637230
  88.7755576 111.9586307 100.8650934  89.6782823 111.9909917 101.1817429
  88.5492946 111.0286758 100.8797270  90.5309178 110.7117293  97.5261013
  89.5804809 110.7119155  97.4125385  90.8341664 109.9650028  97.0097047
  86.4213495  94.9175976 107.7844374  87.2844956  94.5612780 107.9947699
  85.8478905  94.5789870 108.4719778 106.2661871 116.5477832  98.5906775
 106.9040281 116.4284579  97.8870115 106.1482714 117.4958676  98.6494727
 103.0751578 116.5005260  98.5268300 102.7370089 116.3846325  97.6388835
 103.9441346 116.0996425  98.5069306  98.9338393 118.3540736  94.5165191
  98.3703259 118.2630673  93.7481479  98.8190788 117.5340641  94.9967683
 103.5571361 117.6540112 104.4854505 103.5460001 117.2592910 103.6135009
 103.7192000 116.9206184 105.0788277  96.4802825 119.8491928  97.3549411
  97.2724117 119.5082753  96.9395711  96.7199476 119.9586903  98.2751565
 104.5137952 122.0211704  89.8279656 103.8625932 122.6065784  89.4413670
 105.3082315 122.5517899  89.8874693  98.4393579 119.1100841  90.2266790
  99.2124455 118.5629828  90.0879666  98.7918978 119.9745091  90.4381251
 100.2778622 120.4377223 103.4333689  99.9868488 121.3422854 103.3180356
 100.9135606 120.4793751 104.1477759 101.2034829 117.8154072 100.0235049
 101.7998401 117.5910094  99.3092012 101.2609800 117.0738817 100.6260497
 100.7759857 115.2693507  87.8585240 101.0285378 114.7475029  87.0968703
  99.8384416 115.1059653  87.9611924 105.8203140 114.2729286  95.6659983
 106.6066229 113.8548709  95.3150400 106.0841844 115.1775378  95.8341632
 105.9913217 119.7102136  90.3648640 105.3559050 119.7836763  91.0769545
 105.6610624 120.2995735  89.6867719 111.2211567 114.2104519  96.5692962
 111.9536739 113.6403736  96.8030791 110.4650923 113.8226119  97.0099467
 100.4956146 117.1721613  90.0609615 100.3792404 116.4966517  90.7290699
 100.6058406 116.6853987  89.2441768 102.8387687 116.6331760  93.7656304
 102.4745894 116.1062381  94.4769226 103.6954803 116.2430229  93.5922790
 108.7436987 107.9226093 101.0287570 108.4120312 108.7921504 100.8048785
 108.1482601 107.6062377 101.7081601 102.4793174 111.6621660  88.7617653
 102.6467576 112.5301897  89.1288124 102.2890343 111.8248942  87.8378942
 105.2368507 120.1238639 100.4283483 104.9369230 121.0263678 100.3199290
 104.8919566 119.8570822 101.2804636  98.6880988 116.5752436  96.4620187
  97.7631485 116.4428650  96.6697879  98.9365402 117.3546655  96.9590130
 108.6365651 112.6421179  98.1080920 107.7282528 112.5736588  97.8139681
 108.5853247 113.1193124  98.9362746 102.4582395 114.1179318  89.7464320
 102.3382020 114.5636368  90.5849800 101.7634983 114.4664635  89.1877858
  96.0489799 116.2185709  97.2963977  96.1782181 116.4720188  98.2103388
  95.3687251 116.8113417  96.9768632 100.2189287 126.8882959  93.3954451
 100.1413316 127.8390784  93.4742931  99.6150930 126.5428832  94.0529377
 102.7106517 114.0610825 106.0515818 101.9339851 114.6204745 106.0418682
 103.3497080 114.5467608 106.5730688 110.5027297 110.8437618  99.8858794
 109.8601677 111.1370151  99.2398589 109.9982226 110.7290538 100.6911991
 108.1567461 114.5900791  90.5744654 109.0685317 114.8228178  90.3992351
 107.6477108 115.1737835  90.0119732 100.9652889 116.8696278 105.6133785
 101.7067573 117.4081322 105.3368608 100.2589874 117.4962567 105.7705336
 106.4408228 119.0125419 104.2105946 106.8491585 118.5707829 103.4660578
 105.7185490 118.4378046 104.4640139 102.7939299 113.9498025 101.5839503
 103.6400494 114.3737439 101.7274152 102.7337936 113.2931650 102.2778066
 106.7637043 119.5726609  97.9658235 106.1345906 119.7372323  97.2634303
 106.3762705 119.9868219  98.7369199 110.6426275 120.5081047  95.3202599
 109.9577313 120.8879948  94.7699632 110.7270124 121.1176374  96.0534547
 105.9438744 111.6102394 103.2420677 105.6999676 112.3644454 102.7054952
 106.2198674 111.9887741 104.0767924 107.8977207 118.1541006 101.9197942
 108.1094102 118.7972766 101.2432323 107.8506955 117.3203323 101.4519872
 105.5003436 110.7658827  98.8234514 104.6387915 111.0640080  99.1151252
 105.5265870 110.9829226  97.8915547 102.3165005 119.3101017  95.2308320
 102.7803351 119.5888720  94.4412943 102.0521803 118.4084462  95.0481411
  99.2089086 118.8572499  98.1688083  99.7790443 119.2859767  97.5305568
  99.7997198 118.5755084  98.8672269 101.2533891 115.4324170  92.0397885
 101.9557934 115.8845213  92.5071812 100.9214520 114.7907989  92.6677778
  99.7014253 114.0235926 106.4149095  99.0712913 114.7052207 106.6484491
  99.5950340 113.9119008 105.4702233  94.9959225 113.6907722  97.3415019
  94.2058279 113.9465251  96.8655129  95.4870472 114.5056060  97.4467059
 109.0123035 121.0312962 100.0920300 109.8340478 120.6293149  99.8102981
 109.0085437 120.9281196 101.0436415  96.9473970 114.0552302  94.2998496
  96.1505134 114.1670996  94.8181991  96.7199563 114.3938954  93.4339386
 102.7779638 120.5797005 102.2481010 102.8424071 121.0417412 103.0839182
 102.0690562 119.9494370 102.3763320  93.2796928 113.9438213  99.7730010
  93.5304966 114.8285223 100.0387586  93.8156476 113.7642814  99.0005101
 117.1029028 117.3751710  96.4405271 116.3492736 116.8059108  96.2849276
 117.2376569 117.3414375  97.3875906 102.4927656 122.2465112  92.1159990
 102.3573330 123.0916648  92.5444838 103.0337468 122.4484390  91.3525924
  98.9794995 108.3256692 108.7774346  98.5861941 107.7722891 109.4521990
  99.7961136 108.6367271 109.1680863  95.9457053 119.7640550  92.6887916
  96.4581574 120.5583801  92.8393480  96.5979766 119.0666841  92.6221517
  97.7551938 122.8806307  94.7710669  97.9318566 123.8024271  94.5831653
  98.5508771 122.5664726  95.2005049 101.8962956 109.7414571 106.3694602
 102.6372670 110.3421724 106.2899065 102.1280879 108.9992209 105.8112645
  97.0404294 114.9270939 104.6472832  96.9257809 114.0256196 104.9479931
  96.1848812 115.1734635 104.2957648 104.1196132 122.8688679 106.2460333
 103.6759986 122.0825057 105.9281237 104.7813346 123.0567829 105.5804223
  98.8783253 124.3984480 100.7721011  99.4290678 124.2701544  99.9998005
  98.0394729 124.6979369 100.4215904 106.2177370 123.1491479 104.2741734
 106.1995845 123.9700360 103.7822003 107.1397290 123.0245554 104.4991875
 102.6750424 120.6635608 105.1165242 103.2078761 119.9023896 104.8864550
 102.1464505 120.3709260 105.8589397 105.8420119 105.7695674 100.6458884
 105.4984389 106.6597316 100.5697995 106.2099082 105.5797332  99.7828469
  93.9105970 118.0929205  93.4647486  94.7481192 118.5026213  93.2481194
  94.0884238 117.1528647  93.4347680 105.8070402 115.7604285  89.1531319
 105.2917025 116.5308890  89.3919706 105.5347710 115.0869421  89.7764381
 103.3917513 110.6053986  94.2116557 102.5359109 110.2160836  94.0322196
 103.8044465 110.6845947  93.3516343 104.9216660 108.1400329  98.6108117
 104.4181455 108.1030465  97.7975922 105.2147266 109.0493072  98.6704774
 101.1659546 108.2239059  97.6174299 102.0312542 108.0281868  97.2580188
 101.2337054 107.9949411  98.5443656 110.7804676 118.5136640  91.0884493
 110.0034119 118.1747799  90.6439655 111.4596157 118.5189263  90.4139458
 105.5956705 113.6331377  90.9791100 105.2906841 113.9477527  91.8301243
 106.5487147 113.7112797  91.0218433 104.0403137 119.7921601  92.6284054
 103.5124499 119.0574360  92.3157292 103.5390640 120.5696277  92.3824023
 109.0195983 117.9870621  97.7451101 108.3619657 118.6769883  97.8331229
 109.8236382 118.3767053  98.0885087  98.7721865 110.4541267  94.9890666
  99.3465616 110.2316448  94.2563859  99.3592847 110.5229962  95.7419267
 107.8301442 116.3414994  95.7955042 108.3433324 116.9744986  96.2976752
 108.4802666 115.7416189  95.4298402  99.0991452 112.4845728  89.0086551
  98.2628764 112.8220415  89.3295826  98.9596221 112.3494708  88.0713688
 101.0744532 107.3282516  93.7165735 100.4208945 107.0131533  93.0922350
 101.0325006 106.7058256  94.4425558 102.1855737 117.6101811  85.6319027
 101.2782799 117.3791064  85.8310176 102.6826769 116.8139430  85.8193009
 105.0923816 126.3199318  88.5515713 104.4185515 126.6231015  89.1600671
 105.4789638 127.1228399  88.2021170 104.3082273 113.8164449  98.0413383
 103.3904834 114.0379396  97.8835071 104.7242416 113.8910760  97.1825090
 105.0917320 115.2155865  93.1716063 105.8389139 115.7277262  92.8623185
 105.3608910 114.8939918  94.0320457 103.3643971 117.7114406  90.1543017
 102.4555190 117.4273439  90.2515487 103.3939054 118.1313484  89.2946324
 108.5963238 121.3220995  93.9234185 108.1425565 120.4811905  93.9799375
 107.9657205 121.9582394  94.2608965 107.5396158 112.2512981  95.1534852
 106.8018914 111.7390368  95.4845095 107.7922931 111.8113363  94.3418129
 107.0396177 123.1597492  94.8584003 107.3319152 123.7202549  94.1396369
 107.5494798 123.4526053  95.6137162 107.6407785 105.0289233  95.7476622
 107.9466662 104.1686597  95.4602537 108.3660390 105.6206854  95.5475616
  93.9332141 115.4319920  94.1358220  93.7356541 114.8389281  93.4109286
  93.3778805 115.1272130  94.8534158 101.9128865 115.3243026  96.2552813
 101.9677474 114.3716863  96.1795289 101.1020067 115.4802466  96.7394111
 103.0620058 119.2523150  87.4931096 102.6239488 118.5359008  87.0336733
 103.8030499 119.4799264  86.9316187  99.8521225 113.9420086  94.0143192
  99.0389090 114.2414257  94.4208384 100.3480219 113.5475775  94.7317674
 102.0029802 123.9377843  95.9477456 101.9605981 124.1638689  95.0185988
 102.9192501 123.7041218  96.0963257 105.4495436 114.4061911 102.8458085
 105.8044824 114.6333384 103.7052551 106.0967567 114.7380287 102.2235341
 111.1793173 117.5280347  93.5507414 111.0411072 117.7181943  92.6228604
 110.8229392 118.2899729  94.0075466  99.3435299 111.5138442  99.6304427
  99.9834679 111.3727201  98.9327390  98.5112830 111.2272955  99.2543029
 111.2062553 119.5956874  98.5618686 111.6399059 119.5032163  99.4101740
 111.9194133 119.5714374  97.9238702 100.1195603 120.8140872  95.7439419
 100.9136202 120.3191192  95.5421994  99.4087296 120.2858735  95.3807125
 104.9390448 123.1958968 100.0951787 104.9927470 123.7649904 100.8629502
 104.0705229 123.3660853  99.7305824  96.4278367 114.9583954  91.8199172
  95.4975955 114.8968409  92.0369134  96.5235839 114.4359907  91.0235813
  96.3463916 111.4838767  94.4077413  96.6070733 112.3984100  94.2986574
  97.1681088 111.0163209  94.5574026  97.8188841 112.8976524 101.5776238
  98.4911894 112.6893886 100.9288887  96.9918628 112.6998610 101.1381470
 112.0678102 119.6380574 101.0951571 112.2613992 120.5426385 101.3410846
 111.9678721 119.1787993 101.9290156 103.7214413 109.5238465 103.5941899
 103.0742328 110.2228414 103.5006375 104.4915428 109.9574609 103.9618147
 107.1293211 119.7887317 106.6692452 106.9778717 119.5597869 105.7522536
 107.1197890 120.7457918 106.6823797 103.8978547 117.3619230 101.6538718
 104.8270607 117.5130389 101.4807686 103.4769577 117.4503251 100.7987365
 102.6966879 121.3869894  99.4237256 102.5577965 121.0188679 100.2963194
 101.9081475 121.9017534  99.2521214 103.2915031 126.4878991  90.7662793
 103.4666787 126.0167034  91.5808415 102.6047819 127.1144757  90.9944053
 104.2472094 120.7651497  96.8126094 103.9121927 120.7252267  97.7083744
 103.7476040 120.0996213  96.3396504  98.2216338 116.1719127 102.3378675
  98.0836136 115.4399366 102.9390214  99.1321262 116.0828027 102.0562863
 107.1831286 118.1107531  87.0863154 106.5660457 117.3854359  86.9896206
 106.7147774 118.8716891  86.7430228 100.8498639 115.8839086 101.8262355
 101.5598258 115.2432278 101.7848973 100.8067947 116.1351981 102.7488535
 108.8385418 122.8206440 104.7468934 108.7797964 122.1365660 104.0799517
 109.2404936 123.5625430 104.2949560  99.5627573 112.8704304 103.6457994
  99.0264930 112.4195043 104.2979590  98.9744281 113.0050213 102.9028458
  97.8576116 129.6368353  97.5402653  98.0972715 130.2686878  98.2181671
  97.0145313 129.2856393  97.8268012  98.9729832 112.3292955  86.2084458
  98.0959298 112.2081756  85.8446704  99.4487585 111.5379034  85.9563346
 108.8402825 120.7846023 102.9782914 107.9529604 120.4471945 103.1009312
 109.4101376 120.0529055 103.2151679  90.4931972 117.1170115  96.3025965
  91.1803012 116.8031845  95.7146980  90.3380101 118.0211480  96.0293216
  95.2966694 112.0060312 100.7310989  95.2124883 111.3985981  99.9961399
  94.4749401 112.4969330 100.7320485 102.3703978 125.4447476  99.9444157
 102.2974150 126.2502447 100.4563461 101.9281371 125.6439442  99.1192178
 102.1593758 124.6819246  93.4546978 101.3761280 125.2240926  93.5485203
 102.8586503 125.1993225  93.8541219 105.4690408 110.4913875  96.0981184
 105.9659108 109.7383838  95.7782254 104.6977390 110.5278192  95.5324393
 113.3220165 116.1954241  97.7399475 113.3110042 117.0778956  97.3693408
 112.4537545 115.8425792  97.5454012 104.8302662 125.3434310 102.1002315
 105.5430634 125.9781775 102.0278217 104.3392690 125.4398176 101.2842317
 106.5520189 119.2485563  93.6719607 105.6176467 119.3687025  93.5024311
 106.7296857 118.3458029  93.4079617 102.0525377 112.6331258  95.8252868
 101.6823164 112.0802299  96.5133774 102.5484469 112.0289392  95.2727868
 109.9392740 115.0902882  94.2069641 110.4053192 115.9230873  94.1329944
 110.3900241 114.6247863  94.9114900  99.8814575 123.0928753 102.9207886
 100.5824035 123.7265236 103.0737280  99.4109690 123.4343485 102.1603525
 108.0068971 121.4346703  91.2055793 108.2828815 121.3203298  92.1149667
 107.1373470 121.0364188  91.1667966 107.9109403 107.4583469  98.2460543
 106.9972483 107.6887696  98.4142749 108.3402504 107.5421913  99.0974575
 107.6815861 115.6473361 100.7460437 107.0287312 115.8949268 100.0912889
 108.0596241 114.8337499 100.4122914 104.6423035 125.6833054  94.8488607
 104.8245430 124.8654710  95.3116359 105.4656021 125.9000746  94.4113497
 104.9765201 124.6101239  92.1103655 105.5052967 124.0993694  91.4973817
 105.2393420 124.2943769  92.9749188 103.7303434 116.3893172 107.2326474
 103.0544071 116.2887301 107.9028849 104.5531068 116.2332386 107.6962471
  95.4782293 122.6265108  99.8538989  96.0635730 121.8808796  99.9866893
  95.2807132 122.9369065 100.7375653  98.3320949 125.6616356  94.8701431
  97.6631324 126.1462483  94.3865471  98.1933818 125.9085576  95.7844810
  90.0699948 115.1970709  98.5743432  90.1084048 114.6634299  99.3680550
  89.5640241 114.6705914  97.9554409 102.4726217 127.6960099 101.4684090
 103.0244525 127.8591721 102.2333175 102.8132411 128.2864537 100.7964114
  97.4490710 110.0435249 102.0705974  97.5132037 110.9050080 101.6583372
  97.3857831 109.4309251 101.3378333  96.9242983 112.1158382 105.7179009
  97.5515022 111.7335459 106.3316533  96.0670902 111.8972584 106.0834701
 107.3237092 122.5221357 107.3232744 107.8676996 123.1351315 106.8287699
 106.7423936 123.0800935 107.8399757  93.7008526 113.9234811  91.6497363
  93.9961967 113.0145489  91.5964417  92.7996562 113.9022550  91.3278366
 105.6094605 125.6442075  98.4547772 105.4845744 124.8431815  97.9458717
 106.2673696 126.1388268  97.9661742  97.2302773 111.9990807  97.6324912
  96.5089359 112.6126775  97.4932385  98.0196029 112.5348572  97.5541558
 107.6729513 123.4451095 100.0827322 106.7259848 123.3256446 100.0105649
 108.0212286 122.5573593 100.1653583 100.0329086 109.3345234 103.9065564
 100.5563488 109.5807530 104.6691873  99.8141420 110.1665269 103.4868701
  95.4296367 111.6048908  91.7736689  95.1009074 110.7246287  91.5911795
  95.7835738 111.5496577  92.6613078 104.6775946 123.2403811  96.2831674
 104.5300909 122.3120519  96.4639244 105.5029440 123.2623902  95.7988749
  98.5438191 111.8921878  92.1412166  98.8834263 112.4207799  91.4190775
  98.9910311 112.2302284  92.9170733 108.2810068 124.0632370  97.3696547
 109.2056616 123.8575231  97.2320998 108.1125371 123.8148771  98.2785888
 101.2381631 110.2758929 101.5915234 100.8978452 109.4766742 101.9935914
 100.5320638 110.5760640 101.0192068 101.8898103 107.3608241 100.0442557
 102.7124172 106.8868720  99.9221448 102.1336167 108.1398725 100.5441244
 100.5306338 110.3896500  90.3405459 101.2514700 110.7677753  89.8369176
  99.9071642 111.1085377  90.4440437 104.6737461 111.0941649  91.2763791
 104.8901075 111.9766287  90.9752620 104.1931528 110.7027862  90.5469433
  99.4136682 114.0527362  97.8534536  99.2681263 114.3667665  98.7458817
  98.9361886 114.6712262  97.3005435 101.2733065 111.0429910  97.9015426
 101.2594634 110.1471003  97.5647723 101.9905493 111.0500574  98.5353712
 103.1259196 111.4767250  99.9468553 102.8676973 112.3984321  99.9452883
 102.5944236 111.0797685 100.6369017 108.0705384 124.5818037  92.7258638
 108.2442262 124.0164460  91.9732491 108.5634276 125.3818932  92.5438128
  93.8882344 116.5932706 100.7922197  93.3435812 117.3692514 100.9242471
  94.7661694 116.9403511 100.6341319 100.6769961 109.9244290  93.1702996
 100.7985872 108.9960936  93.3693883 100.3872003 109.9382976  92.2581311
 103.5461151 107.6099201  96.3069715 103.5682848 107.6738534  95.3521695
 103.9629210 106.7703709  96.5010222 113.9244775 117.3454460  94.3448938
 114.3675921 116.5961785  93.9468061 113.0471286 117.3364597  93.9622670
 109.0580557 123.8984802  89.8255537 109.7531461 124.5191494  90.0442851
 109.4003707 123.0480153  90.1007914  94.6748366 115.7202603 103.6852354
  93.9330102 115.8685238 104.2716984  94.3541110 115.9810868 102.8219103
 110.9571980 121.3484507  91.3542867 111.4823304 121.6871780  90.6292187
 110.8694332 120.4131523  91.1706002 102.6192029 125.2618581 103.4832744
 102.9279155 125.0167728 104.3555444 103.4167511 125.4665219 102.9951614
 102.6412641 127.4156490  95.7138121 102.2017631 126.9232869  96.4070977
 103.3920758 126.8729458  95.4730196  95.1204980 123.6068031  95.7162749
  95.9463000 123.3071803  95.3361392  94.7699032 122.8375654  96.1652537
 100.0886513 122.9594500  97.7860422  99.4666522 122.2965205  97.4862650
 100.7591380 122.9855631  97.1034070  93.3213585 121.5254358  96.6751682
  92.4845493 121.0976532  96.4935683  93.2937230 121.7186801  97.6122473
 100.1611040 111.4376288 107.3792928 100.2099196 112.3138410 106.9970698
 100.7033554 110.8953681 106.8064571 110.6465886 121.9817411 106.6594065
 109.8561430 121.9641550 106.1198565 110.4099241 122.5205705 107.4143102
 110.7663761 118.8309877 103.9726794 110.8161766 118.6659885 104.9142317
 110.6577684 117.9637136 103.5824675  99.6500020 121.5098423  91.2618883
  99.7988140 122.1933887  90.6085556 100.4566463 121.4903513  91.7768339
 108.0567523 114.8140805 105.2886101 108.9577386 114.6747270 104.9970098
 108.1315498 114.9795260 106.2284278 102.3910329 112.1907660 104.1339287
 101.5213638 112.4841226 103.8621875 102.6269809 112.7748105 104.8546551
 112.2681958 121.2506819 104.2168815 111.9766766 121.6136799 105.0532276
 111.6554089 120.5373827 104.0382147 113.4677640 118.8159699  96.7371386
 114.3024532 119.2549503  96.9008946 113.6036769 118.3398352  95.9179631
 110.5169146 116.3739433 102.6848873 110.9923268 116.5667080 101.8767725
 109.5934711 116.4298619 102.4392257  97.4052653 117.5363601  92.2679952
  97.1598695 116.6325931  92.4660162  97.5748567 117.5380751  91.3259430
 105.0949363 108.4087277 101.6504707 105.6131306 109.1448304 101.3251196
 104.7404495 108.7151270 102.4851466  96.6748300 113.2691958  89.7666113
  95.9817545 113.3436313  89.1106149  96.4300052 112.5052302  90.2887630
 105.3461957 104.8287559  97.1705604 105.6263710 104.1610749  97.7966030
 106.1312564 105.0216655  96.6580268 103.1495425 124.0046553  88.7330630
 102.5769392 124.6236740  88.2801102 103.7228219 124.5545915  89.2670552
 109.2170815 113.2505193 100.9177179 110.1688238 113.3503291 100.9389403
 109.0474265 112.4583462 101.4275263 107.2385195 110.3360777 101.1036580
 106.6435127 110.6165789 100.4083069 106.9534891 110.8254678 101.8753321
 106.3692685 124.2883703  89.8639212 107.3023358 124.2229265  90.0672088
 106.2815898 125.1239970  89.4053745 108.9980702 123.6049574  86.8243160
 108.9194333 123.2709437  87.7178918 109.8190368 124.0971342  86.8234632
 111.6958893 116.4711313 100.0319479 111.6635213 115.5327314 100.2179162
 112.3059517 116.5495350  99.2985304 103.5342224 115.3407366  86.0746683
 104.4801328 115.2113574  86.1435101 103.1556469 114.6022028  86.5516111
 111.8453381 113.2622357 100.0777762 111.3292430 112.4780813  99.8907691
 112.7293330 112.9341073 100.2424281 109.5064108 107.0063372  96.0373575
 109.3088929 106.6978460  96.9216906 110.1163814 107.7325011  96.1671504
 117.5135443 117.5327320  99.1725515 118.2438831 117.2712608  99.7333219
 116.9042388 116.7956042  99.2127583 115.5950740 115.6735183  99.7699967
 114.8683903 115.5391147  99.1616458 115.1798027 115.9812011 100.5756685
 103.4180916 119.3925112 107.5347340 104.3383926 119.5703711 107.7287386
 103.3830499 118.4481158 107.3827039 101.7185141 113.2657342  86.0101568
 100.8116596 112.9690455  86.0864282 101.9961122 112.9687161  85.1435854
  92.6363081 114.5863706  96.4600614  92.3165866 113.7329014  96.1674988
  92.0896509 114.8012284  97.2158582  96.4142989 117.3026147 100.1770121
  96.6328999 118.2343255 100.1958155  96.8268763 116.9434121 100.9624925
 103.3347207 107.8094232  92.1645809 102.5247935 107.4641317  92.5401055
 104.0231624 107.5001776  92.7533421 105.2637755 106.8872279  93.7870106
 105.8168793 107.3067732  94.4460129 105.5007841 105.9608027  93.8293062
 101.2870854 112.8759353 109.5672870 101.1867581 113.8253710 109.4984961
 101.0692396 112.5477592 108.6948940 100.4883925 110.1244278  86.1513547
 101.3503089 110.4499176  86.4109364 100.6734270 109.3375774  85.6386613
  92.5051341 118.2066617  98.4293736  91.8114813 117.7920570  97.9163690
  93.2524332 118.2487154  97.8327155 108.6416562 108.9972804  93.2948770
 108.0615231 109.6557608  92.9126823 108.3752495 108.1750149  92.8836188
 107.0920128 108.3977862  95.4970090 107.5919907 108.5094396  94.6884409
 107.7355736 108.0938915  96.1370899 101.1502124 116.3056492 108.3837931
 100.6669206 117.1056852 108.5901820 101.2363063 116.3164436 107.4305375
  94.4188084 118.1384871  96.3059751  94.3958772 118.2372558  95.3541634
  94.7288720 118.9850022  96.6276917  97.0775462 120.1961026 100.4206365
  98.0318715 120.1644969 100.3536297  96.8787985 119.7351650 101.2356591
  97.6674844 118.7662142 102.9877163  98.4867733 119.2606221 103.0112000
  97.9411651 117.8494110 102.9594730 107.4241440 111.1572895  92.3505118
 106.5367295 111.4422545  92.1325313 107.8395429 110.9966658  91.5032395
 110.7755976 111.1819416  96.0659458 111.5516366 111.6715868  96.3384074
 110.0504110 111.6077470  96.5231327 113.2128535 111.8947035  97.1233398
 113.8073026 111.6542771  96.4126706 113.2855118 111.1754165  97.7506935
  95.4325690 125.7380646  97.4376563  95.2980158 124.9781047  96.8714561
  95.0157753 126.4621546  96.9705352 106.5684653 120.9217569  86.4453138
 107.2720504 121.1267572  87.0610794 105.8447302 121.4894331  86.7102222
 107.3982464 116.6727430  92.5655409 107.3417665 117.1295982  91.7263041
 107.9510806 115.9118115  92.3878251 111.2087270 112.4617162  93.3905528
 110.9524204 112.0613798  94.2213736 110.5840138 113.1760956  93.2655667
 115.5199607 115.2013236  95.8976819 114.9599165 115.2706425  96.6708381
 114.9143111 115.0254220  95.1776316  98.5894816 126.6349963  97.6495006
  98.4727200 127.5795395  97.5473696  97.7687263 126.3323524  98.0380805
 108.4771351 121.3600098  88.4951598 109.3116955 120.9281297  88.3129073
 108.3155694 121.1882112  89.4228493 108.1317243 117.8632212  89.8607938
 108.0766047 117.6976483  88.9196382 107.5063298 118.5708245  90.0170127
  92.9209758 113.1000276 103.6869360  93.5668622 112.5899230 104.1756585
  92.7126909 113.8368958 104.2612785 105.4463150 120.1681124 109.1861500
 106.3154310 120.3421776 108.8248135 104.9669902 120.9875540 109.0637230
 101.4413369 107.3640321  89.4393256 101.4292038 108.3082161  89.5961527
 102.3336790 107.1810466  89.1452717  99.6149330 127.2878225 100.8650934
 100.5176577 127.3201835 101.1817429  99.3886701 126.3578676 100.8797270
 101.3702932 126.0409211  97.5261013 100.4198563 126.0411073  97.4125385
 101.6735419 125.2941946  97.0097047 105.2565488 103.9583097  93.6939193
 104.4897884 103.4041584  93.8395875 105.6676193 104.0304966  94.5553345
  97.2607249 110.2467893 107.7844374  98.1238711 109.8904698 107.9947699
  96.6872660 109.9081788 108.4719778 117.1055626 131.8769750  98.5906775
 117.7434036 131.7576497  97.8870115 116.9876469 132.8250593  98.6494727
 113.9145332 131.8297178  98.5268300 113.5763844 131.7138242  97.6388835
 114.7835100 131.4288343  98.5069306 109.7732148 133.6832654  94.5165191
 109.2097013 133.5922591  93.7481479 109.6584543 132.8632559  94.9967683
 107.3196580 135.1783846  97.3549411 108.1117872 134.8374670  96.9395711
 107.5593230 135.2878821  98.2751565 115.3531707 137.3503622  89.8279656
 114.7019686 137.9357702  89.4413670 116.1476069 137.8809817  89.8874693
 109.2787334 134.4392759  90.2266790 110.0518210 133.8921746  90.0879666
 109.6312733 135.3037008  90.4381251 112.0428583 133.1445990 100.0235049
 112.6392155 132.9202012  99.3092012 112.1003555 132.4030735 100.6260497
 111.6153612 130.5985425  87.8585240 111.8679132 130.0766946  87.0968703
 110.6778171 130.4351570  87.9611924 116.6596894 129.6021203  95.6659983
 117.4459984 129.1840627  95.3150400 116.9235599 130.5067296  95.8341632
 116.8306972 135.0394054  90.3648640 116.1952805 135.1128680  91.0769545
 116.5004378 135.6287653  89.6867719 122.0605322 129.5396437  96.5692962
 122.7930494 128.9695653  96.8030791 121.3044677 129.1518037  97.0099467
 111.3349900 132.5013531  90.0609615 111.2186158 131.8258434  90.7290699
 111.4452160 132.0145905  89.2441768 113.6781441 131.9623678  93.7656304
 113.3139649 131.4354299  94.4769226 114.5348557 131.5722147  93.5922790
 119.5830742 123.2518011 101.0287570 119.2514067 124.1213422 100.8048785
 118.9876355 122.9354295 101.7081601 113.3186928 126.9913578  88.7617653
 113.4861331 127.8593814  89.1288124 113.1284097 127.1540859  87.8378942
 109.5274743 131.9044354  96.4620187 108.6025239 131.7720568  96.6697879
 109.7759156 132.6838573  96.9590130 119.4759405 127.9713097  98.1080920
 118.5676283 127.9028505  97.8139681 119.4247001 128.4485042  98.9362746
 113.2976149 129.4471235  89.7464320 113.1775774 129.8928286  90.5849800
 112.6028738 129.7956553  89.1877858 106.8883554 131.5477627  97.2963977
 107.0175935 131.8012106  98.2103388 106.2081005 132.1405335  96.9768632
 121.3421052 126.1729535  99.8858794 120.6995432 126.4662068  99.2398589
 120.8375980 126.0582456 100.6911991 118.9961215 129.9192708  90.5744654
 119.9079071 130.1520095  90.3992351 118.4870862 130.5029753  90.0119732
 113.6333053 129.2789943 101.5839503 114.4794248 129.7029357 101.7274152
 113.5731691 128.6223567 102.2778066 117.6030798 134.9018527  97.9658235
 116.9739660 135.0664241  97.2634303 117.2156460 135.3160136  98.7369199
 116.7832498 126.9394311 103.2420677 116.5393430 127.6936372 102.7054952
 117.0592429 127.3179659 104.0767924 116.3397190 126.0950744  98.8234514
 115.4781669 126.3931998  99.1151252 116.3659625 126.3121143  97.8915547
 113.1558759 134.6392935  95.2308320 113.6197105 134.9180638  94.4412943
 112.8915558 133.7376380  95.0481411 110.0482841 134.1864417  98.1688083
 110.6184198 134.6151685  97.5305568 110.6390952 133.9047001  98.8672269
 112.0927646 130.7616087  92.0397885 112.7951689 131.2137131  92.5071812
 111.7608274 130.1199906  92.6677778 105.8352979 129.0199640  97.3415019
 105.0452033 129.2757169  96.8655129 106.3264227 129.8347978  97.4467059
 107.7867725 129.3844219  94.2998496 106.9898888 129.4962914  94.8181991
 107.5593317 129.7230871  93.4339386 104.1190682 129.2730130  99.7730010
 104.3698721 130.1577140 100.0387586 104.6550231 129.0934732  99.0005101
 113.3321410 137.5757030  92.1159990 113.1967085 138.4208566  92.5444838
 113.8731223 137.7776308  91.3525924 109.8188750 123.6548610 108.7774346
 109.4255695 123.1014808 109.4521990 110.6354890 123.9659188 109.1680863
 106.7850808 135.0932468  92.6887916 107.2975328 135.8875718  92.8393480
 107.4373520 134.3958758  92.6221517 108.5945692 138.2098224  94.7710669
 108.7712321 139.1316189  94.5831653 109.3902526 137.8956644  95.2005049
 112.7356711 125.0706489 106.3694602 113.4766424 125.6713642 106.2899065
 112.9674634 124.3284127 105.8112645 107.8798049 130.2562856 104.6472832
 107.7651564 129.3548113 104.9479931 107.0242567 130.5026553 104.2957648
 109.7177008 139.7276398 100.7721011 110.2684433 139.5993461  99.9998005
 108.8788484 140.0271287 100.4215904 116.6813874 121.0987592 100.6458884
 116.3378143 121.9889234 100.5697995 117.0492836 120.9089250  99.7828469
 104.7499724 133.4221122  93.4647486 105.5874946 133.8318131  93.2481194
 104.9277992 132.4820564  93.4347680 116.6464156 131.0896203  89.1531319
 116.1310780 131.8600808  89.3919706 116.3741465 130.4161339  89.7764381
 114.2311267 125.9345904  94.2116557 113.3752864 125.5452754  94.0322196
 114.6438219 126.0137865  93.3516343 115.7610414 123.4692247  98.6108117
 115.2575210 123.4322382  97.7975922 116.0541021 124.3784990  98.6704774
 112.0053300 123.5530977  97.6174299 112.8706297 123.3573785  97.2580188
 112.0730809 123.3241329  98.5443656 116.4350460 128.9623295  90.9791100
 116.1300595 129.2769444  91.8301243 117.3880902 129.0404715  91.0218433
 114.8796891 135.1213518  92.6284054 114.3518253 134.3866278  92.3157292
 114.3784394 135.8988195  92.3824023 119.8589737 133.3162539  97.7451101
 119.2013412 134.0061800  97.8331229 120.6630137 133.7058971  98.0885087
 109.6115619 125.7833185  94.9890666 110.1859371 125.5608366  94.2563859
 110.1986602 125.8521879  95.7419267 118.6695196 131.6706912  95.7955042
 119.1827078 132.3036903  96.2976752 119.3196420 131.0708107  95.4298402
 109.9385206 127.8137646  89.0086551 109.1022518 128.1512332  89.3295826
 109.7989976 127.6786625  88.0713688 111.9138287 122.6574434  93.7165735
 111.2602699 122.3423451  93.0922350 111.8718761 122.0350174  94.4425558
 113.0249492 132.9393729  85.6319027 112.1176553 132.7082982  85.8310176
 113.5220524 132.1431348  85.8193009 115.1476027 129.1456367  98.0413383
 114.2298589 129.3671314  97.8835071 115.5636171 129.2202678  97.1825090
 115.9311075 130.5447783  93.1716063 116.6782894 131.0569180  92.8623185
 116.2002664 130.2231836  94.0320457 114.2037725 133.0406324  90.1543017
 113.2948944 132.7565356  90.2515487 114.2332809 133.4605402  89.2946324
 118.3789912 127.5804899  95.1534852 117.6412669 127.0682285  95.4845095
 118.6316686 127.1405281  94.3418129 118.4801539 120.3581151  95.7476622
 118.7860416 119.4978514  95.4602537 119.2054144 120.9498771  95.5475616
 104.7725895 130.7611838  94.1358220 104.5750295 130.1681198  93.4109286
 104.2172559 130.4564048  94.8534158 112.7522619 130.6534944  96.2552813
 112.8071229 129.7008781  96.1795289 111.9413821 130.8094383  96.7394111
 113.9013813 134.5815067  87.4931096 113.4633243 133.8650926  87.0336733
 114.6424254 134.8091182  86.9316187 110.6914979 129.2712004  94.0143192
 109.8782845 129.5706174  94.4208384 111.1873973 128.8767693  94.7317674
 112.8423557 139.2669761  95.9477456 112.7999736 139.4930607  95.0185988
 113.7586256 139.0333135  96.0963257 116.2889191 129.7353828 102.8458085
 116.6438578 129.9625301 103.7052551 116.9361322 130.0672205 102.2235341
 122.0186928 132.8572264  93.5507414 121.8804826 133.0473860  92.6228604
 121.6623146 133.6191647  94.0075466 110.1829054 126.8430359  99.6304427
 110.8228433 126.7019118  98.9327390 109.3506584 126.5564873  99.2543029
 110.9589358 136.1432790  95.7439419 111.7529956 135.6483110  95.5421994
 110.2481050 135.6150653  95.3807125 107.2672121 130.2875872  91.8199172
 106.3369709 130.2260327  92.0369134 107.3629593 129.7651824  91.0235813
 107.1857670 126.8130684  94.4077413 107.4464488 127.7276018  94.2986574
 108.0074843 126.3455127  94.5574026 108.6582596 128.2268442 101.5776238
 109.3305649 128.0185804 100.9288887 107.8312382 128.0290528 101.1381470
 114.5608168 124.8530382 103.5941899 113.9136083 125.5520332 103.5006375
 115.3309183 125.2866526 103.9618147 114.7372302 132.6911147 101.6538718
 115.6664362 132.8422307 101.4807686 114.3163332 132.7795168 100.7987365
 113.5360634 136.7161812  99.4237256 113.3971719 136.3480596 100.2963194
 112.7475230 137.2309451  99.2521214 115.0865849 136.0943414  96.8126094
 114.7515681 136.0544184  97.7083744 114.5869795 135.4288130  96.3396504
 109.0610093 131.5011045 102.3378675 108.9229891 130.7691283 102.9390214
 109.9715016 131.4119945 102.0562863 118.0225041 133.4399449  87.0863154
 117.4054211 132.7146277  86.9896206 117.5541529 134.2008809  86.7430228
 111.6892393 131.2131004 101.8262355 112.3992012 130.5724196 101.7848973
 111.6461702 131.4643899 102.7488535 110.4021327 128.1996222 103.6457994
 109.8658684 127.7486960 104.2979590 109.8138036 128.3342131 102.9028458
 109.8123586 127.6584873  86.2084458 108.9353053 127.5373674  85.8446704
 110.2881339 126.8670951  85.9563346 101.3325727 132.4462033  96.3025965
 102.0196766 132.1323763  95.7146980 101.1773855 133.3503398  96.0293216
 106.1360449 127.3352229 100.7310989 106.0518637 126.7277899  99.9961399
 105.3143155 127.8261248 100.7320485 116.3084163 125.8205793  96.0981184
 116.8052862 125.0675755  95.7782254 115.5371144 125.8570110  95.5324393
 124.1613920 131.5246158  97.7399475 124.1503796 132.4070874  97.3693408
 123.2931299 131.1717709  97.5454012 117.3913943 134.5777480  93.6719607
 116.4570222 134.6978943  93.5024311 117.5690612 133.6749947  93.4079617
 112.8919131 127.9623176  95.8252868 112.5216919 127.4094216  96.5133774
 113.3878224 127.3581309  95.2727868 120.7786495 130.4194799  94.2069641
 121.2446947 131.2522791  94.1329944 121.2293995 129.9539781  94.9114900
 118.7503157 122.7875386  98.2460543 117.8366237 123.0179613  98.4142749
 119.1796259 122.8713831  99.0974575 118.5209616 130.9765278 100.7460437
 117.8681066 131.2241186 100.0912889 118.8989996 130.1629417 100.4122914
 106.3176048 137.9557026  99.8538989 106.9029485 137.2100714  99.9866893
 106.1200886 138.2660983 100.7375653 109.1714703 140.9908273  94.8701431
 108.5025078 141.4754401  94.3865471 109.0327573 141.2377494  95.7844810
 100.9093703 130.5262626  98.5743432 100.9477802 129.9926217  99.3680550
 100.4033995 129.9997832  97.9554409 108.2884465 125.3727167 102.0705974
 108.3525791 126.2341998 101.6583372 108.2251585 124.7601168 101.3378333
 107.7636738 127.4450299 105.7179009 108.3908776 127.0627377 106.3316533
 106.9064656 127.2264501 106.0834701 104.5402280 129.2526728  91.6497363
 104.8355721 128.3437407  91.5964417 103.6390316 129.2314468  91.3278366
 108.0696527 127.3282725  97.6324912 107.3483113 127.9418693  97.4932385
 108.8589783 127.8640490  97.5541558 110.8722841 124.6637151 103.9065564
 111.3957243 124.9099448 104.6691873 110.6535174 125.4957186 103.4868701
 106.2690122 126.9340826  91.7736689 105.9402828 126.0538205  91.5911795
 106.6229493 126.8788495  92.6613078 109.3831945 127.2213796  92.1412166
 109.7228018 127.7499717  91.4190775 109.8304065 127.5594202  92.9170733
 112.0775386 125.6050847 101.5915234 111.7372206 124.8058660 101.9935914
 111.3714392 125.9052557 101.0192068 112.7291858 122.6900159 100.0442557
 113.5517927 122.2160637  99.9221448 112.9729921 123.4690643 100.5441244
 111.3700092 125.7188417  90.3405459 112.0908455 126.0969670  89.8369176
 110.7465396 126.4377294  90.4440437 115.5131215 126.4233566  91.2763791
 115.7294829 127.3058204  90.9752620 115.0325282 126.0319780  90.5469433
 110.2530436 129.3819280  97.8534536 110.1075017 129.6959583  98.7458817
 109.7755640 130.0004180  97.3005435 112.1126819 126.3721828  97.9015426
 112.0988388 125.4762921  97.5647723 112.8299247 126.3792491  98.5353712
 113.9652950 126.8059168  99.9468553 113.7070728 127.7276238  99.9452883
 113.4337990 126.4089602 100.6369017 104.7276099 131.9224624 100.7922197
 104.1829567 132.6984432 100.9242471 105.6055448 132.2695429 100.6341319
 111.5163715 125.2536208  93.1702996 111.6379626 124.3252854  93.3693883
 111.2265758 125.2674894  92.2581311 114.3854906 122.9391118  96.3069715
 114.4076602 123.0030451  95.3521695 114.8022965 122.0995627  96.5010222
 105.5142120 131.0494520 103.6852354 104.7723856 131.1977156 104.2716984
 105.1934865 131.3102786 102.8219103 105.9598734 138.9359949  95.7162749
 106.7856754 138.6363721  95.3361392 105.6092786 138.1667571  96.1652537
 110.9280267 138.2886417  97.7860422 110.3060277 137.6257122  97.4862650
 111.5985134 138.3147549  97.1034070 104.1607339 136.8546275  96.6751682
 103.3239247 136.4268450  96.4935683 104.1330985 137.0478719  97.6122473
 111.0004795 126.7668205 107.3792928 111.0492950 127.6430328 106.9970698
 111.5427309 126.2245598 106.8064571 110.4893774 136.8390341  91.2618883
 110.6381895 137.5225805  90.6085556 111.2960218 136.8195431  91.7768339
 113.2304083 127.5199578 104.1339287 112.3607393 127.8133144 103.8621875
 113.4663564 128.1040023 104.8546551 108.2446407 132.8655518  92.2679952
 107.9992449 131.9617848  92.4660162 108.4142322 132.8672669  91.3259430
 115.9343117 123.7379195 101.6504707 116.4525061 124.4740222 101.3251196
 115.5798250 124.0443188 102.4851466 107.5142055 128.5983876  89.7666113
 106.8211300 128.6728231  89.1106149 107.2693807 127.8344219  90.2887630
 116.1855711 120.1579477  97.1705604 116.4657465 119.4902666  97.7966030
 116.9706318 120.3508573  96.6580268 120.0564570 128.5797111 100.9177179
 121.0081992 128.6795209 100.9389403 119.8868020 127.7875380 101.4275263
 118.0778949 125.6652694 101.1036580 117.4828881 125.9457707 100.4083069
 117.7928646 126.1546595 101.8753321 122.5352647 131.8003231 100.0319479
 122.5028967 130.8619232 100.2179162 123.1453271 131.8787268  99.2985304
 114.3735978 130.6699284  86.0746683 115.3195083 130.5405492  86.1435101
 113.9950223 129.9313946  86.5516111 122.6847136 128.5914274 100.0777762
 122.1686184 127.8072731  99.8907691 123.5687084 128.2632991 100.2424281
 120.3457863 122.3355290  96.0373575 120.1482684 122.0270378  96.9216906
 120.9557568 123.0616929  96.1671504 112.5578895 128.5949260  86.0101568
 111.6510351 128.2982373  86.0864282 112.8354876 128.2979078  85.1435854
 103.4756836 129.9155624  96.4600614 103.1559620 129.0620932  96.1674988
 102.9290264 130.1304202  97.2158582 107.2536743 132.6318065 100.1770121
 107.4722753 133.5635172 100.1958155 107.6662517 132.2726039 100.9624925
 114.1740961 123.1386150  92.1645809 113.3641689 122.7933235  92.5401055
 114.8625378 122.8293694  92.7533421 116.1031509 122.2164197  93.7870106
 116.6562548 122.6359650  94.4460129 116.3401596 121.2899945  93.8293062
 111.3277680 125.4536195  86.1513547 112.1896844 125.7791094  86.4109364
 111.5128024 124.6667691  85.6386613 103.3445096 133.5358535  98.4293736
 102.6508567 133.1212488  97.9163690 104.0918087 133.5779072  97.8327155
 119.4810316 124.3264722  93.2948770 118.9008986 124.9849526  92.9126823
 119.2146249 123.5042066  92.8836188 117.9313883 123.7269780  95.4970090
 118.4313661 123.8386314  94.6884409 118.5749491 123.4230832  96.1370899
 105.2581838 133.4676789  96.3059751 105.2352526 133.5664476  95.3541634
 105.5682475 134.3141940  96.6276917 107.9169216 135.5252944 100.4206365
 108.8712470 135.4936886 100.3536297 107.7181740 135.0643568 101.2356591
 108.5068598 134.0954060 102.9877163 109.3261487 134.5898139 103.0112000
 108.7805406 133.1786028 102.9594730 118.2635194 126.4864812  92.3505118
 117.3761050 126.7714463  92.1325313 118.6789184 126.3258576  91.5032395
 121.6149731 126.5111333  96.0659458 122.3910121 127.0007786  96.3384074
 120.8897865 126.9369387  96.5231327 124.0522289 127.2238952  97.1233398
 124.6466780 126.9834688  96.4126706 124.1248873 126.5046083  97.7506935
 106.2719445 141.0672563  97.4376563 106.1373913 140.3072964  96.8714561
 105.8551507 141.7913463  96.9705352 117.4078408 136.2509487  86.4453138
 118.1114258 136.4559489  87.0610794 116.6841057 136.8186249  86.7102222
 118.2376218 132.0019348  92.5655409 118.1811420 132.4587900  91.7263041
 118.7904561 131.2410033  92.3878251 122.0481024 127.7909080  93.3905528
 121.7917958 127.3905716  94.2213736 121.4233892 128.5052874  93.2655667
 126.3593362 130.5305153  95.8976819 125.7992920 130.5998343  96.6708381
 125.7536865 130.3546138  95.1776316 109.4288571 141.9641880  97.6495006
 109.3120955 142.9087313  97.5473696 108.6081017 141.6615442  98.0380805
 118.9710998 133.1924129  89.8607938 118.9159801 133.0268401  88.9196382
 118.3457053 133.9000162  90.0170127 103.7603513 128.4292194 103.6869360
 104.4062376 127.9191148 104.1756585 103.5520664 129.1660875 104.2612785
 112.2807123 122.6932238  89.4393256 112.2685793 123.6374078  89.5961527
 113.1730545 122.5102384  89.1452717 116.0959242 119.2875015  93.6939193
 115.3291638 118.7333502  93.8395875 116.5069947 119.3596884  94.5553345
 108.1001004 125.5759811 107.7844374 108.9632465 125.2196616 107.9947699
 107.5266414 125.2373706 108.4719778  41.2299346   1.5788448  85.3152082
  41.8677756   1.4595196  84.6115422  41.1120189   2.5269292  85.3740034
  38.0389052   1.5315877  85.2513607  37.7007564   1.4156941  84.3634141
  38.9078820   1.1307042  85.2314613  33.8975868   3.3851353  81.2410497
  33.3340733   3.2941290  80.4726785  33.7828263   2.5651257  81.7212990
  38.5208835   2.6850728  91.2099812  38.5097476   2.2903527  90.3380316
  38.6829475   1.9516801  91.8033583  31.4440300   4.8802545  84.0794718
  32.2361592   4.5393369  83.6641017  31.6836950   4.9897520  84.9996871
  39.4775426   7.0522321  76.5524962  38.8263406   7.6376401  76.1658976
  40.2719789   7.5828516  76.6120000  33.4031054   4.1411458  76.9512097
  34.1761930   3.5940445  76.8124973  33.7556452   5.0055707  77.1626558
  35.2416096   5.4687840  90.1578996  34.9505962   6.3733471  90.0425662
  35.8773081   5.5104368  90.8723066  36.1672303   2.8464689  86.7480356
  36.7635875   2.6220711  86.0337319  36.2247275   2.1049434  87.3505804
  35.7397331   0.3004124  74.5830547  35.9922852  -0.2214355  73.8214010
  34.8021891   0.1370269  74.6857230  40.7840614  -0.6960098  82.3905290
  41.5703703  -1.1140675  82.0395707  41.0479319   0.2085994  82.5586938
  40.9550692   4.7412753  77.0893947  40.3196525   4.8147379  77.8014851
  40.6248098   5.3306351  76.4113026  46.1849041  -0.7584865  83.2938268
  46.9174213  -1.3285648  83.5276098  45.4288397  -1.1463264  83.7344774
  35.4593620   2.2032230  76.7854922  35.3429878   1.5277133  77.4536006
  35.5695880   1.7164604  75.9687075  37.8025161   1.6642377  80.4901611
  37.4383368   1.1372998  81.2014532  38.6592277   1.2740846  80.3168096
  43.7074462  -7.0463290  87.7532877  43.3757787  -6.1767879  87.5294092
  43.1120075  -7.3627006  88.4326907  37.4430648  -3.3067723  75.4862959
  37.6105050  -2.4387487  75.8533430  37.2527817  -3.1440442  74.5624249
  40.2005981   5.1549256  87.1528790  39.9006704   6.0574294  87.0444597
  39.8557041   4.8881439  88.0049943  33.6518463   1.6063052  83.1865494
  32.7268959   1.4739267  83.3943186  33.9002876   2.3857272  83.6835437
  43.6003125  -2.3268204  84.8326227  42.6920002  -2.3952796  84.5384988
  43.5490721  -1.8496259  85.6608053  37.4219869  -0.8510066  76.4709626
  37.3019494  -0.4053015  77.3095106  36.7272457  -0.5024748  75.9123164
  31.0127274   1.2496326  84.0209283  31.1419655   1.5030805  84.9348695
  30.3324725   1.8424034  83.7013938  35.1826761  11.9193576  80.1199757
  35.1050791  12.8701401  80.1988238  34.5788405  11.5739448  80.7774684
  37.6743991  -0.9078559  92.7761124  36.8977325  -0.3484639  92.7663989
  38.3134554  -0.4221776  93.2975994  45.4664771  -4.1251766  86.6104101
  44.8239152  -3.8319233  85.9643896  44.9619700  -4.2398846  87.4157298
  43.1204935  -0.3788593  77.2989960  44.0322791  -0.1461206  77.1237658
  42.6114582   0.2048452  76.7365039  35.9290363   1.9006895  92.3379091
  36.6705048   2.4391939  92.0613915  35.2227349   2.5273183  92.4950643
  41.4045703   4.0436035  90.9351253  41.8129059   3.6018446  90.1905885
  40.6822964   3.4688663  91.1885446  37.7576773  -1.0191358  88.3084810
  38.6037968  -0.5951945  88.4519459  37.6975411  -1.6757734  89.0023373
  41.7274517   4.6037226  84.6903542  41.0983380   4.7682940  83.9879610
  41.3400180   5.0178835  85.4614506  45.6063749   5.5391664  82.0447905
  44.9214787   5.9190565  81.4944939  45.6907599   6.1486990  82.7779853
  40.9076218  -3.3586990  89.9665983  40.6637150  -2.6044929  89.4300259
  41.1836149  -2.9801642  90.8013230  42.8614681   3.1851623  88.6443249
  43.0731576   3.8283383  87.9677630  42.8144429   2.3513939  88.1765179
  40.4640910  -4.2030557  85.5479821  39.6025389  -3.9049303  85.8396559
  40.4903345  -3.9860158  84.6160854  37.2802479   4.3411634  81.9553627
  37.7440825   4.6199337  81.1658249  37.0159277   3.4395078  81.7726717
  34.1726560   3.8883115  84.8933390  34.7427917   4.3170384  84.2550875
  34.7634672   3.6065700  85.5917576  36.2171365   0.4634786  78.7643192
  36.9195409   0.9155830  79.2317118  35.8851994  -0.1781395  79.3923085
  34.6651727  -0.9453457  93.1394401  34.0350387  -0.2637176  93.3729798
  34.5587815  -1.0570376  92.1947540  43.9760509   6.0623578  86.8165606
  44.7977953   5.6603765  86.5348288  43.9722912   5.9591812  87.7681722
  37.7417112   5.6107621  88.9726317  37.8061545   6.0728029  89.8084489
  37.0328036   4.9804986  89.1008627  52.0666502   2.4062327  83.1650578
  51.3130210   1.8369725  83.0094582  52.2014043   2.3724991  84.1121212
  37.4565130   7.2775729  78.8405297  37.3210805   8.1227265  79.2690145
  37.9974942   7.4795007  78.0771231  30.9094527   4.7951167  79.4133222
  31.4219048   5.5894417  79.5638787  31.5617240   4.0977457  79.3466824
  32.7189412   7.9116923  81.4955975  32.8956040   8.8334888  81.3076959
  33.5146246   7.5975342  81.9250355  32.0041769  -0.0418445  91.3718139
  31.8895284  -0.9433188  91.6725238  31.1486286   0.2045252  91.0202955
  39.0833606   7.8999295  92.9705639  38.6397461   7.1135674  92.6526544
  39.7450820   8.0878446  92.3049530  33.8420728   9.4295097  87.4966318
  34.3928153   9.3012160  86.7243312  33.0032203   9.7289986  87.1461211
  41.1814844   8.1802095  90.9987040  41.1633320   9.0010976  90.5067310
  42.1034764   8.0556171  91.2237182  37.6387899   5.6946225  91.8410549
  38.1716235   4.9334513  91.6109857  37.1101980   5.4019877  92.5834703
  28.8743444   3.1239821  80.1892793  29.7118666   3.5336830  79.9726500
  29.0521712   2.1839263  80.1592987  40.7707876   0.7914902  75.8776626
  40.2554500   1.5619506  76.1165013  40.4985185   0.1180038  76.5009687
  38.3554987  -4.3635397  80.9361864  37.4996584  -4.7528547  80.7567503
  38.7681939  -4.2843437  80.0761650  45.7442150   3.5447256  77.8129799
  44.9671593   3.2058416  77.3684961  46.4233631   3.5499880  77.1384764
  40.5594179  -1.3358006  77.7036407  40.2544315  -1.0211857  78.5546550
  41.5124622  -1.2576586  77.7463740  39.0040611   4.8232217  79.3529361
  38.4761973   4.0884977  79.0402598  38.5028114   5.6006894  79.1069329
  43.9833457   3.0181238  84.4696407  43.3257132   3.7080499  84.5576536
  44.7873857   3.4077670  84.8130394  42.7938916   1.3725610  82.5200349
  43.3070798   2.0055602  83.0222059  43.4440140   0.7726806  82.1543709
  34.0628926  -2.4843655  75.7331858  33.2266238  -2.1468969  76.0541132
  33.9233696  -2.6194676  74.7958995  37.1493211   2.6412428  72.3564334
  36.2420273   2.4101681  72.5555483  37.6464243   1.8450047  72.5438315
  40.0561290  11.3509935  75.2761020  39.3822989  11.6541631  75.8845978
  40.4427112  12.1539015  74.9266477  39.2719747  -1.1524934  84.7658689
  38.3542308  -0.9309987  84.6080377  39.6879891  -1.0778624  83.9070397
  40.0554795   0.2466482  79.8961370  40.8026614   0.7587879  79.5868492
  40.3246384  -0.0749466  80.7565763  38.3281445   2.7425022  76.8788324
  37.4192664   2.4584055  76.9760794  38.3576529   3.1624101  76.0191631
  43.5600712   6.3531612  80.6479492  43.1063039   5.5122522  80.7044682
  42.9294679   6.9893010  80.9854272  42.5033632  -2.7176402  81.8780159
  41.7656389  -3.2299016  82.2090402  42.7560405  -3.1576020  81.0663436
  42.0033652   8.1908109  81.5829310  42.2956626   8.7513166  80.8641675
  42.5132272   8.4836670  82.3382469  36.8766339   0.3553643  82.9798119
  36.9314949  -0.5972521  82.9040596  36.0657541   0.5113082  83.4639418
  38.0257533   4.2833766  74.2176403  37.5876963   3.5669625  73.7582040
  38.7667974   4.5109881  73.6561494  34.8158699  -1.0269297  80.7388498
  34.0026564  -0.7275127  81.1453690  35.3117693  -1.4213608  81.4562980
  36.9667277   8.9688460  82.6722763  36.9243456   9.1949306  81.7431295
  37.8829976   8.7351834  82.8208564  40.4132911  -0.5627473  89.5703392
  40.7682298  -0.3356000  90.4297858  41.0605042  -0.2309096  88.9480647
  46.1430647   2.5590963  80.2752721  46.0048546   2.7492559  79.3473910
  45.7866866   3.3210346  80.7320772  46.1700027   4.6267490  85.2863993
  46.6036534   4.5342779  86.1347047  46.8831608   4.6024991  84.6484009
  35.0833078   5.8451489  82.4684726  35.8773676   5.3501809  82.2667301
  34.3724770   5.3169352  82.1052431  39.9027922   8.2269584  86.8197093
  39.9564944   8.7960521  87.5874809  39.0342703   8.3971469  86.4551130
  31.3915841  -0.0105430  78.5444478  30.4613429  -0.0720974  78.7614440
  31.4873313  -0.5329477  77.7481120  47.0315577   4.6691191  87.8196878
  47.2251467   5.5737001  88.0656153  46.9316195   4.2098610  88.6535463
  38.6851887  -5.4450919  90.3187205  38.0379802  -4.7460969  90.2251682
  39.4552903  -5.0114775  90.6863454  42.0930685   4.8197934  93.3937759
  41.9416192   4.5908485  92.4767842  42.0835365   5.7768535  93.4069104
  38.8616022   2.3929846  88.3784025  39.7908082   2.5441006  88.2052992
  38.4407052   2.4813867  87.5232672  37.6604354   6.4180511  86.1482563
  37.5215439   6.0499295  87.0208501  36.8718950   6.9328150  85.9766521
  38.2552505  11.5189607  77.4908099  38.4304261  11.0477650  78.3053722
  37.5685294  12.1455373  77.7189360  39.2109569   5.7962113  83.5371400
  38.8759401   5.7562883  84.4329050  38.7113514   5.1306829  83.0641811
  33.1853813   1.2029743  89.0623982  33.0473611   0.4709982  89.6635521
  34.0958736   1.1138643  88.7808169  42.1468760   3.1418148  73.8108460
  41.5297931   2.4164976  73.7141513  41.6785249   3.9027508  73.4675534
  35.8136113   0.9149703  88.5507661  36.5235732   0.2742895  88.5094280
  35.7705421   1.1662598  89.4733842  43.8022892   7.8517056  91.4714240
  43.7435438   7.1676276  90.8044824  44.2042410   8.5936046  91.0194866
  34.5265047  -2.0985079  90.3703301  33.9902404  -2.5494341  91.0224897
  33.9381756  -1.9639171  89.6273765  32.8213591  14.6678970  84.2647959
  33.0610189  15.2997494  84.9426978  31.9782787  14.3167010  84.5513319
  43.8040299   5.8156640  89.7028220  42.9167078   5.4782562  89.8254619
  44.3738850   5.0839671  89.9396986  37.3341453  10.4758092  86.6689463
  37.2611624  11.2813064  87.1808768  36.8918846  10.6750058  85.8437485
  37.1231232   9.7129862  80.1792285  36.3398754  10.2551543  80.2730509
  37.8223977  10.2303842  80.5786526  40.4327882  -4.4775508  82.8226490
  40.9296582  -5.2305546  82.5027561  39.6614864  -4.4411192  82.2569700
  48.2857640   1.2264857  84.4644782  48.2747516   2.1089573  84.0938715
  47.4175019   0.8736408  84.2699319  39.7940136  10.3744926  88.8247622
  40.5068108  11.0092391  88.7523524  39.3030165  10.4708792  88.0087624
  41.5157663   4.2796179  80.3964914  40.5813942   4.3997642  80.2269618
  41.6934332   3.3768646  80.1324924  37.0162851  -2.3358125  82.5498175
  36.6460639  -2.8887085  83.2379080  37.5121944  -2.9399992  81.9973175
  44.9030214   0.1213498  80.9314948  45.3690667   0.9541490  80.8575251
  45.3537715  -0.3441520  81.6360206  34.8452050   8.1239370  89.6453193
  35.5461509   8.7575853  89.7982587  34.3747165   8.4654101  88.8848832
  42.9706446   6.4657320  77.9301100  43.2466289   6.3513914  78.8394974
  42.1010944   6.0674804  77.8913273  42.8746877  -7.5105915  84.9705849
  41.9609957  -7.2801688  85.1388056  43.3039979  -7.4267471  85.8219882
  42.6453336   0.6783977  87.4705743  41.9924786   0.9259885  86.8158196
  43.0233716  -0.1351885  87.1368221  39.6060510  10.7143670  81.5733914
  39.7882904   9.8965326  82.0361666  40.4293496  10.9311363  81.1358804
  39.9402675   9.6411856  78.8348962  40.4690441   9.1304310  78.2219124
  40.2030895   9.3254386  79.6994495  38.6940909   1.4203788  93.9571780
  38.0181546   1.3197918  94.6274156  39.5168543   1.2643002  94.4207778
  30.4419768   7.6575725  86.5784296  31.0273205   6.9119413  86.7112200
  30.2444606   7.9679682  87.4620959  33.2958423  10.6926972  81.5946738
  32.6268798  11.1773100  81.1110778  33.1571293  10.9396193  82.5090116
  37.4363692  12.7270716  88.1929396  37.9882000  12.8902337  88.9578482
  37.7769885  13.3175154  87.5209421  42.2874566   7.5531973  94.0478051
  42.8314470   8.1661932  93.5533006  41.7061411   8.1111552  94.5645064
  40.5732079  10.6752691  85.1793078  40.4483218   9.8742431  84.6704024
  41.2311170  11.1698885  84.6907048  42.6366987   8.4761711  86.8072629
  41.6897323   8.3567063  86.7350955  42.9849760   7.5884209  86.8898890
  39.6413421   8.2714428  83.0076981  39.4938383   7.3431135  83.1884551
  40.4666914   8.2934518  82.5234056  43.2447542   9.0942986  84.0941854
  44.1694090   8.8885848  83.9566305  43.0762846   8.8459388  85.0031195
  39.6374935  -3.8747735  78.0009098  39.8538549  -2.9923097  77.6997926
  39.1569002  -4.2661521  77.2714740  34.3774156  -0.9162022  84.5779843
  34.2318737  -0.6021718  85.4704124  33.8999360  -0.2977121  84.0250741
  38.0896670  -3.4922133  86.6713860  37.8314448  -2.5705063  86.6698190
  37.5581710  -3.8891699  87.3614324  43.0342859   9.6128654  79.4503945
  43.2079736   9.0475076  78.6977797  43.5271750  10.4129549  79.2683435
  28.8519818   1.6243323  87.5167504  28.3073286   2.4003131  87.6487778
  29.7299168   1.9714127  87.3586625  48.8882250   2.3765077  81.0694245
  49.3313396   1.6272402  80.6713368  48.0108760   2.3675213  80.6867977
  44.0218031   8.9295418  76.5500843  44.7168936   9.5502111  76.7688158
  44.3641181   8.0790769  76.8253221  29.6385840   0.7513219  90.4097661
  28.8967576   0.8995855  90.9962291  29.3178585   1.0121485  89.5464410
  45.9209454   6.3795124  78.0788174  46.4460778   6.7182396  77.3537494
  45.8331807   5.4442139  77.8951309  37.5829503  10.2929197  90.2078051
  37.8916629  10.0478344  91.0800750  38.3804985  10.4975836  89.7196921
  37.6050115  12.4467107  82.4383427  37.1655105  11.9543486  83.1316284
  38.3558232  11.9040075  82.1975502  30.0842454   8.6378648  82.4408055
  30.9100474   8.3382420  82.0606699  29.7336506   7.8686270  82.8897844
  35.0523987   7.9905116  84.5105729  34.4303996   7.3275821  84.2107957
  35.7228854   8.0166248  83.8279377  28.2851059   6.5564974  83.3996989
  27.4482967   6.1287149  83.2180990  28.2574704   6.7497418  84.3367780
  45.6103360   7.0128027  93.3839372  44.8198904   6.9952166  92.8443871
  45.3736715   7.5516321  94.1388409  45.7301235   3.8620494  90.6972101
  45.7799240   3.6970501  91.6387623  45.6215159   2.9947753  90.3069981
  34.6137494   6.5409039  77.9864189  34.7625614   7.2244504  77.3330862
  35.4203937   6.5214130  78.5013645  43.0204998  -0.1548578  92.0131407
  43.9214860  -0.2942113  91.7215405  43.0952972   0.0105877  92.9529585
  37.3547803  -2.7781723  90.8584594  36.4851112  -2.4848157  90.5867182
  37.5907283  -2.1941278  91.5791857  47.2319432   6.2817435  90.9414122
  46.9404240   6.6447416  91.7777583  46.6191563   5.5684444  90.7627454
  48.4315114   3.8470315  83.4616692  49.2662006   4.2860119  83.6254253
  48.5674243   3.3708968  82.6424938  45.4806620   1.4050050  89.4094180
  45.9560742   1.5977696  88.6013031  44.5572186   1.4609236  89.1637564
  32.3690127   2.5674217  78.9925258  32.1236169   1.6636547  79.1905468
  32.5386042   2.5691368  78.0504736  40.0586837  -6.5602107  88.3750014
  40.5768781  -5.8241080  88.0496503  39.7041970  -6.2538113  89.2096773
  38.1132900   9.0357170  75.4575937  37.5406867   9.6547357  75.0046409
  38.6865693   9.5856532  75.9915859  44.1808289  -1.7184190  87.6422486
  45.1325712  -1.6186092  87.6634710  44.0111740  -2.5105921  88.1520570
  42.2022669  -4.6328607  87.8281887  41.6072601  -4.3523594  87.1328375
  41.9172366  -4.1434706  88.5998628  41.3330159   9.3194320  76.5884519
  42.2660832   9.2539882  76.7917395  41.2453372  10.1550587  76.1299052
  43.9618176   8.6360190  73.5488467  43.8831808   8.3020054  74.4424225
  44.7827843   9.1281958  73.5479939  46.6596367   1.5021930  86.7564785
  46.6272687   0.5637930  86.9424469  47.2696991   1.5805966  86.0230610
  38.4979698   0.3717983  72.7991989  39.4438803   0.2424191  72.8680407
  38.1193943  -0.3667355  73.2761418  46.8090856  -1.7067027  86.8023068
  46.2929904  -2.4908570  86.6152997  47.6930804  -2.0348310  86.9669588
  44.4701583  -7.9626011  82.7618881  44.2726404  -8.2710923  83.6462213
  45.0801288  -7.2364372  82.8916811  52.4772917   2.5637937  85.8970822
  53.2076305   2.3023225  86.4578525  51.8679862   1.8266658  85.9372890
  50.5588214   0.7045799  86.4945273  49.8321378   0.5701764  85.8861765
  50.1435501   1.0122628  87.3001991  38.3818391   4.4235729  94.2592646
  39.3021400   4.6014328  94.4532693  38.3467974   3.4791774  94.1072346
  36.6822615  -1.7032041  72.7346875  35.7754071  -1.9998928  72.8109588
  36.9598596  -2.0002223  71.8681161  31.3780463   2.3336763  86.9015427
  31.5966473   3.2653871  86.9203461  31.7906237   1.9744738  87.6870231
  36.2508328  -2.0930031  96.2918176  36.1505055  -1.1435674  96.2230268
  36.0329870  -2.4211792  95.4194247  27.4688816   3.2377234  85.1539043
  26.7752287   2.8231187  84.6408997  28.2161807   3.2797770  84.5572461
  43.6054036  -5.9716579  80.0194077  43.0252705  -5.3131775  79.6372129
  43.3389969  -6.7939235  79.6081494  42.0557603  -6.5711522  82.2215397
  42.5557381  -6.4594987  81.4129716  42.6993211  -6.8750469  82.8616206
  36.1139598   1.3367108  95.1083238  35.6306680   2.1367468  95.3147127
  36.2000538   1.3475053  94.1550682  29.3825558   3.1695488  83.0305057
  29.3596246   3.2683175  82.0786941  29.6926195   4.0160639  83.3522224
  32.0412936   5.2271643  87.1451672  32.9956190   5.1955585  87.0781603
  31.8425460   4.7662266  87.9601898  32.6312318   3.7972759  89.7122470
  33.4505207   4.2916837  89.7357307  32.9049126   2.8804727  89.6840037
  42.3878914  -3.8116489  79.0750425  41.5004769  -3.5266838  78.8570620
  42.8032903  -3.9722726  78.2277702  45.7393450  -3.7869968  82.7904764
  46.5153841  -3.2973515  83.0629381  45.0141585  -3.3611914  83.2476634
  48.1766009  -3.0742349  83.8478705  48.7710500  -3.3146613  83.1372013
  48.2492593  -3.7935218  84.4752241  30.3963165  10.7691262  84.1621870
  30.2617633  10.0091663  83.5959868  29.9795227  11.4932162  83.6950659
  41.5322128   5.9528186  73.1698445  42.2357978   6.1578188  73.7856101
  40.8084777   6.5204948  73.4347529  42.3619938   1.7038047  79.2900715
  42.3055139   2.1606598  78.4508348  42.9148281   0.9428732  79.1123558
  46.1724744  -2.5072221  80.1150835  45.9161678  -2.9075585  80.9459042
  45.5477612  -1.7928427  79.9900974  50.4837082   0.2323852  82.6222126
  49.9236640   0.3017041  83.3953688  49.8780585   0.0564837  81.9021622
  33.5532291  11.6660579  84.3740312  33.4364675  12.6106012  84.2719003
  32.7324737  11.3634141  84.7626112  43.4408825   6.3910715  75.2196905
  44.2754429   5.9591913  75.0374380  43.2793168   6.2192729  76.1473800
  43.0954717   2.8942828  76.5853244  43.0403521   2.7287100  75.6441688
  42.4700773   3.6018861  76.7415434  40.4100625   5.1991740  95.9106807
  41.2791784   5.3732392  95.5493442  39.9307376   6.0186157  95.7882536
  34.5786805  12.3188841  87.5896241  35.4814051  12.3512451  87.9062736
  34.3524175  11.3889292  87.6042577  36.3340407  11.0719828  84.2506319
  35.3836038  11.0721689  84.1370692  36.6372893  10.3252562  83.7342354
  52.0693100  16.9080366  85.3152082  52.7071510  16.7887113  84.6115422
  51.9513943  17.8561210  85.3740034  48.8782807  16.8607794  85.2513607
  48.5401318  16.7448859  84.3634141  49.7472575  16.4598959  85.2314613
  44.7369622  18.7143271  81.2410497  44.1734487  18.6233208  80.4726785
  44.6222017  17.8943175  81.7212990  49.3602590  18.0142646  91.2099812
  49.3491230  17.6195444  90.3380316  49.5223229  17.2808719  91.8033583
  42.2834054  20.2094462  84.0794718  43.0755346  19.8685287  83.6641017
  42.5230704  20.3189437  84.9996871  50.3169181  22.3814238  76.5524962
  49.6657161  22.9668319  76.1658976  51.1113544  22.9120433  76.6120000
  44.2424808  19.4703375  76.9512097  45.0155684  18.9232363  76.8124973
  44.5950207  20.3347625  77.1626558  46.0809851  20.7979758  90.1578996
  45.7899717  21.7025389  90.0425662  46.7166835  20.8396285  90.8723066
  47.0066058  18.1756606  86.7480356  47.6029630  17.9512629  86.0337319
  47.0641029  17.4341352  87.3505804  46.5791086  15.6296042  74.5830547
  46.8316607  15.1077563  73.8214010  45.6415645  15.4662187  74.6857230
  51.6234369  14.6331820  82.3905290  52.4097458  14.2151243  82.0395707
  51.8873073  15.5377912  82.5586938  51.7944446  20.0704670  77.0893947
  51.1590279  20.1439297  77.8014851  51.4641853  20.6598269  76.4113026
  57.0242796  14.5707053  83.2938268  57.7567968  14.0006270  83.5276098
  56.2682152  14.1828654  83.7344774  46.2987375  17.5324148  76.7854922
  46.1823633  16.8569051  77.4536006  46.4089635  17.0456521  75.9687075
  48.6418916  16.9934295  80.4901611  48.2777123  16.4664916  81.2014532
  49.4986032  16.6032764  80.3168096  54.5468216   8.2828627  87.7532877
  54.2151541   9.1524038  87.5294092  53.9513830   7.9664911  88.4326907
  48.2824403  12.0224194  75.4862959  48.4498805  12.8904431  75.8533430
  48.0921572  12.1851476  74.5624249  51.0399736  20.4841173  87.1528790
  50.7400459  21.3866212  87.0444597  50.6950795  20.2173356  88.0049943
  44.4912217  16.9354970  83.1865494  43.5662714  16.8031184  83.3943186
  44.7396630  17.7149189  83.6835437  54.4396880  13.0023713  84.8326227
  53.5313757  12.9339122  84.5384988  54.3884475  13.4795658  85.6608053
  48.2613623  14.4781852  76.4709626  48.1413249  14.9238903  77.3095106
  47.5666212  14.8267170  75.9123164  41.8521028  16.5788244  84.0209283
  41.9813409  16.8322723  84.9348695  41.1718480  17.1715952  83.7013938
  46.0220516  27.2485494  80.1199757  45.9444545  28.1993319  80.1988238
  45.4182159  26.9031366  80.7774684  48.5137745  14.4213359  92.7761124
  47.7371079  14.9807279  92.7663989  49.1528308  14.9070142  93.2975994
  56.3058526  11.2040152  86.6104101  55.6632906  11.4972685  85.9643896
  55.8013454  11.0893072  87.4157298  53.9598690  14.9503325  77.2989960
  54.8716546  15.1830712  77.1237658  53.4508337  15.5340369  76.7365039
  46.7684118  17.2298812  92.3379091  47.5098802  17.7683856  92.0613915
  46.0621103  17.8565101  92.4950643  52.2439457  19.3727953  90.9351253
  52.6522813  18.9310363  90.1905885  51.5216719  18.7980580  91.1885446
  48.5970527  14.3100560  88.3084810  49.4431723  14.7339973  88.4519459
  48.5369165  13.6534184  89.0023373  52.5668272  19.9329143  84.6903542
  51.9377134  20.0974858  83.9879610  52.1793934  20.3470753  85.4614506
  56.4457504  20.8683581  82.0447905  55.7608542  21.2482483  81.4944939
  56.5301353  21.4778908  82.7779853  51.7469973  11.9704928  89.9665983
  51.5030905  12.7246988  89.4300259  52.0229903  12.3490276  90.8013230
  53.7008435  18.5143540  88.6443249  53.9125331  19.1575300  87.9677630
  53.6538184  17.6805857  88.1765179  51.3034664  11.1261361  85.5479821
  50.4419143  11.4242615  85.8396559  51.3297099  11.3431760  84.6160854
  48.1196234  19.6703552  81.9553627  48.5834579  19.9491255  81.1658249
  47.8553032  18.7686996  81.7726717  45.0120315  19.2175033  84.8933390
  45.5821672  19.6462301  84.2550875  45.6028427  18.9357618  85.5917576
  47.0565120  15.7926704  78.7643192  47.7589163  16.2447748  79.2317118
  46.7245748  15.1510523  79.3923085  45.5045481  14.3838461  93.1394401
  44.8744142  15.0654741  93.3729798  45.3981569  14.2721542  92.1947540
  40.7990454  14.0510257  84.0660325  40.0089508  14.3067785  83.5900436
  41.2901701  14.8658594  84.1712366  54.8154263  21.3915496  86.8165606
  55.6371707  20.9895683  86.5348288  54.8116666  21.2883730  87.7681722
  42.7505199  14.4154836  81.0243802  41.9536362  14.5273530  81.5427298
  42.5230791  14.7541488  80.1584693  48.5810867  20.9399539  88.9726317
  48.6455299  21.4019946  89.8084489  47.8721791  20.3096904  89.1008627
  39.0828157  14.3040747  86.4975316  39.3336195  15.1887757  86.7632892
  39.6187705  14.1245349  85.7250408  62.9060256  17.7354244  83.1650578
  62.1523965  17.1661642  83.0094582  63.0407798  17.7016909  84.1121212
  48.2958884  22.6067647  78.8405297  48.1604559  23.4519182  79.2690145
  48.8368697  22.8086924  78.0771231  44.7826224   8.6859226  95.5019652
  44.3893170   8.1325425  96.1767297  45.5992364   8.9969805  95.8926170
  41.7488282  20.1243085  79.4133222  42.2612802  20.9186335  79.5638787
  42.4010995  19.4269375  79.3466824  43.5583167  23.2408841  81.4955975
  43.7349795  24.1626806  81.3076959  44.3540000  22.9267260  81.9250355
  47.6994185  10.1017105  93.0939909  48.4403898  10.7024259  93.0144371
  47.9312108   9.3594743  92.5357951  42.8435523  15.2873473  91.3718139
  42.7289038  14.3858730  91.6725238  41.9880041  15.5337170  91.0202955
  49.9227361  23.2291213  92.9705639  49.4791215  22.4427592  92.6526544
  50.5844574  23.4170364  92.3049530  44.6814482  24.7587015  87.4966318
  45.2321907  24.6304078  86.7243312  43.8425958  25.0581904  87.1461211
  52.0208599  23.5094013  90.9987040  52.0027074  24.3302894  90.5067310
  52.9428519  23.3848088  91.2237182  48.4781653  21.0238142  91.8410549
  49.0109990  20.2626431  91.6109857  47.9495734  20.7311794  92.5834703
  51.6451348   6.1298208  87.3704191  51.3015617   7.0199850  87.2943301
  52.0130311   5.9399866  86.5073776  39.7137199  18.4531739  80.1892793
  40.5512421  18.8628747  79.9726500  39.8915466  17.5131181  80.1592987
  51.6101631  16.1206820  75.8776626  51.0948254  16.8911424  76.1165013
  51.3378939  15.4471956  76.5009687  49.1948742  10.9656520  80.9361864
  48.3390338  10.5763371  80.7567503  49.6075694  11.0448481  80.0761650
  50.7247888   8.5002864  85.3353424  50.2212684   8.4632999  84.5221229
  51.0178495   9.4095606  85.3950080  46.9690774   8.5841593  84.3419606
  47.8343771   8.3884402  83.9825495  47.0368283   8.3551945  85.2688962
  56.5835905  18.8739174  77.8129799  55.8065348  18.5350334  77.3684961
  57.2627386  18.8791797  77.1384764  51.3987934  13.9933912  77.7036407
  51.0938070  14.3080061  78.5546550  52.3518376  14.0715332  77.7463740
  49.8434366  20.1524135  79.3529361  49.3155727  19.4176895  79.0402598
  49.3421869  20.9298811  79.1069329  54.8227212  18.3473155  84.4696407
  54.1650886  19.0372417  84.5576536  55.6267611  18.7369587  84.8130394
  44.5753093  10.8143801  81.7135972  45.1496845  10.5918983  80.9809165
  45.1624076  10.8832496  82.4664574  53.6332671  16.7017528  82.5200349
  54.1464552  17.3347520  83.0222059  54.2833894  16.1018724  82.1543709
  44.9022680  12.8448262  75.7331858  44.0659993  13.1822949  76.0541132
  44.7627450  12.7097242  74.7958995  46.8775761   7.6885050  80.4411042
  46.2240173   7.3734067  79.8167657  46.8356235   7.0660791  81.1670865
  47.9886966  17.9704345  72.3564334  47.0814028  17.7393599  72.5555483
  48.4857998  17.1741964  72.5438315  50.8955045  26.6801852  75.2761020
  50.2216744  26.9833549  75.8845978  51.2820867  27.4830933  74.9266477
  50.1113501  14.1766984  84.7658689  49.1936063  14.3981931  84.6080377
  50.5273645  14.2513294  83.9070397  50.8948549  15.5758399  79.8961370
  51.6420368  16.0879797  79.5868492  51.1640139  15.2542452  80.7565763
  49.1675199  18.0716940  76.8788324  48.2586419  17.7875973  76.9760794
  49.1970283  18.4916019  76.0191631  54.3994467  21.6823530  80.6479492
  53.9456794  20.8414439  80.7044682  53.7688434  22.3184928  80.9854272
  53.3427386  12.6115516  81.8780159  52.6050143  12.0992902  82.2090402
  53.5954160  12.1715897  81.0663436  52.8427406  23.5200026  81.5829310
  53.1350380  24.0805083  80.8641675  53.3526027  23.8128587  82.3382469
  53.4439014   5.3891768  82.4721928  53.7497891   4.5289131  82.1847843
  54.1691619   5.9809388  82.2720922  39.7363370  15.7922454  80.8603526
  39.5387770  15.1991815  80.1354593  39.1810034  15.4874664  81.5779465
  47.7160093  15.6845561  82.9798119  47.7708703  14.7319397  82.9040596
  46.9051295  15.8405000  83.4639418  48.8651287  19.6125684  74.2176403
  48.4270717  18.8961543  73.7582040  49.6061728  19.8401799  73.6561494
  45.6552453  14.3022620  80.7388498  44.8420319  14.6016791  81.1453690
  46.1511448  13.9078309  81.4562980  47.8061031  24.2980377  82.6722763
  47.7637210  24.5241224  81.7431295  48.7223730  24.0643752  82.8208564
  51.2526665  14.7664445  89.5703392  51.6076053  14.9935918  90.4297858
  51.8998796  15.0982822  88.9480647  56.9824402  17.8882881  80.2752721
  56.8442301  18.0784477  79.3473910  56.6260621  18.6502264  80.7320772
  45.1466528  11.8740976  86.3549733  45.7865907  11.7329735  85.6572696
  44.3144059  11.5875489  85.9788335  57.0093782  19.9559408  85.2863993
  57.4430288  19.8634697  86.1347047  57.7225362  19.9316908  84.6484009
  45.9226832  21.1743406  82.4684726  46.7167431  20.6793726  82.2667301
  45.2118524  20.6461269  82.1052431  50.7421676  23.5561502  86.8197093
  50.7958699  24.1252438  87.5874809  49.8736458  23.7263387  86.4551130
  42.2309595  15.3186488  78.5444478  41.3007184  15.2570944  78.7614440
  42.3267067  14.7962441  77.7481120  42.1495145  11.8441301  81.1322720
  42.4101962  12.7586634  81.0231880  42.9712317  11.3765743  81.2819333
  43.6220070  13.2579058  88.3021544  44.2943123  13.0496420  87.6534193
  42.7949856  13.0601144  87.8626777  57.8709331  19.9983108  87.8196878
  58.0645221  20.9028919  88.0656153  57.7709949  19.5390528  88.6535463
  49.5245642   9.8840999  90.3187205  48.8773557  10.5830949  90.2251682
  50.2946657  10.3177143  90.6863454  52.9324440  20.1489851  93.3937759
  52.7809946  19.9200403  92.4767842  52.9229119  21.1060453  93.4069104
  49.7009776  17.7221764  88.3784025  50.6301836  17.8732924  88.2052992
  49.2800806  17.8105785  87.5232672  48.4998108  21.7472428  86.1482563
  48.3609194  21.3791213  87.0208501  47.7112704  22.2620068  85.9766521
  49.0946260  26.8481525  77.4908099  49.2698016  26.3769568  78.3053722
  48.4079048  27.4747291  77.7189360  50.0503323  21.1254031  83.5371400
  49.7153156  21.0854801  84.4329050  49.5507269  20.4598747  83.0641811
  44.0247567  16.5321661  89.0623982  43.8867365  15.8001900  89.6635521
  44.9352491  16.4430561  88.7808169  52.9862515  18.4710065  73.8108460
  52.3691685  17.7456894  73.7141513  52.5179003  19.2319426  73.4675534
  46.6529868  16.2441620  88.5507661  47.3629486  15.6034813  88.5094280
  46.6099176  16.4954515  89.4733842  54.6416646  23.1808974  91.4714240
  54.5829193  22.4968194  90.8044824  55.0436165  23.9227964  91.0194866
  45.3658802  13.2306838  90.3703301  44.8296159  12.7797577  91.0224897
  44.7775510  13.3652747  89.6273765  43.6607345  29.9970888  84.2647959
  43.9003943  30.6289412  84.9426978  42.8176542  29.6458928  84.5513319
  44.7761061  12.6895490  72.9329764  43.8990527  12.5684290  72.5692011
  45.2518814  11.8981568  72.6808653  54.6434054  21.1448558  89.7028220
  53.7560833  20.8074479  89.8254619  55.2132605  20.4131589  89.9396986
  36.2963201  17.4772649  83.0271272  36.9834241  17.1634379  82.4392287
  36.1411330  18.3814014  82.7538523  41.0997923  12.3662846  87.4556295
  41.0156112  11.7588516  86.7206705  40.2780629  12.8571864  87.4565792
  48.1735207  25.8050010  86.6689463  48.1005379  26.6104982  87.1808768
  47.7312600  26.0041976  85.8437485  47.9624987  25.0421780  80.1792285
  47.1792509  25.5843460  80.2730509  48.6617732  25.5595760  80.5786526
  51.2721637  10.8516410  82.8226490  51.7690336  10.0986372  82.5027561
  50.5008618  10.8880726  82.2569700  59.1251394  16.5556775  84.4644782
  59.1141271  17.4381490  84.0938715  58.2568774  16.2028326  84.2699319
  50.6333891  25.7036844  88.8247622  51.3461863  26.3384309  88.7523524
  50.1423919  25.8000710  88.0087624  52.3551418  19.6088097  80.3964914
  51.4207696  19.7289559  80.2269618  52.5328086  18.7060564  80.1324924
  47.8556606  12.9933793  82.5498175  47.4854393  12.4404833  83.2379080
  48.3515698  12.3891926  81.9973175  55.7423969  15.4505416  80.9314948
  56.2084421  16.2833408  80.8575251  56.1931469  14.9850398  81.6360206
  45.6845804  23.4531288  89.6453193  46.3855264  24.0867770  89.7982587
  45.2140919  23.7946019  88.8848832  53.8100200  21.7949237  77.9301100
  54.0860044  21.6805832  78.8394974  52.9404699  21.3966722  77.8913273
  53.7140632   7.8186003  84.9705849  52.8003711   8.0490230  85.1388056
  54.1433733   7.9024447  85.8219882  53.4847090  16.0075895  87.4705743
  52.8318540  16.2551802  86.8158196  53.8627470  15.1940033  87.1368221
  50.4454264  26.0435588  81.5733914  50.6276659  25.2257244  82.0361666
  51.2687250  26.2603280  81.1358804  50.7796430  24.9703773  78.8348962
  51.3084196  24.4596228  78.2219124  51.0424649  24.6546303  79.6994495
  49.5334663  16.7495706  93.9571780  48.8575300  16.6489835  94.6274156
  50.3562297  16.5934920  94.4207778  41.2813522  22.9867643  86.5784296
  41.8666959  22.2411330  86.7112200  41.0838361  23.2971599  87.4620959
  44.1352177  26.0218890  81.5946738  43.4662553  26.5065018  81.1110778
  43.9965047  26.2688110  82.5090116  35.8731177  15.5573243  85.2988739
  35.9115277  15.0236833  86.0925857  35.3671470  15.0308448  84.6799716
  48.2757446  28.0562633  88.1929396  48.8275754  28.2194255  88.9578482
  48.6163640  28.6467071  87.5209421  43.2521939  10.4037783  88.7951281
  43.3163266  11.2652614  88.3828679  43.1889060   9.7911785  88.0623640
  42.7274212  12.4760916  92.4424315  43.3546251  12.0937993  93.0561840
  41.8702131  12.2575118  92.8080008  53.1268320  22.8823891  94.0478051
  53.6708224  23.4953849  93.5533006  52.5455165  23.4403469  94.5645064
  39.5039755  14.2837345  78.3742670  39.7993196  13.3748023  78.3209724
  38.6027790  14.2625084  78.0523672  51.4125833  26.0044609  85.1793078
  51.2876973  25.2034349  84.6704024  52.0704924  26.4990802  84.6907048
  43.0334002  12.3593341  84.3570219  42.3120587  12.9729309  84.2177692
  43.8227257  12.8951106  84.2786865  53.4760742  23.8053629  86.8072629
  52.5291077  23.6858980  86.7350955  53.8243515  22.9176127  86.8898890
  45.8360315   9.6947768  90.6310870  46.3594717   9.9410065  91.3937180
  45.6172648  10.5267803  90.2114008  41.2327596  11.9651443  78.4981995
  40.9040302  11.0848822  78.3157101  41.5866967  11.9099111  79.3858384
  50.4807175  23.6006345  83.0076981  50.3332137  22.6723053  83.1884551
  51.3060669  23.6226436  82.5234056  44.3469419  12.2524412  78.8657473
  44.6865492  12.7810334  78.1436081  44.7941540  12.5904819  79.6416039
  54.0841297  24.4234904  84.0941854  55.0087844  24.2177765  83.9566305
  53.9156600  24.1751305  85.0031195  47.0412860  10.6361463  88.3160541
  46.7009680   9.8369276  88.7181221  46.3351866  10.9363174  87.7437374
  47.6929332   7.7210776  86.7687864  48.5155401   7.2471254  86.6466754
  47.9367395   8.5001259  87.2686550  46.3337566  10.7499034  77.0650766
  47.0545929  11.1280287  76.5614483  45.7102871  11.4687911  77.1685744
  50.4768689  11.4544183  78.0009098  50.6932304  12.3368821  77.6997926
  49.9962756  11.0630396  77.2714740  45.2167911  14.4129896  84.5779843
  45.0712491  14.7270199  85.4704124  44.7393114  15.0314797  84.0250741
  47.0764294  11.4032444  84.6260732  47.0625862  10.5073537  84.2893030
  47.7936722  11.4103108  85.2599018  48.9290424  11.8369784  86.6713860
  48.6708202  12.7586855  86.6698190  48.3975465  11.4400219  87.3614324
  53.8736613  24.9420571  79.4503945  54.0473491  24.3766994  78.6977797
  54.3665504  25.7421466  79.2683435  39.6913573  16.9535241  87.5167504
  39.1467041  17.7295049  87.6487778  40.5692923  17.3006045  87.3586625
  46.4801190  10.2846824  79.8948302  46.6017101   9.3563471  80.0939190
  46.1903232  10.2985510  78.9826618  49.3492380   7.9701735  83.0315022
  49.3714077   8.0341068  82.0767002  49.7660439   7.1306244  83.2255528
  59.7276004  17.7056994  81.0694245  60.1707150  16.9564320  80.6713368
  58.8502515  17.6967131  80.6867977  54.8611786  24.2587336  76.5500843
  55.5562690  24.8794029  76.7688158  55.2034936  23.4082687  76.8253221
  40.4779595  16.0805137  90.4097661  39.7361331  16.2287772  90.9962291
  40.1572339  16.3413402  89.5464410  56.7603209  21.7087041  78.0788174
  57.2854533  22.0474314  77.3537494  56.6725561  20.7734057  77.8951309
  48.4223257  25.6221115  90.2078051  48.7310384  25.3770262  91.0800750
  49.2198739  25.8267754  89.7196921  48.4443869  27.7759025  82.4383427
  48.0048860  27.2835403  83.1316284  49.1951986  27.2331992  82.1975502
  40.9236208  23.9670566  82.4408055  41.7494228  23.6674337  82.0606699
  40.5730260  23.1978188  82.8897844  45.8917742  23.3197034  84.5105729
  45.2697751  22.6567739  84.2107957  46.5622608  23.3458166  83.8279377
  39.1244813  21.8856892  83.3996989  38.2876722  21.4579066  83.2180990
  39.0968459  22.0789335  84.3367780  45.9642269  11.7978822  94.1038235
  46.0130425  12.6740945  93.7216005  46.5064783  11.2556215  93.5309878
  56.4497115  22.3419945  93.3839372  55.6592658  22.3244084  92.8443871
  56.2130469  22.8808239  94.1388409  56.5694990  19.1912411  90.6972101
  56.6192995  19.0262419  91.6387623  56.4608913  18.3239670  90.3069981
  45.4531248  21.8700957  77.9864189  45.6019369  22.5536422  77.3330862
  46.2597692  21.8506047  78.5013645  53.8598752  15.1743339  92.0131407
  54.7608615  15.0349804  91.7215405  53.9346727  15.3397794  92.9529585
  48.1941558  12.5510194  90.8584594  47.3244867  12.8443760  90.5867182
  48.4301038  13.1350639  91.5791857  58.0713187  21.6109353  90.9414122
  57.7797995  21.9739333  91.7777583  57.4585318  20.8976361  90.7627454
  59.2708869  19.1762233  83.4616692  60.1055760  19.6152037  83.6254253
  59.4067998  18.7000886  82.6424938  56.3200375  16.7341968  89.4094180
  56.7954496  16.9269614  88.6013031  55.3965940  16.7901153  89.1637564
  43.2083881  17.8966135  78.9925258  42.9629923  16.9928465  79.1905468
  43.3779796  17.8983285  78.0504736  50.8980591   8.7689811  88.3750014
  51.4162535   9.5050838  88.0496503  50.5435724   9.0753804  89.2096773
  42.4779529  13.6294492  76.4911420  41.7848774  13.7038847  75.8351456
  42.2331281  12.8654836  77.0132937  51.1493186   5.1890094  83.8950911
  51.4294939   4.5213283  84.5211337  51.9343792   5.3819189  83.3825574
  48.9526654  24.3649088  75.4575937  48.3800621  24.9839275  75.0046409
  49.5259448  24.9148449  75.9915859  55.0202044  13.6107728  87.6422486
  55.9719467  13.7105825  87.6634710  54.8505494  12.8185996  88.1520570
  53.0416423  10.6963311  87.8281887  52.4466355  10.9768324  87.1328375
  52.7566120  11.1857212  88.5998628  52.1723914  24.6486238  76.5884519
  53.1054587  24.5831799  76.7917395  52.0847127  25.4842505  76.1299052
  54.8011930  23.9652108  73.5488467  54.7225562  23.6311972  74.4424225
  55.6221597  24.4573876  73.5479939  57.4990122  16.8313847  86.7564785
  57.4666442  15.8929848  86.9424469  58.1090745  16.9097884  86.0230610
  49.3373453  15.7009900  72.7991989  50.2832557  15.5716108  72.8680407
  48.9587697  14.9624562  73.2761418  57.6484610  13.6224891  86.8023068
  57.1323659  12.8383347  86.6152997  58.5324559  13.2943607  86.9669588
  55.3095337   7.3665906  82.7618881  55.1120158   7.0580995  83.6462213
  55.9195043   8.0927545  82.8916811  63.3166672  17.8929854  85.8970822
  64.0470060  17.6315142  86.4578525  62.7073617  17.1558576  85.9372890
  61.3981969  16.0337717  86.4945273  60.6715132  15.8993682  85.8861765
  60.9829256  16.3414545  87.3001991  49.2212145  19.7527646  94.2592646
  50.1415155  19.9306245  94.4532693  49.1861728  18.8083692  94.1072346
  47.5216370  13.6259877  72.7346875  46.6147825  13.3292989  72.8109588
  47.7992351  13.3289695  71.8681161  38.4394310  14.9466240  83.1845921
  38.1197094  14.0931548  82.8920295  37.8927738  15.1614818  83.9403888
  42.2174218  17.6628681  86.9015427  42.4360227  18.5945789  86.9203461
  42.6299991  17.3036656  87.6870231  49.1378435   8.1696766  78.8891116
  48.3279164   7.8243851  79.2646362  49.8262852   7.8604310  79.4778727
  51.0668984   7.2474813  80.5115413  51.6200022   7.6670267  81.1705436
  51.3039070   6.3210561  80.5538369  47.0902083  13.2361887  96.2918176
  46.9898810  14.1856244  96.2230268  46.8723625  12.9080126  95.4194247
  46.2915154  10.4846812  72.8758854  47.1534318  10.8101710  73.1354671
  46.4765498   9.6978308  72.3631920  38.3082570  18.5669152  85.1539043
  37.6146041  18.1523104  84.6408997  39.0555561  18.6089688  84.5572461
  54.4447791   9.3575338  80.0194077  53.8646460  10.0160142  79.6372129
  54.1783723   8.5352683  79.6081494  52.8951357   8.7580396  82.2215397
  53.3951135   8.8696931  81.4129716  53.5386965   8.4541449  82.8616206
  46.9533353  16.6659026  95.1083238  46.4700435  17.4659386  95.3147127
  47.0394292  16.6766971  94.1550682  40.2219313  18.4987405  83.0305057
  40.1990001  18.5975093  82.0786941  40.5319949  19.3452556  83.3522224
  42.8806690  20.5563560  87.1451672  43.8349944  20.5247503  87.0781603
  42.6819214  20.0954184  87.9601898  43.4706073  19.1264676  89.7122470
  44.2898962  19.6208755  89.7357307  43.7442880  18.2096645  89.6840037
  53.2272669  11.5175429  79.0750425  52.3398524  11.8025079  78.8570620
  53.6426658  11.3569192  78.2277702  56.5787205  11.5421950  82.7904764
  57.3547595  12.0318402  83.0629381  55.8535339  11.9680004  83.2476634
  59.0159764  12.2549569  83.8478705  59.6104254  12.0145305  83.1372013
  59.0886347  11.5356700  84.4752241  41.2356919  26.0983180  84.1621870
  41.1011387  25.3383581  83.5959868  40.8188982  26.8224080  83.6950659
  52.3715882  21.2820103  73.1698445  53.0751732  21.4870106  73.7856101
  51.6478531  21.8496865  73.4347529  53.2013693  17.0329965  79.2900715
  53.1448894  17.4898516  78.4508348  53.7542035  16.2720649  79.1123558
  57.0118498  12.8219697  80.1150835  56.7555433  12.4216332  80.9459042
  56.3871366  13.5363491  79.9900974  61.3230836  15.5615770  82.6222126
  60.7630394  15.6308959  83.3953688  60.7174340  15.3856754  81.9021622
  44.3926045  26.9952497  84.3740312  44.2758429  27.9397929  84.2719003
  43.5718491  26.6926058  84.7626112  54.2802580  21.7202633  75.2196905
  55.1148184  21.2883831  75.0374380  54.1186923  21.5484646  76.1473800
  53.9348472  18.2234746  76.5853244  53.8797276  18.0579017  75.6441688
  53.3094527  18.9310779  76.7415434  38.7240987  13.4602810  90.4114667
  39.3699850  12.9501764  90.9001892  38.5158138  14.1971492  90.9858092
  51.2494379  20.5283658  95.9106807  52.1185539  20.7024310  95.5493442
  50.7701130  21.3478075  95.7882536  47.2444597   7.7242855  76.1638563
  47.2323267   8.6684695  76.3206834  48.1368019   7.5413000  75.8698024
  45.4180559  27.6480759  87.5896241  46.3207806  27.6804369  87.9062736
  45.1917929  26.7181210  87.6042577  47.1734161  26.4011745  84.2506319
  46.2229792  26.4013607  84.1370692  47.4766647  25.6544480  83.7342354
  51.0596717   4.3185632  80.4184500  50.2929113   3.7644118  80.5641182
  51.4707422   4.3907500  81.2798651  43.0638478  10.6070427  94.5089681
  43.9269939  10.2507232  94.7193005  42.4903888  10.2684322  95.1965085
  62.9086855  32.2372284  85.3152082  63.5465265  32.1179031  84.6115422
  62.7907698  33.1853128  85.3740034  59.7176561  32.1899712  85.2513607
  59.3795073  32.0740777  84.3634141  60.5866329  31.7890877  85.2314613
  55.5763377  34.0435188  81.2410497  55.0128242  33.9525125  80.4726785
  55.4615772  33.2235093  81.7212990  60.1996344  33.3434564  91.2099812
  60.1884985  32.9487362  90.3380316  60.3616984  32.6100636  91.8033583
  53.1227809  35.5386380  84.0794718  53.9149101  35.1977205  83.6641017
  53.3624459  35.6481355  84.9996871  61.1562935  37.7106156  76.5524962
  60.5050915  38.2960236  76.1658976  61.9507298  38.2412351  76.6120000
  55.0818563  34.7995293  76.9512097  55.8549439  34.2524280  76.8124973
  55.4343961  35.6639542  77.1626558  56.9203605  36.1271675  90.1578996
  56.6293471  37.0317306  90.0425662  57.5560590  36.1688203  90.8723066
  57.8459812  33.5048524  86.7480356  58.4423384  33.2804546  86.0337319
  57.9034784  32.7633269  87.3505804  57.4184840  30.9587959  74.5830547
  57.6710361  30.4369481  73.8214010  56.4809400  30.7954105  74.6857230
  62.4628123  29.9623738  82.3905290  63.2491212  29.5443161  82.0395707
  62.7266828  30.8669830  82.5586938  62.6338201  35.3996588  77.0893947
  61.9984034  35.4731214  77.8014851  62.3035607  35.9890187  76.4113026
  67.8636550  29.8998971  83.2938268  68.5961722  29.3298188  83.5276098
  67.1075906  29.5120571  83.7344774  57.1381129  32.8616065  76.7854922
  57.0217387  32.1860969  77.4536006  57.2483389  32.3748439  75.9687075
  59.4812670  32.3226212  80.4901611  59.1170877  31.7956833  81.2014532
  60.3379786  31.9324681  80.3168096  65.3861971  23.6120545  87.7532877
  65.0545296  24.4815956  87.5294092  64.7907584  23.2956829  88.4326907
  59.1218157  27.3516112  75.4862959  59.2892559  28.2196348  75.8533430
  58.9315326  27.5143394  74.5624249  61.8793490  35.8133091  87.1528790
  61.5794213  36.7158130  87.0444597  61.5344550  35.5465274  88.0049943
  55.3305972  32.2646888  83.1865494  54.4056468  32.1323102  83.3943186
  55.5790385  33.0441107  83.6835437  65.2790634  28.3315631  84.8326227
  64.3707511  28.2631040  84.5384988  65.2278230  28.8087576  85.6608053
  59.1007378  29.8073769  76.4709626  58.9807003  30.2530820  77.3095106
  58.4059966  30.1559087  75.9123164  52.6914783  31.9080161  84.0209283
  52.8207164  32.1614640  84.9348695  52.0112234  32.5007869  83.7013938
  56.8614270  42.5777411  80.1199757  56.7838300  43.5285236  80.1988238
  56.2575914  42.2323284  80.7774684  59.3531500  29.7505277  92.7761124
  58.5764834  30.3099197  92.7663989  59.9922063  30.2362060  93.2975994
  67.1452280  26.5332069  86.6104101  66.5026661  26.8264603  85.9643896
  66.6407209  26.4184990  87.4157298  64.7992444  30.2795243  77.2989960
  65.7110300  30.5122629  77.1237658  64.2902091  30.8632287  76.7365039
  57.6077872  32.5590730  92.3379091  58.3492556  33.0975774  92.0613915
  56.9014858  33.1857019  92.4950643  63.0833212  34.7019871  90.9351253
  63.4916568  34.2602281  90.1905885  62.3610473  34.1272498  91.1885446
  59.4364282  29.6392477  88.3084810  60.2825477  30.0631891  88.4519459
  59.3762919  28.9826102  89.0023373  63.4062026  35.2621061  84.6903542
  62.7770889  35.4266775  83.9879610  63.0187688  35.6762671  85.4614506
  67.2851258  36.1975499  82.0447905  66.6002296  36.5774400  81.4944939
  67.3695108  36.8070826  82.7779853  62.5863727  27.2996846  89.9665983
  62.3424659  28.0538906  89.4300259  62.8623658  27.6782193  90.8013230
  64.5402190  33.8435458  88.6443249  64.7519085  34.4867218  87.9677630
  64.4931938  33.0097775  88.1765179  62.1428419  26.4553279  85.5479821
  61.2812898  26.7534532  85.8396559  62.1690854  26.6723678  84.6160854
  58.9589988  34.9995469  81.9553627  59.4228334  35.2783172  81.1658249
  58.6946786  34.0978914  81.7726717  55.8514069  34.5466951  84.8933390
  56.4215426  34.9754219  84.2550875  56.4422181  34.2649535  85.5917576
  57.8958874  31.1218622  78.7643192  58.5982918  31.5739665  79.2317118
  57.5639503  30.4802440  79.3923085  56.3439236  29.7130378  93.1394401
  55.7137896  30.3946659  93.3729798  56.2375324  29.6013460  92.1947540
  51.6384208  29.3802174  84.0660325  50.8483262  29.6359703  83.5900436
  52.1295456  30.1950512  84.1712366  65.6548018  36.7207413  86.8165606
  66.4765462  36.3187601  86.5348288  65.6510421  36.6175648  87.7681722
  53.5898954  29.7446754  81.0243802  52.7930117  29.8565448  81.5427298
  53.3624546  30.0833406  80.1584693  59.4204621  36.2691457  88.9726317
  59.4849054  36.7311864  89.8084489  58.7115545  35.6388822  89.1008627
  49.9221911  29.6332665  86.4975316  50.1729950  30.5179675  86.7632892
  50.4581460  29.4537266  85.7250408  73.7454011  33.0646162  83.1650578
  72.9917719  32.4953560  83.0094582  73.8801552  33.0308826  84.1121212
  59.1352639  37.9359564  78.8405297  58.9998314  38.7811100  79.2690145
  59.6762451  38.1378842  78.0771231  55.6219979  24.0151144  95.5019652
  55.2286924  23.4617343  96.1767297  56.4386119  24.3261723  95.8926170
  52.5882036  35.4535002  79.4133222  53.1006557  36.2478253  79.5638787
  53.2404749  34.7561293  79.3466824  54.3976921  38.5700759  81.4955975
  54.5743549  39.4918723  81.3076959  55.1933755  38.2559178  81.9250355
  58.5387940  25.4309023  93.0939909  59.2797653  26.0316176  93.0144371
  58.7705862  24.6886661  92.5357951  53.6829278  30.6165390  91.3718139
  53.5682793  29.7150648  91.6725238  52.8273795  30.8629087  91.0202955
  60.7621115  38.5583131  92.9705639  60.3184970  37.7719509  92.6526544
  61.4238329  38.7462281  92.3049530  55.5208237  40.0878932  87.4966318
  56.0715662  39.9595996  86.7243312  54.6819712  40.3873821  87.1461211
  62.8602353  38.8385931  90.9987040  62.8420829  39.6594812  90.5067310
  63.7822273  38.7140006  91.2237182  59.3175408  36.3530060  91.8410549
  59.8503744  35.5918348  91.6109857  58.7889489  36.0603712  92.5834703
  62.4845103  21.4590126  87.3704191  62.1409372  22.3491768  87.2943301
  62.8524065  21.2691784  86.5073776  50.5530953  33.7823657  80.1892793
  51.3906175  34.1920665  79.9726500  50.7309221  32.8423099  80.1592987
  62.4495385  31.4498737  75.8776626  61.9342009  32.2203342  76.1165013
  62.1772694  30.7763873  76.5009687  60.0342496  26.2948438  80.9361864
  59.1784093  25.9055288  80.7567503  60.4469448  26.3740399  80.0761650
  61.5641643  23.8294781  85.3353424  61.0606439  23.7924916  84.5221229
  61.8572250  24.7387524  85.3950080  57.8084529  23.9133511  84.3419606
  58.6737526  23.7176320  83.9825495  57.8762038  23.6843863  85.2688962
  67.4229659  34.2031092  77.8129799  66.6459102  33.8642251  77.3684961
  68.1021140  34.2083715  77.1384764  62.2381688  29.3225829  77.7036407
  61.9331824  29.6371978  78.5546550  63.1912131  29.4007249  77.7463740
  60.6828120  35.4816053  79.3529361  60.1549482  34.7468812  79.0402598
  60.1815623  36.2590729  79.1069329  65.6620966  33.6765073  84.4696407
  65.0044641  34.3664334  84.5576536  66.4661366  34.0661505  84.8130394
  55.4146848  26.1435719  81.7135972  55.9890600  25.9210900  80.9809165
  56.0017830  26.2124413  82.4664574  64.4726425  32.0309446  82.5200349
  64.9858307  32.6639438  83.0222059  65.1227649  31.4310641  82.1543709
  55.7416435  28.1740180  75.7331858  54.9053747  28.5114866  76.0541132
  55.6021205  28.0389160  74.7958995  57.7169516  23.0176968  80.4411042
  57.0633928  22.7025985  79.8167657  57.6749990  22.3952708  81.1670865
  58.8280720  33.2996263  72.3564334  57.9207782  33.0685516  72.5555483
  59.3251752  32.5033882  72.5438315  61.7348799  42.0093770  75.2761020
  61.0610498  42.3125467  75.8845978  62.1214621  42.8122850  74.9266477
  60.9507256  29.5058901  84.7658689  60.0329817  29.7273848  84.6080377
  61.3667400  29.5805212  83.9070397  61.7342304  30.9050317  79.8961370
  62.4814123  31.4171714  79.5868492  62.0033893  30.5834370  80.7565763
  60.0068954  33.4008858  76.8788324  59.0980173  33.1167891  76.9760794
  60.0364038  33.8207936  76.0191631  65.2388221  37.0115447  80.6479492
  64.7850548  36.1706357  80.7044682  64.6082188  37.6476846  80.9854272
  64.1821141  27.9407433  81.8780159  63.4443898  27.4284819  82.2090402
  64.4347914  27.5007815  81.0663436  63.6821161  38.8491944  81.5829310
  63.9744135  39.4097001  80.8641675  64.1919781  39.1420505  82.3382469
  64.2832768  20.7183685  82.4721928  64.5891645  19.8581049  82.1847843
  65.0085373  21.3101305  82.2720922  50.5757124  31.1214372  80.8603526
  50.3781524  30.5283733  80.1354593  50.0203788  30.8166582  81.5779465
  58.5553848  31.0137478  82.9798119  58.6102458  30.0611315  82.9040596
  57.7445050  31.1696917  83.4639418  59.7045042  34.9417601  74.2176403
  59.2664472  34.2253460  73.7582040  60.4455483  35.1693716  73.6561494
  56.4946208  29.6314538  80.7388498  55.6814073  29.9308709  81.1453690
  56.9905202  29.2370227  81.4562980  58.6454786  39.6272295  82.6722763
  58.6030965  39.8533141  81.7431295  59.5617485  39.3935670  82.8208564
  62.0920420  30.0956363  89.5703392  62.4469807  30.3227836  90.4297858
  62.7392551  30.4274739  88.9480647  67.8218156  33.2174798  80.2752721
  67.6836055  33.4076394  79.3473910  67.4654375  33.9794181  80.7320772
  55.9860283  27.2032894  86.3549733  56.6259662  27.0621653  85.6572696
  55.1537813  26.9167407  85.9788335  67.8487536  35.2851325  85.2863993
  68.2824043  35.1926615  86.1347047  68.5619117  35.2608826  84.6484009
  56.7620587  36.5035324  82.4684726  57.5561185  36.0085644  82.2667301
  56.0512279  35.9753187  82.1052431  61.5815431  38.8853420  86.8197093
  61.6352453  39.4544356  87.5874809  60.7130212  39.0555305  86.4551130
  53.0703350  30.6478406  78.5444478  52.1400938  30.5862861  78.7614440
  53.1660822  30.1254359  77.7481120  52.9888899  27.1733219  81.1322720
  53.2495716  28.0878552  81.0231880  53.8106071  26.7057661  81.2819333
  54.4613824  28.5870976  88.3021544  55.1336878  28.3788338  87.6534193
  53.6343611  28.3893062  87.8626777  68.7103086  35.3275026  87.8196878
  68.9038976  36.2320837  88.0656153  68.6103704  34.8682445  88.6535463
  60.3639396  25.2132917  90.3187205  59.7167311  25.9122866  90.2251682
  61.1340412  25.6469061  90.6863454  63.7718194  35.4781769  93.3937759
  63.6203701  35.2492321  92.4767842  63.7622874  36.4352370  93.4069104
  60.5403531  33.0513682  88.3784025  61.4695591  33.2024841  88.2052992
  60.1194561  33.1397702  87.5232672  59.3391863  37.0764346  86.1482563
  59.2002948  36.7083130  87.0208501  58.5506459  37.5911985  85.9766521
  59.9340014  42.1773442  77.4908099  60.1091770  41.7061486  78.3053722
  59.2472803  42.8039209  77.7189360  60.8897078  36.4545949  83.5371400
  60.5546910  36.4146719  84.4329050  60.3901023  35.7890665  83.0641811
  54.8641322  31.8613579  89.0623982  54.7261120  31.1293818  89.6635521
  55.7746245  31.7722479  88.7808169  63.8256269  33.8001983  73.8108460
  63.2085440  33.0748811  73.7141513  63.3572758  34.5611343  73.4675534
  57.4923622  31.5733538  88.5507661  58.2023241  30.9326730  88.5094280
  57.4492930  31.8246433  89.4733842  65.4810401  38.5100891  91.4714240
  65.4222947  37.8260112  90.8044824  65.8829919  39.2519881  91.0194866
  56.2052556  28.5598756  90.3703301  55.6689913  28.1089494  91.0224897
  55.6169265  28.6944665  89.6273765  54.5001100  45.3262805  84.2647959
  54.7397698  45.9581329  84.9426978  53.6570296  44.9750845  84.5513319
  55.6154815  28.0187407  72.9329764  54.7384282  27.8976208  72.5692011
  56.0912568  27.2273486  72.6808653  65.4827808  36.4740475  89.7028220
  64.5954587  36.1366397  89.8254619  66.0526359  35.7423507  89.9396986
  47.1356955  32.8064567  83.0271272  47.8227995  32.4926297  82.4392287
  46.9805084  33.7105932  82.7538523  51.9391677  27.6954764  87.4556295
  51.8549866  27.0880433  86.7206705  51.1174384  28.1863782  87.4565792
  59.0128962  41.1341928  86.6689463  58.9399133  41.9396899  87.1808768
  58.5706355  41.3333894  85.8437485  58.8018741  40.3713698  80.1792285
  58.0186263  40.9135378  80.2730509  59.5011486  40.8887677  80.5786526
  62.1115391  26.1808327  82.8226490  62.6084091  25.4278290  82.5027561
  61.3402373  26.2172644  82.2569700  69.9645149  31.8848693  84.4644782
  69.9535025  32.7673408  84.0938715  69.0962528  31.5320244  84.2699319
  61.4727645  41.0328762  88.8247622  62.1855617  41.6676227  88.7523524
  60.9817674  41.1292628  88.0087624  63.1945172  34.9380014  80.3964914
  62.2601451  35.0581477  80.2269618  63.3721841  34.0352481  80.1324924
  58.6950360  28.3225710  82.5498175  58.3248148  27.7696751  83.2379080
  59.1909453  27.7183844  81.9973175  66.5817723  30.7797334  80.9314948
  67.0478176  31.6125325  80.8575251  67.0325224  30.3142315  81.6360206
  56.5239559  38.7823205  89.6453193  57.2249018  39.4159688  89.7982587
  56.0534674  39.1237937  88.8848832  64.6493955  37.1241155  77.9301100
  64.9253798  37.0097750  78.8394974  63.7798453  36.7258640  77.8913273
  64.5534386  23.1477921  84.9705849  63.6397466  23.3782148  85.1388056
  64.9827488  23.2316365  85.8219882  64.3240845  31.3367813  87.4705743
  63.6712295  31.5843720  86.8158196  64.7021225  30.5231951  87.1368221
  61.2848019  41.3727506  81.5733914  61.4670413  40.5549162  82.0361666
  62.1081005  41.5895198  81.1358804  61.6190184  40.2995691  78.8348962
  62.1477950  39.7888146  78.2219124  61.8818404  39.9838221  79.6994495
  60.3728418  32.0787624  93.9571780  59.6969055  31.9781753  94.6274156
  61.1956052  31.9226837  94.4207778  52.1207277  38.3159560  86.5784296
  52.7060714  37.5703248  86.7112200  51.9232115  38.6263517  87.4620959
  54.9745932  41.3510808  81.5946738  54.3056307  41.8356935  81.1110778
  54.8358802  41.5980028  82.5090116  46.7124931  30.8865160  85.2988739
  46.7509031  30.3528751  86.0925857  46.2065224  30.3600366  84.6799716
  59.1151201  43.3854551  88.1929396  59.6669509  43.5486173  88.9578482
  59.4557394  43.9758989  87.5209421  54.0915694  25.7329701  88.7951281
  54.1557020  26.5944532  88.3828679  54.0282814  25.1203703  88.0623640
  53.5667966  27.8052833  92.4424315  54.1940005  27.4229911  93.0561840
  52.7095885  27.5867035  92.8080008  63.9662075  38.2115809  94.0478051
  64.5101979  38.8245767  93.5533006  63.3848920  38.7695387  94.5645064
  50.3433509  29.6129263  78.3742670  50.6386950  28.7039941  78.3209724
  49.4421545  29.5917002  78.0523672  62.2519588  41.3336527  85.1793078
  62.1270727  40.5326267  84.6704024  62.9098679  41.8282720  84.6907048
  53.8727756  27.6885259  84.3570219  53.1514342  28.3021227  84.2177692
  54.6621012  28.2243024  84.2786865  64.3154496  39.1345547  86.8072629
  63.3684832  39.0150898  86.7350955  64.6637269  38.2468045  86.8898890
  56.6754070  25.0239686  90.6310870  57.1988471  25.2701982  91.3937180
  56.4566403  25.8559720  90.2114008  52.0721351  27.2943360  78.4981995
  51.7434057  26.4140739  78.3157101  52.4260721  27.2391029  79.3858384
  61.3200930  38.9298263  83.0076981  61.1725892  38.0014970  83.1884551
  62.1454423  38.9518354  82.5234056  55.1863174  27.5816330  78.8657473
  55.5259246  28.1102251  78.1436081  55.6335294  27.9196736  79.6416039
  64.9235051  39.7526822  84.0941854  65.8481599  39.5469683  83.9566305
  64.7550355  39.5043223  85.0031195  57.8806615  25.9653381  88.3160541
  57.5403435  25.1661194  88.7181221  57.1745621  26.2655092  87.7437374
  58.5323086  23.0502693  86.7687864  59.3549156  22.5763171  86.6466754
  58.7761150  23.8293177  87.2686550  57.1731321  26.0790952  77.0650766
  57.8939683  26.4572204  76.5614483  56.5496625  26.7979828  77.1685744
  61.3162444  26.7836101  78.0009098  61.5326058  27.6660738  77.6997926
  60.8356511  26.3922314  77.2714740  56.0561665  29.7421814  84.5779843
  55.9106246  30.0562117  85.4704124  55.5786869  30.3606714  84.0250741
  57.9158048  26.7324362  84.6260732  57.9019617  25.8365455  84.2893030
  58.6330476  26.7395026  85.2599018  59.7684179  27.1661702  86.6713860
  59.5101957  28.0878773  86.6698190  59.2369219  26.7692137  87.3614324
  64.7130368  40.2712489  79.4503945  64.8867245  39.7058912  78.6977797
  65.2059259  41.0713384  79.2683435  50.5307327  32.2827158  87.5167504
  49.9860795  33.0586966  87.6487778  51.4086677  32.6297963  87.3586625
  57.3194944  25.6138742  79.8948302  57.4410855  24.6855388  80.0939190
  57.0296986  25.6277428  78.9826618  60.1886134  23.2993653  83.0315022
  60.2107831  23.3632986  82.0767002  60.6054193  22.4598161  83.2255528
  70.5669759  33.0348912  81.0694245  71.0100905  32.2856237  80.6713368
  69.6896269  33.0259048  80.6867977  65.7005540  39.5879254  76.5500843
  66.3956445  40.2085946  76.7688158  66.0428690  38.7374605  76.8253221
  51.3173349  31.4097055  90.4097661  50.5755085  31.5579690  90.9962291
  50.9966094  31.6705320  89.5464410  67.5996963  37.0378959  78.0788174
  68.1248287  37.3766232  77.3537494  67.5119316  36.1025974  77.8951309
  59.2617012  40.9513033  90.2078051  59.5704138  40.7062180  91.0800750
  60.0592494  41.1559671  89.7196921  59.2837624  43.1050942  82.4383427
  58.8442614  42.6127321  83.1316284  60.0345741  42.5623910  82.1975502
  51.7629963  39.2962483  82.4408055  52.5887983  38.9966255  82.0606699
  51.4124015  38.5270106  82.8897844  56.7311496  38.6488951  84.5105729
  56.1091505  37.9859656  84.2107957  57.4016363  38.6750083  83.8279377
  49.9638568  37.2148810  83.3996989  49.1270476  36.7870984  83.2180990
  49.9362213  37.4081253  84.3367780  56.8036024  27.1270739  94.1038235
  56.8524179  28.0032862  93.7216005  57.3458538  26.5848133  93.5309878
  67.2890869  37.6711863  93.3839372  66.4986413  37.6536002  92.8443871
  67.0524224  38.2100156  94.1388409  67.4088744  34.5204329  90.6972101
  67.4586749  34.3554337  91.6387623  67.3002668  33.6531588  90.3069981
  56.2925003  37.1992875  77.9864189  56.4413123  37.8828339  77.3330862
  57.0991446  37.1797965  78.5013645  64.6992507  30.5035257  92.0131407
  65.6002369  30.3641722  91.7215405  64.7740481  30.6689712  92.9529585
  59.0335312  27.8802112  90.8584594  58.1638621  28.1735678  90.5867182
  59.2694792  28.4642557  91.5791857  68.9106941  36.9401271  90.9414122
  68.6191749  37.3031251  91.7777583  68.2979072  36.2268279  90.7627454
  70.1102623  34.5054150  83.4616692  70.9449515  34.9443954  83.6254253
  70.2461752  34.0292804  82.6424938  67.1594129  32.0633885  89.4094180
  67.6348251  32.2561532  88.6013031  66.2359695  32.1193071  89.1637564
  54.0477636  33.2258052  78.9925258  53.8023678  32.3220382  79.1905468
  54.2173551  33.2275203  78.0504736  61.7374346  24.0981729  88.3750014
  62.2556290  24.8342756  88.0496503  61.3829479  24.4045722  89.2096773
  53.3173283  28.9586410  76.4911420  52.6242528  29.0330765  75.8351456
  53.0725035  28.1946754  77.0132937  61.9886940  20.5182011  83.8950911
  62.2688694  19.8505200  84.5211337  62.7737547  20.7111107  83.3825574
  59.7920409  39.6941005  75.4575937  59.2194376  40.3131192  75.0046409
  60.3653202  40.2440367  75.9915859  65.8595798  28.9399645  87.6422486
  66.8113221  29.0397743  87.6634710  65.6899249  28.1477914  88.1520570
  63.8810178  26.0255229  87.8281887  63.2860110  26.3060241  87.1328375
  63.5959875  26.5149129  88.5998628  63.0117668  39.9778155  76.5884519
  63.9448341  39.9123717  76.7917395  62.9240881  40.8134422  76.1299052
  65.6405685  39.2944026  73.5488467  65.5619316  38.9603889  74.4424225
  66.4615352  39.7865794  73.5479939  68.3383876  32.1605765  86.7564785
  68.3060196  31.2221766  86.9424469  68.9484500  32.2389802  86.0230610
  60.1767207  31.0301818  72.7991989  61.1226312  30.9008026  72.8680407
  59.7981452  30.2916480  73.2761418  68.4878365  28.9516808  86.8023068
  67.9717413  28.1675265  86.6152997  69.3718313  28.6235525  86.9669588
  66.1489092  22.6957824  82.7618881  65.9513913  22.3872912  83.6462213
  66.7588797  23.4219463  82.8916811  74.1560426  33.2221772  85.8970822
  74.8863814  32.9607060  86.4578525  73.5467371  32.4850494  85.9372890
  72.2375723  31.3629634  86.4945273  71.5108887  31.2285599  85.8861765
  71.8223010  31.6706463  87.3001991  60.0605900  35.0819564  94.2592646
  60.9808909  35.2598163  94.4532693  60.0255483  34.1375609  94.1072346
  58.3610124  28.9551794  72.7346875  57.4541580  28.6584907  72.8109588
  58.6386105  28.6581612  71.8681161  49.2788065  30.2758158  83.1845921
  48.9590849  29.4223466  82.8920295  48.7321493  30.4906736  83.9403888
  53.0567972  32.9920599  86.9015427  53.2753982  33.9237707  86.9203461
  53.4693746  32.6328573  87.6870231  59.9772190  23.4988684  78.8891116
  59.1672918  23.1535769  79.2646362  60.6656607  23.1896228  79.4778727
  61.9062738  22.5766731  80.5115413  62.4593777  22.9962184  81.1705436
  62.1432825  21.6502479  80.5538369  57.9295837  28.5653805  96.2918176
  57.8292564  29.5148162  96.2230268  57.7117379  28.2372043  95.4194247
  57.1308909  25.8138730  72.8758854  57.9928073  26.1393628  73.1354671
  57.3159253  25.0270226  72.3631920  49.1476325  33.8961069  85.1539043
  48.4539796  33.4815022  84.6408997  49.8949316  33.9381606  84.5572461
  65.2841545  24.6867256  80.0194077  64.7040214  25.3452060  79.6372129
  65.0177478  23.8644601  79.6081494  63.7345112  24.0872314  82.2215397
  64.2344890  24.1988848  81.4129716  64.3780720  23.7833367  82.8616206
  57.7927107  31.9950943  95.1083238  57.3094189  32.7951304  95.3147127
  57.8788047  32.0058888  94.1550682  51.0613067  33.8279323  83.0305057
  51.0383755  33.9267010  82.0786941  51.3713704  34.6744474  83.3522224
  53.7200445  35.8855478  87.1451672  54.6743698  35.8539420  87.0781603
  53.5212969  35.4246102  87.9601898  54.3099827  34.4556594  89.7122470
  55.1292716  34.9500673  89.7357307  54.5836635  33.5388562  89.6840037
  64.0666423  26.8467346  79.0750425  63.1792278  27.1316997  78.8570620
  64.4820412  26.6861110  78.2277702  67.4180959  26.8713867  82.7904764
  68.1941350  27.3610320  83.0629381  66.6929094  27.2971922  83.2476634
  69.8553518  27.5841487  83.8478705  70.4498009  27.3437223  83.1372013
  69.9280102  26.8648617  84.4752241  52.0750674  41.4275098  84.1621870
  51.9405142  40.6675498  83.5959868  51.6582736  42.1515997  83.6950659
  63.2109637  36.6112021  73.1698445  63.9145487  36.8162024  73.7856101
  62.4872286  37.1788783  73.4347529  64.0407447  32.3621882  79.2900715
  63.9842648  32.8190434  78.4508348  64.5935789  31.6012567  79.1123558
  67.8512253  28.1511614  80.1150835  67.5949187  27.7508250  80.9459042
  67.2265121  28.8655408  79.9900974  72.1624591  30.8907687  82.6222126
  71.6024149  30.9600877  83.3953688  71.5568094  30.7148672  81.9021622
  55.2319800  42.3244415  84.3740312  55.1152184  43.2689847  84.2719003
  54.4112246  42.0217976  84.7626112  65.1196334  37.0494550  75.2196905
  65.9541938  36.6175749  75.0374380  64.9580677  36.8776564  76.1473800
  64.7742226  33.5526664  76.5853244  64.7191030  33.3870935  75.6441688
  64.1488282  34.2602697  76.7415434  49.5634741  28.7894728  90.4114667
  50.2093605  28.2793682  90.9001892  49.3551892  29.5263410  90.9858092
  62.0888134  35.8575575  95.9106807  62.9579293  36.0316228  95.5493442
  61.6094885  36.6769992  95.7882536  58.0838352  23.0534773  76.1638563
  58.0717022  23.9976613  76.3206834  58.9761774  22.8704918  75.8698024
  56.2574314  42.9772676  87.5896241  57.1601560  43.0096287  87.9062736
  56.0311684  42.0473127  87.6042577  58.0127916  41.7303663  84.2506319
  57.0623547  41.7305525  84.1370692  58.3160402  40.9836398  83.7342354
  61.8990471  19.6477549  80.4184500  61.1322867  19.0936036  80.5641182
  62.3101176  19.7199418  81.2798651  53.9032232  25.9362345  94.5089681
  54.7663694  25.5799150  94.7193005  53.3297643  25.5976240  95.1965085
  66.4157131  49.3727106  81.2410497  65.8521996  49.2817043  80.4726785
  66.3009526  48.5527010  81.7212990  71.0390099  48.6726481  91.2099812
  71.0278739  48.2779280  90.3380316  71.2010738  47.9392554  91.8033583
  63.9621563  50.8678298  84.0794718  64.7542855  50.5269122  83.6641017
  64.2018213  50.9773273  84.9996871  76.2255725  38.9412463  87.7532877
  75.8939050  39.8107874  87.5294092  75.6301339  38.6248747  88.4326907
  69.9611912  42.6808030  75.4862959  70.1286314  43.5488266  75.8533430
  69.7709081  42.8435311  74.5624249  66.1699726  47.5938805  83.1865494
  65.2450223  47.4615020  83.3943186  66.4184139  48.3733025  83.6835437
  69.9401132  45.1365687  76.4709626  69.8200758  45.5822738  77.3095106
  69.2453721  45.4851005  75.9123164  63.5308537  47.2372079  84.0209283
  63.6600918  47.4906558  84.9348695  62.8505989  47.8299787  83.7013938
  70.1925254  45.0797194  92.7761124  69.4158588  45.6391114  92.7663989
  70.8315817  45.5653977  93.2975994  70.2758036  44.9684395  88.3084810
  71.1219232  45.3923809  88.4519459  70.2156674  44.3118019  89.0023373
  73.4257482  42.6288763  89.9665983  73.1818414  43.3830824  89.4300259
  73.7017412  43.0074111  90.8013230  66.6907824  49.8758868  84.8933390
  67.2609181  50.3046137  84.2550875  67.2815936  49.5941453  85.5917576
  68.7352629  46.4510539  78.7643192  69.4376672  46.9031583  79.2317118
  68.4033257  45.8094358  79.3923085  67.1832990  45.0422296  93.1394401
  66.5531651  45.7238577  93.3729798  67.0769078  44.9305377  92.1947540
  62.4777963  44.7094092  84.0660325  61.6877017  44.9651620  83.5900436
  62.9689210  45.5242430  84.1712366  64.4292708  45.0738671  81.0243802
  63.6323871  45.1857365  81.5427298  64.2018300  45.4125323  80.1584693
  60.7615666  44.9624582  86.4975316  61.0123704  45.8471592  86.7632892
  61.2975214  44.7829184  85.7250408  84.5847765  48.3938080  83.1650578
  83.8311474  47.8245478  83.0094582  84.7195307  48.3600744  84.1121212
  66.4613733  39.3443062  95.5019652  66.0680679  38.7909260  96.1767297
  67.2779873  39.6553640  95.8926170  65.2370676  53.8992676  81.4955975
  65.4137304  54.8210641  81.3076959  66.0327509  53.5851095  81.9250355
  69.3781694  40.7600941  93.0939909  70.1191407  41.3608094  93.0144371
  69.6099617  40.0178579  92.5357951  64.5223032  45.9457308  91.3718139
  64.4076547  45.0442565  91.6725238  63.6667550  46.1921005  91.0202955
  70.1569162  51.6821978  91.8410549  70.6897499  50.9210266  91.6109857
  69.6283243  51.3895630  92.5834703  73.3238857  36.7882044  87.3704191
  72.9803126  37.6783685  87.2943301  73.6917820  36.5983701  86.5073776
  70.8736251  41.6240356  80.9361864  70.0177847  41.2347206  80.7567503
  71.2863203  41.7032316  80.0761650  72.4035397  39.1586699  85.3353424
  71.9000193  39.1216834  84.5221229  72.6966004  40.0679442  85.3950080
  68.6478283  39.2425429  84.3419606  69.5131280  39.0468237  83.9825495
  68.7155792  39.0135780  85.2688962  66.2540602  41.4727637  81.7135972
  66.8284354  41.2502818  80.9809165  66.8411585  41.5416331  82.4664574
  66.5810189  43.5032098  75.7331858  65.7447502  43.8406784  76.0541132
  66.4414959  43.3681077  74.7958995  68.5563270  38.3468885  80.4411042
  67.9027682  38.0317903  79.8167657  68.5143744  37.7244626  81.1670865
  75.1226523  36.0475603  82.4721928  75.4285399  35.1872966  82.1847843
  75.8479127  36.6393223  82.2720922  61.4150879  46.4506290  80.8603526
  61.2175279  45.8575650  80.1354593  60.8597543  46.1458500  81.5779465
  69.3947602  46.3429396  82.9798119  69.4496212  45.3903232  82.9040596
  68.5838804  46.4988835  83.4639418  67.3339962  44.9606456  80.7388498
  66.5207828  45.2600626  81.1453690  67.8298957  44.5662145  81.4562980
  72.9314174  45.4248280  89.5703392  73.2863562  45.6519753  90.4297858
  73.5786305  45.7566657  88.9480647  66.8254037  42.5324811  86.3549733
  67.4653416  42.3913570  85.6572696  65.9931568  42.2459325  85.9788335
  67.6014341  51.8327242  82.4684726  68.3954940  51.3377562  82.2667301
  66.8906033  51.3045105  82.1052431  63.8282654  42.5025136  81.1322720
  64.0889471  43.4170470  81.0231880  64.6499826  42.0349579  81.2819333
  65.3007579  43.9162893  88.3021544  65.9730632  43.7080256  87.6534193
  64.4737365  43.7184979  87.8626777  71.2033151  40.5424834  90.3187205
  70.5561066  41.2414784  90.2251682  71.9734166  40.9760978  90.6863454
  65.7035076  47.1905496  89.0623982  65.5654874  46.4585735  89.6635521
  66.6140000  47.1014397  88.7808169  68.3317377  46.9025456  88.5507661
  69.0416995  46.2618648  88.5094280  68.2886685  47.1538351  89.4733842
  67.0446311  43.8890674  90.3703301  66.5083668  43.4381412  91.0224897
  66.4563019  44.0236582  89.6273765  57.9750710  48.1356485  83.0271272
  58.6621750  47.8218215  82.4392287  57.8198839  49.0397849  82.7538523
  62.7785432  43.0246681  87.4556295  62.6943621  42.4172351  86.7206705
  61.9568138  43.5155700  87.4565792  72.9509146  41.5100245  82.8226490
  73.4477845  40.7570207  82.5027561  72.1796127  41.5464562  82.2569700
  69.5344115  43.6517628  82.5498175  69.1641902  43.0988668  83.2379080
  70.0303207  43.0475761  81.9973175  75.3928141  38.4769838  84.9705849
  74.4791220  38.7074065  85.1388056  75.8221242  38.5608282  85.8219882
  71.2122172  47.4079541  93.9571780  70.5362809  47.3073671  94.6274156
  72.0349806  47.2518755  94.4207778  62.9601031  53.6451478  86.5784296
  63.5454468  52.8995166  86.7112200  62.7625870  53.9555435  87.4620959
  57.5518686  46.2157078  85.2988739  57.5902785  45.6820669  86.0925857
  57.0458979  45.6892284  84.6799716  64.9309448  41.0621619  88.7951281
  64.9950775  41.9236450  88.3828679  64.8676569  40.4495620  88.0623640
  64.4061721  43.1344751  92.4424315  65.0333760  42.7521828  93.0561840
  63.5489640  42.9158953  92.8080008  64.7121511  43.0177177  84.3570219
  63.9908096  43.6313145  84.2177692  65.5014766  43.5534942  84.2786865
  67.5147824  40.3531603  90.6310870  68.0382226  40.5993900  91.3937180
  67.2960157  41.1851638  90.2114008  62.9115105  42.6235278  78.4981995
  62.5827811  41.7432657  78.3157101  63.2654476  42.5682947  79.3858384
  66.0256928  42.9108248  78.8657473  66.3653001  43.4394169  78.1436081
  66.4729049  43.2488654  79.6416039  68.7200369  41.2945298  88.3160541
  68.3797189  40.4953112  88.7181221  68.0139375  41.5947009  87.7437374
  69.3716841  38.3794611  86.7687864  70.1942910  37.9055089  86.6466754
  69.6154904  39.1585095  87.2686550  68.0125075  41.4082869  77.0650766
  68.7333438  41.7864122  76.5614483  67.3890380  42.1271746  77.1685744
  72.1556198  42.1128018  78.0009098  72.3719813  42.9952656  77.6997926
  71.6750265  41.7214232  77.2714740  66.8955420  45.0713732  84.5779843
  66.7500000  45.3854035  85.4704124  66.4180623  45.6898632  84.0250741
  68.7551803  42.0616280  84.6260732  68.7413371  41.1657373  84.2893030
  69.4724231  42.0686943  85.2599018  70.6077933  42.4953620  86.6713860
  70.3495711  43.4170690  86.6698190  70.0762974  42.0984054  87.3614324
  61.3701082  47.6119076  87.5167504  60.8254550  48.3878884  87.6487778
  62.2480432  47.9589880  87.3586625  68.1588699  40.9430660  79.8948302
  68.2804610  40.0147306  80.0939190  67.8690741  40.9569346  78.9826618
  71.0279889  38.6285570  83.0315022  71.0501586  38.6924903  82.0767002
  71.4447948  37.7890079  83.2255528  62.1567104  46.7388972  90.4097661
  61.4148840  46.8871608  90.9962291  61.8359848  46.9997238  89.5464410
  62.6023717  54.6254401  82.4408055  63.4281737  54.3258173  82.0606699
  62.2517769  53.8562023  82.8897844  60.8032322  52.5440727  83.3996989
  59.9664231  52.1162902  83.2180990  60.7755968  52.7373171  84.3367780
  67.6429778  42.4562657  94.1038235  67.6917934  43.3324780  93.7216005
  68.1852292  41.9140050  93.5309878  69.8729066  43.2094030  90.8584594
  69.0032376  43.5027596  90.5867182  70.1088547  43.7934475  91.5791857
  72.5768100  39.4273646  88.3750014  73.0950044  40.1634673  88.0496503
  72.2223233  39.7337640  89.2096773  72.8280694  35.8473929  83.8950911
  73.1082448  35.1797118  84.5211337  73.6131301  36.0403025  83.3825574
  76.9882846  38.0249742  82.7618881  76.7907667  37.7164830  83.6462213
  77.5982552  38.7511381  82.8916811  84.9954180  48.5513690  85.8970822
  85.7257569  48.2898978  86.4578525  84.3861126  47.8142411  85.9372890
  83.0769478  46.6921552  86.4945273  82.3502641  46.5577517  85.8861765
  82.6616764  46.9998381  87.3001991  70.8999654  50.4111482  94.2592646
  71.8202663  50.5890081  94.4532693  70.8649237  49.4667527  94.1072346
  60.1181819  45.6050075  83.1845921  59.7984603  44.7515384  82.8920295
  59.5715247  45.8198654  83.9403888  63.8961727  48.3212516  86.9015427
  64.1147736  49.2529624  86.9203461  64.3087500  47.9620491  87.6870231
  70.8165944  38.8280602  78.8891116  70.0066673  38.4827687  79.2646362
  71.5050361  38.5188146  79.4778727  72.7456493  37.9058649  80.5115413
  73.2987531  38.3254102  81.1705436  72.9826579  36.9794397  80.5538369
  68.7689592  43.8945722  96.2918176  68.6686319  44.8440079  96.2230268
  68.5511134  43.5663961  95.4194247  59.9870079  49.2252987  85.1539043
  59.2933550  48.8106940  84.6408997  60.7343070  49.2673523  84.5572461
  76.1235300  40.0159174  80.0194077  75.5433969  40.6743978  79.6372129
  75.8571232  39.1936518  79.6081494  74.5738866  39.4164231  82.2215397
  75.0738644  39.5280766  81.4129716  75.2174474  39.1125284  82.8616206
  68.6320862  47.3242861  95.1083238  68.1487944  48.1243221  95.3147127
  68.7181801  47.3350806  94.1550682  61.9006822  49.1571241  83.0305057
  61.8777510  49.2558928  82.0786941  62.2107458  50.0036392  83.3522224
  65.1493582  49.7848512  89.7122470  65.9686471  50.2792590  89.7357307
  65.4230389  48.8680480  89.6840037  60.4028496  44.1186646  90.4114667
  61.0487359  43.6085600  90.9001892  60.1945647  44.8555327  90.9858092
  72.9281888  51.1867493  95.9106807  73.7973048  51.3608145  95.5493442
  72.4488639  52.0061910  95.7882536  68.9232106  38.3826690  76.1638563
  68.9110776  39.3268530  76.3206834  69.8155528  38.1996836  75.8698024
  72.7384226  34.9769467  80.4184500  71.9716622  34.4227954  80.5641182
  73.1494931  35.0491336  81.2798651  64.7425987  41.2654263  94.5089681
  65.6057448  40.9091068  94.7193005  64.1691397  40.9268158  95.1965085
  87.0649480  54.2704380  87.7532877  86.7332804  55.1399791  87.5294092
  86.4695093  53.9540664  88.4326907  86.9578143  58.9899466  84.8326227
  86.0495020  58.9214875  84.5384988  86.9065739  59.4671411  85.6608053
  88.8239789  57.1915905  86.6104101  88.1814170  57.4848438  85.9643896
  88.3194718  57.0768825  87.4157298  84.2651236  57.9580681  89.9665983
  84.0212168  58.7122742  89.4300259  84.5411167  58.3366029  90.8013230
  83.2429152  54.4878617  85.3353424  82.7393947  54.4508752  84.5221229
  83.5359759  55.3971359  85.3950080  85.9620277  51.3767521  82.4721928
  86.2679154  50.5164884  82.1847843  86.6872882  51.9685141  82.2720922
  82.0426905  55.8716752  90.3187205  81.3954820  56.5706702  90.2251682
  82.8127921  56.3052896  90.6863454  85.4505703  66.1365604  93.3937759
  85.2991210  65.9076156  92.4767842  85.4410383  67.0936206  93.4069104
  86.2321895  53.8061756  84.9705849  85.3184975  54.0365983  85.1388056
  86.6614997  53.8900200  85.8219882  86.0028354  61.9951648  87.4705743
  85.3499804  62.2427555  86.8158196  86.3808734  61.1815786  87.1368221
  86.3780016  61.1619092  92.0131407  87.2789878  61.0225557  91.7215405
  86.4527990  61.3273547  92.9529585  88.8381638  62.7217721  89.4094180
  89.3135760  62.9145367  88.6013031  87.9147204  62.7776906  89.1637564
  83.6674449  51.1765847  83.8950911  83.9476203  50.5089036  84.5211337
  84.4525056  51.3694942  83.3825574  87.5383307  59.5983481  87.6422486
  88.4900730  59.6981578  87.6634710  87.3686758  58.8061749  88.1520570
  85.5597687  56.6839064  87.8281887  84.9647619  56.9644077  87.1328375
  85.2747384  57.1732965  88.5998628  90.0171385  62.8189600  86.7564785
  89.9847705  61.8805601  86.9424469  90.6272009  62.8973637  86.0230610
  90.1665874  59.6100644  86.8023068  89.6504922  58.8259100  86.6152997
  91.0505822  59.2819360  86.9669588  87.8276601  53.3541659  82.7618881
  87.6301422  53.0456748  83.6462213  88.4376306  54.0803298  82.8916811
  85.4132621  54.7456149  82.2215397  85.9132399  54.8572684  81.4129716
  86.0568229  54.4417202  82.8616206  91.5341027  58.2425322  83.8478705
  92.1285518  58.0021058  83.1372013  91.6067611  57.5232453  84.4752241
  92.7177608  79.3310317  91.2099812  92.7066248  78.9363115  90.3380316
  92.8798247  78.5976389  91.8033583 100.3817814  75.8874724  83.2938268
 101.1142986  75.3173941  83.5276098  99.6257170  75.4996324  83.7344774
  97.9043234  69.5996298  87.7532877  97.5726559  70.4691709  87.5294092
  97.3088848  69.2832582  88.4326907  97.7971898  74.3191384  84.8326227
  96.8888775  74.2506793  84.5384988  97.7459493  74.7963329  85.6608053
  91.8712763  75.7381030  92.7761124  91.0946097  76.2974950  92.7663989
  92.5103326  76.2237813  93.2975994  99.6633544  72.5207823  86.6104101
  99.0207924  72.8140356  85.9643896  99.1588472  72.4060743  87.4157298
  95.6014475  80.6895624  90.9351253  96.0097831  80.2478034  90.1905885
  94.8791737  80.1148251  91.1885446  95.1044991  73.2872599  89.9665983
  94.8605922  74.0414659  89.4300259  95.3804921  73.6657946  90.8013230
  94.6609682  72.4429032  85.5479821  93.7994161  72.7410285  85.8396559
  94.6872117  72.6599431  84.6160854  88.8620499  75.7006131  93.1394401
  88.2319160  76.3822412  93.3729798  88.7556587  75.5889213  92.1947540
 106.2635274  79.0521915  83.1650578 105.5098983  78.4829313  83.0094582
 106.3982816  79.0184579  84.1121212  88.1401242  70.0026897  95.5019652
  87.7468188  69.4493096  96.1767297  88.9567382  70.3137476  95.8926170
  91.0569203  71.4184776  93.0939909  91.7978916  72.0191929  93.0144371
  91.2887126  70.6762414  92.5357951  95.0026366  67.4465879  87.3704191
  94.6590635  68.3367521  87.2943301  95.3705329  67.2567537  86.5073776
  99.9410923  80.1906845  77.8129799  99.1640366  79.8518004  77.3684961
 100.6202404  80.1959468  77.1384764  96.9907689  78.0185199  82.5200349
  97.5039570  78.6515191  83.0222059  97.6408912  77.4186394  82.1543709
  96.7002404  73.9283186  81.8780159  95.9625161  73.4160573  82.2090402
  96.9529178  73.4883568  81.0663436  94.6101683  76.0832116  89.5703392
  94.9651071  76.3103589  90.4297858  95.2573814  76.4150492  88.9480647
 100.3399420  79.2050551  80.2752721 100.2017319  79.3952147  79.3473910
  99.9835639  79.9669934  80.7320772 101.2284349  81.3150779  87.8196878
 101.4220239  82.2196590  88.0656153 101.1284967  80.8558198  88.6535463
  92.8820660  71.2008670  90.3187205  92.2348575  71.8998619  90.2251682
  93.6521675  71.6344814  90.6863454  96.2899458  81.4657522  93.3937759
  96.1384964  81.2368074  92.4767842  96.2804137  82.4228123  93.4069104
  94.6296655  72.1684080  82.8226490  95.1265354  71.4154043  82.5027561
  93.8583636  72.2048397  82.2569700 102.4826412  77.8724446  84.4644782
 102.4716288  78.7549161  84.0938715 101.6143792  77.5195997  84.2699319
  99.0998987  76.7673087  80.9314948  99.5659439  77.6001078  80.8575251
  99.5506487  76.3018068  81.6360206  97.0715650  69.1353674  84.9705849
  96.1578729  69.3657901  85.1388056  97.5008751  69.2192118  85.8219882
  96.8422108  77.3243566  87.4705743  96.1893558  77.5719473  86.8158196
  97.2202488  76.5107704  87.1368221  92.8909681  78.0663377  93.9571780
  92.2150318  77.9657506  94.6274156  93.7137315  77.9102590  94.4207778
  96.4843338  84.1991562  94.0478051  97.0283242  84.8121520  93.5533006
  95.9030183  84.7571140  94.5645064 103.0851022  79.0224665  81.0694245
 103.5282168  78.2731990  80.6713368 102.2077532  79.0134801  80.6867977
 100.1178227  83.0254712  78.0788174 100.6429551  83.3641985  77.3537494
 100.0300579  82.0901727  77.8951309  89.3217287  73.1146493  94.1038235
  89.3705443  73.9908615  93.7216005  89.8639801  72.5723886  93.5309878
  99.8072133  83.6587616  93.3839372  99.0167676  83.6411755  92.8443871
  99.5705487  84.1975909  94.1388409  99.9270008  80.5080082  90.6972101
  99.9768013  80.3430090  91.6387623  99.8183931  79.6407341  90.3069981
  97.2173770  76.4911010  92.0131407  98.1183633  76.3517475  91.7215405
  97.2921745  76.6565465  92.9529585 101.4288205  82.9277024  90.9414122
 101.1373013  83.2907004  91.7777583 100.8160336  82.2144032  90.7627454
 102.6283887  80.4929903  83.4616692 103.4630778  80.9319707  83.6254253
 102.7643016  80.0168557  82.6424938  99.6775393  78.0509638  89.4094180
 100.1529514  78.2437285  88.6013031  98.7540958  78.1068824  89.1637564
  94.2555609  70.0857482  88.3750014  94.7737553  70.8218509  88.0496503
  93.9010742  70.3921475  89.2096773  98.3777062  74.9275398  87.6422486
  99.3294485  75.0273496  87.6634710  98.2080512  74.1353667  88.1520570
  96.3991441  72.0130982  87.8281887  95.8041373  72.2935994  87.1328375
  96.1141138  72.5024883  88.5998628 100.8565140  78.1481518  86.7564785
 100.8241460  77.2097519  86.9424469 101.4665763  78.2265555  86.0230610
 101.0059628  74.9392561  86.8023068 100.4898677  74.1551018  86.6152997
 101.8899577  74.6111278  86.9669588  98.6670355  68.6833577  82.7618881
  98.4695176  68.3748665  83.6462213  99.2770061  69.4095216  82.8916811
 106.6741689  79.2097525  85.8970822 107.4045078  78.9482813  86.4578525
 106.0648635  78.4726247  85.9372890 104.7556987  77.3505387  86.4945273
 104.0290150  77.2161352  85.8861765 104.3404273  77.6582216  87.3001991
  90.4477101  74.5529558  96.2918176  90.3473828  75.5023915  96.2230268
  90.2298643  74.2247796  95.4194247  97.8022809  70.6743009  80.0194077
  97.2221478  71.3327813  79.6372129  97.5358741  69.8520354  79.6081494
  90.3108371  77.9826696  95.1083238  89.8275453  78.7827057  95.3147127
  90.3969310  77.9934641  94.1550682  99.9362223  72.8589620  82.7904764
 100.7122613  73.3486073  83.0629381  99.2110357  73.2847675  83.2476634
 102.3734782  73.5717240  83.8478705 102.9679272  73.3312976  83.1372013
 102.4461365  72.8524370  84.4752241 100.3693516  74.1387367  80.1150835
 100.1130451  73.7384003  80.9459042  99.7446384  74.8531161  79.9900974
 104.6805854  76.8783441  82.6222126 104.1205412  76.9476630  83.3953688
 104.0749358  76.7024425  81.9021622  94.6069397  81.8451329  95.9106807
  95.4760557  82.0191981  95.5493442  94.1276148  82.6645745  95.7882536
 106.2661873  93.5539954  85.3152082 106.9040283  93.4346702  84.6115422
 106.1482716  94.5020798  85.3740034 103.0751579  93.5067383  85.2513607
 102.7370091  93.3908447  84.3634141 103.9441347  93.1058548  85.2314613
  98.9338395  95.3602859  81.2410497  98.3703260  95.2692796  80.4726785
  98.8190790  94.5402763  81.7212990 103.5571362  94.6602234  91.2099812
 103.5460003  94.2655033  90.3380316 103.7192001  93.9268307  91.8033583
  96.4802827  96.8554051  84.0794718  97.2724119  96.5144875  83.6641017
  96.7199477  96.9649026  84.9996871 104.5137953  99.0273827  76.5524962
 103.8625933  99.6127907  76.1658976 105.3082316  99.5580022  76.6120000
  98.4393581  96.1162964  76.9512097  99.2124457  95.5691951  76.8124973
  98.7918979  96.9807213  77.1626558 100.2778623  97.4439346  90.1578996
  99.9868489  98.3484977  90.0425662 100.9135607  97.4855874  90.8723066
 101.2034830  94.8216195  86.7480356 101.7998402  94.5972217  86.0337319
 101.2609802  94.0800940  87.3505804 100.7759858  92.2755630  74.5830547
 101.0285379  91.7537151  73.8214010  99.8384417  92.1121775  74.6857230
 105.8203141  91.2791408  82.3905290 106.6066230  90.8610831  82.0395707
 106.0841846  92.1837500  82.5586938 105.9913219  96.7164259  77.0893947
 105.3559052  96.7898885  77.8014851 105.6610625  97.3057857  76.4113026
 111.2211568  91.2166642  83.2938268 111.9536740  90.6465858  83.5276098
 110.4650924  90.8288242  83.7344774 100.4956147  94.1783736  76.7854922
 100.3792405  93.5028639  77.4536006 100.6058407  93.6916110  75.9687075
 102.8387688  93.6393883  80.4901611 102.4745895  93.1124504  81.2014532
 103.6954804  93.2492352  80.3168096 108.7436989  84.9288216  87.7532877
 108.4120313  85.7983627  87.5294092 108.1482602  84.6124500  88.4326907
 102.4793175  88.6683783  75.4862959 102.6467577  89.5364019  75.8533430
 102.2890344  88.8311064  74.5624249 105.2368508  97.1300762  87.1528790
 104.9369231  98.0325800  87.0444597 104.8919568  96.8632945  88.0049943
  98.6880990  93.5814558  83.1865494  97.7631486  93.4490773  83.3943186
  98.9365403  94.3608778  83.6835437 108.6365652  89.6483302  84.8326227
 107.7282529  89.5798710  84.5384988 108.5853248  90.1255247  85.6608053
 102.4582396  91.1241440  76.4709626 102.3382021  91.5698491  77.3095106
 101.7634984  91.4726758  75.9123164  96.0489801  93.2247832  84.0209283
  96.1782182  93.4782311  84.9348695  95.3687252  93.8175540  83.7013938
 100.2189288 103.8945082  80.1199757 100.1413318 104.8452907  80.1988238
  99.6150932 103.5490954  80.7774684 102.7106518  91.0672947  92.7761124
 101.9339852  91.6266868  92.7663989 103.3497081  91.5529730  93.2975994
 110.5027298  87.8499740  86.6104101 109.8601679  88.1432273  85.9643896
 109.9982227  87.7352661  87.4157298 108.1567462  91.5962913  77.2989960
 109.0685318  91.8290300  77.1237658 107.6477109  92.1799958  76.7365039
 100.9652890  93.8758401  92.3379091 101.7067574  94.4143445  92.0613915
 100.2589876  94.5024689  92.4950643 106.4408230  96.0187541  90.9351253
 106.8491586  95.5769952  90.1905885 105.7185491  95.4440169  91.1885446
 102.7939300  90.9560148  88.3084810 103.6400495  91.3799562  88.4519459
 102.7337937  90.2993772  89.0023373 106.7637044  96.5788732  84.6903542
 106.1345907  96.7434446  83.9879610 106.3762706  96.9930341  85.4614506
 110.6426276  97.5143170  82.0447905 109.9577314  97.8942071  81.4944939
 110.7270126  98.1238496  82.7779853 105.9438745  88.6164516  89.9665983
 105.6999677  89.3706577  89.4300259 106.2198676  88.9949864  90.8013230
 107.8977208  95.1603129  88.6443249 108.1094103  95.8034889  87.9677630
 107.8506956  94.3265445  88.1765179 105.5003437  87.7720949  85.5479821
 104.6387916  88.0702203  85.8396559 105.5265871  87.9891348  84.6160854
 102.3165006  96.3163140  81.9553627 102.7803352  96.5950843  81.1658249
 102.0521804  95.4146585  81.7726717  99.2089087  95.8634621  84.8933390
  99.7790444  96.2921890  84.2550875  99.7997199  95.5817206  85.5917576
 101.2533892  92.4386292  78.7643192 101.9557936  92.8907336  79.2317118
 100.9214521  91.7970111  79.3923085  99.7014254  91.0298049  93.1394401
  99.0712914  91.7114330  93.3729798  99.5950342  90.9181131  92.1947540
 109.0123036  98.0375084  86.8165606 109.8340480  97.6355271  86.5348288
 109.0085439  97.9343318  87.7681722 102.7779639  97.5859127  88.9726317
 102.8424072  98.0479535  89.8084489 102.0690563  96.9556492  89.1008627
 117.1029029  94.3813833  83.1650578 116.3492737  93.8121231  83.0094582
 117.2376570  94.3476497  84.1121212 102.4927657  99.2527235  78.8405297
 102.3573332 100.0978771  79.2690145 103.0337469  99.4546513  78.0771231
  98.9794997  85.3318815  95.5019652  98.5861942  84.7785013  96.1767297
  99.7961137  85.6429393  95.8926170  97.7551939  99.8868429  81.4955975
  97.9318567 100.8086394  81.3076959  98.5508773  99.5726848  81.9250355
 101.8962958  86.7476694  93.0939909 102.6372671  87.3483847  93.0144371
 102.1280880  86.0054332  92.5357951 104.1196133  99.8750801  92.9705639
 103.6759987  99.0887180  92.6526544 104.7813347 100.0629952  92.3049530
  98.8783254 101.4046603  87.4966318  99.4290680 101.2763666  86.7243312
  98.0394730 101.7041492  87.1461211 106.2177371 100.1553601  90.9987040
 106.1995847 100.9762482  90.5067310 107.1397291 100.0307677  91.2237182
 102.6750426  97.6697731  91.8410549 103.2078762  96.9086019  91.6109857
 102.1464507  97.3771383  92.5834703 105.8420121  82.7757797  87.3704191
 105.4984390  83.6659438  87.2943301 106.2099083  82.5859454  86.5073776
 105.8070403  92.7666408  75.8776626 105.2917027  93.5371013  76.1165013
 105.5347712  92.0931544  76.5009687 103.3917514  87.6116109  80.9361864
 102.5359111  87.2222959  80.7567503 103.8044466  87.6908069  80.0761650
 104.9216661  85.1462452  85.3353424 104.4181456  85.1092587  84.5221229
 105.2147268  86.0555195  85.3950080 110.7804677  95.5198763  77.8129799
 110.0034120  95.1809922  77.3684961 111.4596158  95.5251386  77.1384764
 105.5956706  90.6393500  77.7036407 105.2906842  90.9539649  78.5546550
 106.5487149  90.7174920  77.7463740 104.0403138  96.7983723  79.3529361
 103.5124500  96.0636483  79.0402598 103.5390641  97.5758400  79.1069329
 109.0195984  94.9932744  84.4696407 108.3619659  95.6832005  84.5576536
 109.8236383  95.3829176  84.8130394 107.8301443  93.3477116  82.5200349
 108.3433325  93.9807108  83.0222059 108.4802667  92.7478312  82.1543709
 102.1855738  94.6163934  72.3564334 101.2782800  94.3853187  72.5555483
 102.6826770  93.8201553  72.5438315 105.0923817 103.3261441  75.2761020
 104.4185516 103.6293138  75.8845978 105.4789639 104.1290521  74.9266477
 104.3082274  90.8226572  84.7658689 103.3904835  91.0441519  84.6080377
 104.7242418  90.8972883  83.9070397 105.0917322  92.2217988  79.8961370
 105.8389141  92.7339385  79.5868492 105.3608911  91.9002040  80.7565763
 103.3643972  94.7176528  76.8788324 102.4555191  94.4335561  76.9760794
 103.3939056  95.1375607  76.0191631 108.5963239  98.3283118  80.6479492
 108.1425566  97.4874028  80.7044682 107.9657206  98.9644516  80.9854272
 107.5396159  89.2575104  81.8780159 106.8018916  88.7452490  82.2090402
 107.7922932  88.8175486  81.0663436 107.0396179 100.1659615  81.5829310
 107.3319153 100.7264672  80.8641675 107.5494799 100.4588176  82.3382469
 107.6407786  82.0351356  82.4721928 107.9466663  81.1748719  82.1847843
 108.3660391  82.6268976  82.2720922 101.9128866  92.3305149  82.9798119
 101.9677476  91.3778985  82.9040596 101.1020068  92.4864588  83.4639418
 103.0620060  96.2585272  74.2176403 102.6239490  95.5421131  73.7582040
 103.8030501  96.4861387  73.6561494 102.0029804 100.9439966  82.6722763
 101.9605982 101.1700812  81.7431295 102.9192503 100.7103340  82.8208564
 105.4495438  91.4124033  89.5703392 105.8044825  91.6395506  90.4297858
 106.0967569  91.7442410  88.9480647 111.1793174  94.5342469  80.2752721
 111.0411073  94.7244065  79.3473910 110.8229393  95.2961852  80.7320772
 111.2062554  96.6018996  85.2863993 111.6399061  96.5094285  86.1347047
 111.9194135  96.5776497  84.6484009 100.1195604  97.8202995  82.4684726
 100.9136203  97.3253315  82.2667301  99.4087297  97.2920858  82.1052431
 104.9390449 100.2021090  86.8197093 104.9927471 100.7712027  87.5874809
 104.0705230 100.3722975  86.4551130 112.0678104  96.6442697  87.8196878
 112.2613994  97.5488507  88.0656153 111.9678722  96.1850116  88.6535463
 103.7214414  86.5300587  90.3187205 103.0742329  87.2290537  90.2251682
 104.4915430  86.9636731  90.6863454 107.1293212  96.7949440  93.3937759
 106.9778719  96.5659991  92.4767842 107.1197892  97.7520041  93.4069104
 103.8978549  94.3681352  88.3784025 104.8270609  94.5192512  88.2052992
 103.4769579  94.4565373  87.5232672 102.6966880  98.3932017  86.1482563
 102.5577966  98.0250801  87.0208501 101.9081477  98.9079656  85.9766521
 103.2915032 103.4941113  77.4908099 103.4666788 103.0229156  78.3053722
 102.6047820 104.1206879  77.7189360 104.2472096  97.7713619  83.5371400
 103.9121928  97.7314389  84.4329050 103.7476041  97.1058335  83.0641811
  98.2216340  93.1781249  89.0623982  98.0836138  92.4461488  89.6635521
  99.1321263  93.0890150  88.7808169 107.1831287  95.1169654  73.8108460
 106.5660458  94.3916482  73.7141513 106.7147776  95.8779014  73.4675534
 100.8498640  92.8901209  88.5507661 101.5598259  92.2494401  88.5094280
 100.8067948  93.1414104  89.4733842 108.8385419  99.8268562  91.4714240
 108.7797965  99.1427782  90.8044824 109.2404937 100.5687552  91.0194866
  97.8576118 106.6430476  84.2647959  98.0972716 107.2749000  84.9426978
  97.0145314 106.2918516  84.5513319 108.8402826  97.7908146  89.7028220
 107.9529605  97.4534068  89.8254619 109.4101377  97.0591177  89.9396986
 102.3703980 102.4509598  86.6689463 102.2974151 103.2564570  87.1808768
 101.9281373 102.6501564  85.8437485 102.1593759 101.6881368  80.1792285
 101.3761281 102.2303049  80.2730509 102.8586504 102.2055348  80.5786526
 105.4690409  87.4975998  82.8226490 105.9659109  86.7445960  82.5027561
 104.6977391  87.5340315  82.2569700 113.3220167  93.2016363  84.4644782
 113.3110043  94.0841079  84.0938715 112.4537546  92.8487914  84.2699319
 104.8302663 102.3496432  88.8247622 105.5430635 102.9843897  88.7523524
 104.3392692 102.4460298  88.0087624 106.5520190  96.2547685  80.3964914
 105.6176469  96.3749148  80.2269618 106.7296858  95.3520152  80.1324924
 102.0525378  89.6393381  82.5498175 101.6823166  89.0864421  83.2379080
 102.5484471  89.0351514  81.9973175 109.9392741  92.0965004  80.9314948
 110.4053194  92.9292996  80.8575251 110.3900242  91.6309986  81.6360206
  99.8814577 100.0990876  89.6453193 100.5824036 100.7327359  89.7982587
  99.4109692 100.4405607  88.8848832 108.0068972  98.4408826  77.9301100
 108.2828816  98.3265420  78.8394974 107.1373471  98.0426311  77.8913273
 107.9109404  84.4645591  84.9705849 106.9972484  84.6949818  85.1388056
 108.3402506  84.5484035  85.8219882 107.6815863  92.6535483  87.4705743
 107.0287313  92.9011391  86.8158196 108.0596243  91.8399622  87.1368221
 104.6423036 102.6895177  81.5733914 104.8245431 101.8716832  82.0361666
 105.4656023 102.9062869  81.1358804 104.9765202 101.6163362  78.8348962
 105.5052968 101.1055816  78.2219124 105.2393422 101.3005892  79.6994495
 103.7303436  93.3955294  93.9571780 103.0544073  93.2949424  94.6274156
 104.5531070  93.2394508  94.4207778  95.4782295  99.6327231  86.5784296
  96.0635732  98.8870919  86.7112200  95.2807133  99.9431188  87.4620959
  98.3320950 102.6678478  81.5946738  97.6631325 103.1524606  81.1110778
  98.1933820 102.9147699  82.5090116 102.4726219 104.7022222  88.1929396
 103.0244527 104.8653843  88.9578482 102.8132412 105.2926660  87.5209421
 107.3237093  99.5283479  94.0478051 107.8676997 100.1413438  93.5533006
 106.7423938 100.0863058  94.5645064 105.6094606 102.6504197  85.1793078
 105.4845745 101.8493937  84.6704024 106.2673697 103.1450391  84.6907048
 107.6729514 100.4513217  86.8072629 106.7259850 100.3318569  86.7350955
 108.0212287  99.5635716  86.8898890 104.6775947 100.2465934  83.0076981
 104.5300910  99.3182641  83.1884551 105.5029441 100.2686024  82.5234056
 108.2810069 101.0694492  84.0941854 109.2056617 100.8637354  83.9566305
 108.1125373 100.8210894  85.0031195 101.2381633  87.2821051  88.3160541
 100.8978453  86.4828865  88.7181221 100.5320639  87.5822762  87.7437374
 104.6737462  88.1003771  78.0009098 104.8901076  88.9828409  77.6997926
 104.1931529  87.7089985  77.2714740  99.4136683  91.0589485  84.5779843
  99.2681264  91.3729788  85.4704124  98.9361887  91.6774385  84.0250741
 103.1259197  88.4829373  86.6713860 102.8676975  89.4046443  86.6698190
 102.5944237  88.0859807  87.3614324 108.0705386 101.5880160  79.4503945
 108.2442263 101.0226582  78.6977797 108.5634277 102.3881055  79.2683435
 113.9244777  94.3516583  81.0694245 114.3675923  93.6023908  80.6713368
 113.0471287  94.3426719  80.6867977 109.0580558 100.9046924  76.5500843
 109.7531463 101.5253617  76.7688158 109.4003708 100.0542275  76.8253221
 110.9571981  98.3546630  78.0788174 111.4823305  98.6933903  77.3537494
 110.8694334  97.4193645  77.8951309 102.6192030 102.2680703  90.2078051
 102.9279156 102.0229850  91.0800750 103.4167512 102.4727342  89.7196921
 102.6412642 104.4218613  82.4383427 102.2017632 103.9294992  83.1316284
 103.3920759 103.8791581  82.1975502  95.1204981 100.6130154  82.4408055
  95.9463001 100.3133926  82.0606699  94.7699033  99.8437776  82.8897844
 100.0886514  99.9656622  84.5105729  99.4666523  99.3027327  84.2107957
 100.7591381  99.9917754  83.8279377  93.3213586  98.5316480  83.3996989
  92.4845494  98.1038655  83.2180990  93.2937231  98.7248924  84.3367780
 100.1611042  88.4438410  94.1038235 100.2099197  89.3200533  93.7216005
 100.7033556  87.9015803  93.5309878 110.6465887  98.9879533  93.3839372
 109.8561431  98.9703672  92.8443871 110.4099242  99.5267827  94.1388409
 110.7663762  95.8372000  90.6972101 110.8161767  95.6722007  91.6387623
 110.6577686  94.9699259  90.3069981  99.6500021  98.5160546  77.9864189
  99.7988141  99.1996010  77.3330862 100.4566464  98.4965636  78.5013645
 108.0567525  91.8202928  92.0131407 108.9577387  91.6809393  91.7215405
 108.1315499  91.9857383  92.9529585 102.3910330  89.1969783  90.8584594
 101.5213639  89.4903349  90.5867182 102.6269810  89.7810228  91.5791857
 112.2681959  98.2568941  90.9414122 111.9766767  98.6198922  91.7777583
 111.6554090  97.5435950  90.7627454 113.4677641  95.8221821  83.4616692
 114.3024533  96.2611625  83.6254253 113.6036770  95.3460474  82.6424938
 110.5169147  93.3801556  89.4094180 110.9923269  93.5729202  88.6013031
 109.5934713  93.4360742  89.1637564 105.0949364  85.4149400  88.3750014
 105.6131308  86.1510426  88.0496503 104.7404497  85.7213393  89.2096773
 105.3461958  81.8349682  83.8950911 105.6263712  81.1672871  84.5211337
 106.1312565  82.0278778  83.3825574 103.1495426 101.0108676  75.4575937
 102.5769394 101.6298863  75.0046409 103.7228220 101.5608038  75.9915859
 109.2170816  90.2567316  87.6422486 110.1688239  90.3565414  87.6634710
 109.0474267  89.4645585  88.1520570 107.2385196  87.3422899  87.8281887
 106.6435128  87.6227912  87.1328375 106.9534892  87.8316800  88.5998628
 106.3692686 101.2945826  76.5884519 107.3023359 101.2291388  76.7917395
 106.2815899 102.1302093  76.1299052 108.9980703 100.6111696  73.5488467
 108.9194334 100.2771560  74.4424225 109.8190370 101.1033464  73.5479939
 111.6958894  93.4773436  86.7564785 111.6635214  92.5389436  86.9424469
 112.3059518  93.5557472  86.0230610 103.5342225  92.3469489  72.7991989
 104.4801330  92.2175697  72.8680407 103.1556470  91.6084151  73.2761418
 111.8453383  90.2684479  86.8023068 111.3292431  89.4842936  86.6152997
 112.7293331  89.9403196  86.9669588 109.5064110  84.0125495  82.7618881
 109.3088931  83.7040583  83.6462213 110.1163815  84.7387134  82.8916811
 117.5135444  94.5389443  85.8970822 118.2438832  94.2774731  86.4578525
 116.9042389  93.8018165  85.9372890 115.5950741  92.6797305  86.4945273
 114.8683905  92.5453270  85.8861765 115.1798028  92.9874134  87.3001991
 103.4180918  96.3987235  94.2592646 104.3383927  96.5765834  94.4532693
 103.3830501  95.4543280  94.1072346 103.3347208  84.8156355  78.8891116
 102.5247936  84.4703440  79.2646362 104.0231625  84.5063899  79.4778727
 105.2637756  83.8934402  80.5115413 105.8168795  84.3129855  81.1705436
 105.5007842  82.9670150  80.5538369 101.2870855  89.8821475  96.2918176
 101.1867582  90.8315832  96.2230268 101.0692397  89.5539714  95.4194247
 108.6416563  86.0034927  80.0194077 108.0615232  86.6619731  79.6372129
 108.3752496  85.1812271  79.6081494 107.0920130  85.4039984  82.2215397
 107.5919908  85.5156519  81.4129716 107.7355738  85.1001037  82.8616206
 101.1502125  93.3118614  95.1083238 100.6669207  94.1118974  95.3147127
 101.2363064  93.3226559  94.1550682  97.0775463  97.2023149  87.1451672
  98.0318716  97.1707091  87.0781603  96.8787986  96.7413773  87.9601898
  97.6674845  95.7724265  89.7122470  98.4867734  96.2668344  89.7357307
  97.9411653  94.8556233  89.6840037 107.4241441  88.1635017  79.0750425
 106.5367296  88.4484668  78.8570620 107.8395430  88.0028781  78.2277702
 110.7755977  88.1881538  82.7904764 111.5516367  88.6777991  83.0629381
 110.0504112  88.6139592  83.2476634 113.2128536  88.9009157  83.8478705
 113.8073027  88.6604893  83.1372013 113.2855120  88.1816288  84.4752241
  95.4325692 102.7442768  84.1621870  95.2980160 101.9843169  83.5959868
  95.0157754 103.4683668  83.6950659 106.5684655  97.9279692  73.1698445
 107.2720505  98.1329694  73.7856101 105.8447303  98.4956454  73.4347529
 107.3982465  93.6789553  79.2900715 107.3417666  94.1358105  78.4508348
 107.9510807  92.9180238  79.1123558 111.2087271  89.4679285  80.1150835
 110.9524205  89.0675921  80.9459042 110.5840139  90.1823079  79.9900974
 115.5199609  92.2075358  82.6222126 114.9599167  92.2768548  83.3953688
 114.9143112  92.0316343  81.9021622  98.5894818 103.6412085  84.3740312
  98.4727202 104.5857518  84.2719003  97.7687264 103.3385647  84.7626112
 108.4771352  98.3662221  75.2196905 109.3116956  97.9343420  75.0374380
 108.3155695  98.1944235  76.1473800 108.1317244  94.8694334  76.5853244
 108.0766048  94.7038606  75.6441688 107.5063300  95.5770367  76.7415434
 105.4463151  97.1743246  95.9106807 106.3154311  97.3483898  95.5493442
 104.9669903  97.9937663  95.7882536 101.4413370  84.3702443  76.1638563
 101.4292040  85.3144283  76.3206834 102.3336792  84.1872589  75.8698024
  99.6149332 104.2940347  87.5896241 100.5176578 104.3263957  87.9062736
  99.3886702 103.3640798  87.6042577 101.3702934 103.0471334  84.2506319
 100.4198565 103.0473195  84.1370692 101.6735420 102.3004068  83.7342354
 105.2565489  80.9645220  80.4184500 104.4897885  80.4103707  80.5641182
 105.6676194  81.0367089  81.2798651 117.1055627 108.8831872  85.3152082
 117.7434037 108.7638619  84.6115422 116.9876470 109.8312716  85.3740034
 113.9145333 108.8359300  85.2513607 113.5763845 108.7200365  84.3634141
 114.7835102 108.4350465  85.2314613 109.7732149 110.6894777  81.2410497
 109.2097014 110.5984714  80.4726785 109.6584544 109.8694681  81.7212990
 114.3965116 109.9894152  91.2099812 114.3853757 109.5946950  90.3380316
 114.5585756 109.2560225  91.8033583 107.3196581 112.1845968  84.0794718
 108.1117873 111.8436793  83.6641017 107.5593231 112.2940943  84.9996871
 115.3531708 114.3565744  76.5524962 114.7019688 114.9419825  76.1658976
 116.1476071 114.8871939  76.6120000 109.2787335 111.4454882  76.9512097
 110.0518211 110.8983869  76.8124973 109.6312734 112.3099131  77.1626558
 111.1172378 112.7731264  90.1578996 110.8262244 113.6776895  90.0425662
 111.7529362 112.8147791  90.8723066 112.0428584 110.1508112  86.7480356
 112.6392157 109.9264135  86.0337319 112.1003556 109.4092858  87.3505804
 111.6153613 107.6047548  74.5830547 111.8679134 107.0829069  73.8214010
 110.6778172 107.4413693  74.6857230 116.6596896 106.6083326  82.3905290
 117.4459985 106.1902749  82.0395707 116.9235600 107.5129418  82.5586938
 116.8306973 112.0456176  77.0893947 116.1952806 112.1190803  77.8014851
 116.5004379 112.6349775  76.4113026 122.0605323 106.5458559  83.2938268
 122.7930495 105.9757776  83.5276098 121.3044679 106.1580160  83.7344774
 111.3349902 109.5075654  76.7854922 111.2186160 108.8320557  77.4536006
 111.4452162 109.0208028  75.9687075 113.6781443 108.9685801  80.4901611
 113.3139650 108.4416422  81.2014532 114.5348558 108.5784270  80.3168096
 119.5830743 100.2580133  87.7532877 119.2514068 101.1275544  87.5294092
 118.9876357  99.9416417  88.4326907 113.3186930 103.9975700  75.4862959
 113.4861332 104.8655937  75.8533430 113.1284099 104.1602982  74.5624249
 116.0762263 112.4592679  87.1528790 115.7762986 113.3617718  87.0444597
 115.7313322 112.1924863  88.0049943 109.5274744 108.9106476  83.1865494
 108.6025241 108.7782690  83.3943186 109.7759157 109.6900695  83.6835437
 119.4759407 104.9775219  84.8326227 118.5676284 104.9090628  84.5384988
 119.4247002 105.4547164  85.6608053 113.2976150 106.4533358  76.4709626
 113.1775776 106.8990409  77.3095106 112.6028739 106.8018676  75.9123164
 106.8883555 108.5539750  84.0209283 107.0175936 108.8074229  84.9348695
 106.2081007 109.1467458  83.7013938 111.0583043 119.2237000  80.1199757
 110.9807072 120.1744825  80.1988238 110.4544686 118.8782872  80.7774684
 113.5500272 106.3964865  92.7761124 112.7733606 106.9558785  92.7663989
 114.1890835 106.8821648  93.2975994 121.3421053 103.1791658  86.6104101
 120.6995433 103.4724191  85.9643896 120.8375981 103.0644578  87.4157298
 118.9961217 106.9254831  77.2989960 119.9079073 107.1582218  77.1237658
 118.4870864 107.5091875  76.7365039 111.8046645 109.2050318  92.3379091
 112.5461329 109.7435362  92.0613915 111.0983630 109.8316607  92.4950643
 117.2801984 111.3479459  90.9351253 117.6885340 110.9061869  90.1905885
 116.5579246 110.7732086  91.1885446 113.6333054 106.2852066  88.3084810
 114.4794249 106.7091479  88.4519459 113.5731692 105.6285690  89.0023373
 117.6030799 111.9080650  84.6903542 116.9739661 112.0726364  83.9879610
 117.2156461 112.3222259  85.4614506 121.4820031 112.8435087  82.0447905
 120.7971069 113.2233989  81.4944939 121.5663880 113.4530414  82.7779853
 116.7832500 103.9456434  89.9665983 116.5393431 104.6998495  89.4300259
 117.0592430 104.3241782  90.8013230 118.7370962 110.4895046  88.6443249
 118.9487858 111.1326806  87.9677630 118.6900711 109.6557363  88.1765179
 116.3397191 103.1012867  85.5479821 115.4781670 103.3994121  85.8396559
 116.3659626 103.3183266  84.6160854 113.1558761 111.6455058  81.9553627
 113.6197106 111.9242761  81.1658249 112.8915559 110.7438502  81.7726717
 110.0482842 111.1926539  84.8933390 110.6184199 111.6213808  84.2550875
 110.6390954 110.9109124  85.5917576 112.0927647 107.7678210  78.7643192
 112.7951690 108.2199254  79.2317118 111.7608275 107.1262029  79.3923085
 110.5408008 106.3589967  93.1394401 109.9106669 107.0406247  93.3729798
 110.4344096 106.2473048  92.1947540 105.8352981 106.0261763  84.0660325
 105.0452035 106.2819291  83.5900436 106.3264228 106.8410100  84.1712366
 119.8516790 113.3667002  86.8165606 120.6734234 112.9647189  86.5348288
 119.8479193 113.2635236  87.7681722 107.7867726 106.3906342  81.0243802
 106.9898889 106.5025036  81.5427298 107.5593318 106.7292994  80.1584693
 113.6173394 112.9151045  88.9726317 113.6817826 113.3771452  89.8084489
 112.9084318 112.2848410  89.1008627 104.1190684 106.2792253  86.4975316
 104.3698722 107.1639263  86.7632892 104.6550232 106.0996855  85.7250408
 127.9422783 109.7105750  83.1650578 127.1886492 109.1413148  83.0094582
 128.0770325 109.6768415  84.1121212 113.3321411 114.5819153  78.8405297
 113.1967086 115.4270688  79.2690145 113.8731224 114.7838430  78.0771231
 109.8188751 100.6610732  95.5019652 109.4255697 100.1076931  96.1767297
 110.6354891 100.9721311  95.8926170 106.7850809 112.0994591  79.4133222
 107.2975329 112.8937841  79.5638787 107.4373522 111.4020881  79.3466824
 108.5945694 115.2160347  81.4955975 108.7712322 116.1378312  81.3076959
 109.3902527 114.9018766  81.9250355 112.7356712 102.0768612  93.0939909
 113.4766425 102.6775765  93.0144371 112.9674635 101.3346249  92.5357951
 107.8798050 107.2624979  91.3718139 107.7651565 106.3610236  91.6725238
 107.0242568 107.5088676  91.0202955 114.9589888 115.2042719  92.9705639
 114.5153742 114.4179098  92.6526544 115.6207101 115.3921870  92.3049530
 109.7177009 116.7338521  87.4966318 110.2684434 116.6055584  86.7243312
 108.8788485 117.0333410  87.1461211 117.0571126 115.4845519  90.9987040
 117.0389601 116.3054400  90.5067310 117.9791046 115.3599594  91.2237182
 113.5144180 112.9989649  91.8410549 114.0472517 112.2377937  91.6109857
 112.9858261 112.7063300  92.5834703 116.6813875  98.1049714  87.3704191
 116.3378144  98.9951356  87.2943301 117.0492838  97.9151372  86.5073776
 104.7499726 110.4283245  80.1892793 105.5874948 110.8380253  79.9726500
 104.9277993 109.4882687  80.1592987 116.6464158 108.0958326  75.8776626
 116.1310781 108.8662930  76.1165013 116.3741466 107.4223462  76.5009687
 114.2311269 102.9408026  80.9361864 113.3752865 102.5514877  80.7567503
 114.6438221 103.0199987  80.0761650 115.7610415 100.4754370  85.3353424
 115.2575211 100.4384505  84.5221229 116.0541022 101.3847112  85.3950080
 112.0053301 100.5593099  84.3419606 112.8706298 100.3635908  83.9825495
 112.0730810 100.3303451  85.2688962 121.6198432 110.8490680  77.8129799
 120.8427875 110.5101840  77.3684961 122.2989913 110.8543303  77.1384764
 116.4350461 105.9685418  77.7036407 116.1300596 106.2831567  78.5546550
 117.3880903 106.0466838  77.7463740 114.8796893 112.1275641  79.3529361
 114.3518254 111.3928401  79.0402598 114.3784395 112.9050317  79.1069329
 119.8589739 110.3224661  84.4696407 119.2013413 111.0123923  84.5576536
 120.6630138 110.7121093  84.8130394 109.6115620 102.7895307  81.7135972
 110.1859372 102.5670489  80.9809165 110.1986603 102.8584002  82.4664574
 118.6695198 108.6769034  82.5200349 119.1827079 109.3099026  83.0222059
 119.3196421 108.0770230  82.1543709 109.9385207 104.8199768  75.7331858
 109.1022520 105.1574455  76.0541132 109.7989977 104.6848748  74.7958995
 111.9138288  99.6636556  80.4411042 111.2602700  99.3485573  79.8167657
 111.8718762  99.0412297  81.1670865 113.0249493 109.9455851  72.3564334
 112.1176555 109.7145105  72.5555483 113.5220525 109.1493471  72.5438315
 115.9317572 118.6553358  75.2761020 115.2579271 118.9585055  75.8845978
 116.3183394 119.4582439  74.9266477 115.1476028 106.1518490  84.7658689
 114.2298590 106.3733437  84.6080377 115.5636172 106.2264800  83.9070397
 115.9311076 107.5509905  79.8961370 116.6782895 108.0631303  79.5868492
 116.2002666 107.2293958  80.7565763 114.2037726 110.0468446  76.8788324
 113.2948946 109.7627479  76.9760794 114.2332810 110.4667525  76.0191631
 119.4356994 113.6575036  80.6479492 118.9819321 112.8165946  80.7044682
 118.8050960 114.2936434  80.9854272 118.3789913 104.5867022  81.8780159
 117.6412670 104.0744408  82.2090402 118.6316687 104.1467403  81.0663436
 117.8789933 115.4951532  81.5829310 118.1712907 116.0556589  80.8641675
 118.3888554 115.7880093  82.3382469 118.4801541  97.3643274  82.4721928
 118.7860417  96.5040637  82.1847843 119.2054145  97.9560894  82.2720922
 104.7725897 107.7673960  80.8603526 104.5750297 107.1743321  80.1354593
 104.2172561 107.4626170  81.5779465 112.7522620 107.6597067  82.9798119
 112.8071230 106.7070903  82.9040596 111.9413822 107.8156506  83.4639418
 113.9013814 111.5877190  74.2176403 113.4633244 110.8713049  73.7582040
 114.6424255 111.8153305  73.6561494 110.6914980 106.2774126  80.7388498
 109.8782846 106.5768297  81.1453690 111.1873974 105.8829815  81.4562980
 112.8423558 116.2731883  82.6722763 112.7999737 116.4992730  81.7431295
 113.7586257 116.0395258  82.8208564 116.2889192 106.7415951  89.5703392
 116.6438580 106.9687424  90.4297858 116.9361323 107.0734328  88.9480647
 122.0186929 109.8634387  80.2752721 121.8804828 110.0535983  79.3473910
 121.6623148 110.6253770  80.7320772 110.1829055 103.8492482  86.3549733
 110.8228434 103.7081241  85.6572696 109.3506586 103.5626995  85.9788335
 122.0456309 111.9310914  85.2863993 122.4792815 111.8386203  86.1347047
 122.7587889 111.9068414  84.6484009 110.9589359 113.1494912  82.4684726
 111.7529957 112.6545233  82.2667301 110.2481051 112.6212776  82.1052431
 115.7784203 115.5313008  86.8197093 115.8321226 116.1003944  87.5874809
 114.9098985 115.7014893  86.4551130 107.2672122 107.2937994  78.5444478
 106.3369711 107.2322450  78.7614440 107.3629594 106.7713947  77.7481120
 107.1857671 103.8192807  81.1322720 107.4464489 104.7338140  81.0231880
 108.0074844 103.3517250  81.2819333 108.6582597 105.2330564  88.3021544
 109.3305650 105.0247926  87.6534193 107.8312383 105.0352650  87.8626777
 122.9071858 111.9734614  87.8196878 123.1007748 112.8780425  88.0656153
 122.8072476 111.5142034  88.6535463 114.5608169 101.8592505  90.3187205
 113.9136084 102.5582455  90.2251682 115.3309184 102.2928649  90.6863454
 117.9686967 112.1241357  93.3937759 117.8172473 111.8951909  92.4767842
 117.9591646 113.0811959  93.4069104 114.7372303 109.6973270  88.3784025
 115.6664363 109.8484430  88.2052992 114.3163333 109.7857291  87.5232672
 113.5360635 113.7223934  86.1482563 113.3971721 113.3542719  87.0208501
 112.7475231 114.2371574  85.9766521 114.1308787 118.8233031  77.4908099
 114.3060543 118.3521074  78.3053722 113.4441575 119.4498797  77.7189360
 115.0865850 113.1005537  83.5371400 114.7515683 113.0606307  84.4329050
 114.5869796 112.4350253  83.0641811 109.0610094 108.5073167  89.0623982
 108.9229892 107.7753406  89.6635521 109.9715018 108.4182067  88.7808169
 118.0225042 110.4461571  73.8108460 117.4054212 109.7208400  73.7141513
 117.5541530 111.2070932  73.4675534 111.6892395 108.2193126  88.5507661
 112.3992013 107.5786319  88.5094280 111.6461703 108.4706021  89.4733842
 119.6779173 115.1560480  91.4714240 119.6191720 114.4719700  90.8044824
 120.0798692 115.8979470  91.0194866 110.4021329 105.2058344  90.3703301
 109.8658686 104.7549083  91.0224897 109.8138037 105.3404253  89.6273765
 108.6969872 121.9722394  84.2647959 108.9366470 122.6040918  84.9426978
 107.8539069 121.6210434  84.5513319 109.8123588 104.6646996  72.9329764
 108.9353054 104.5435797  72.5692011 110.2881341 103.8733074  72.6808653
 119.6796581 113.1200064  89.7028220 118.7923359 112.7825986  89.8254619
 120.2495132 112.3883095  89.9396986 101.3325728 109.4524155  83.0271272
 102.0196768 109.1385886  82.4392287 101.1773856 110.3565520  82.7538523
 106.1360450 104.3414352  87.4556295 106.0518639 103.7340022  86.7206705
 105.3143156 104.8323370  87.4565792 113.2097734 117.7801516  86.6689463
 113.1367906 118.5856488  87.1808768 112.7675127 117.9793482  85.8437485
 112.9987514 117.0173286  80.1792285 112.2155036 117.5594966  80.2730509
 113.6980259 117.5347266  80.5786526 116.3084164 102.8267916  82.8226490
 116.8052863 102.0737878  82.5027561 115.5371145 102.8632232  82.2569700
 124.1613921 108.5308281  84.4644782 124.1503797 109.4132997  84.0938715
 123.2931301 108.1779832  84.2699319 115.6696418 117.6788350  88.8247622
 116.3824390 118.3135815  88.7523524 115.1786446 117.7752216  88.0087624
 117.3913945 111.5839603  80.3964914 116.4570223 111.7041065  80.2269618
 117.5690613 110.6812070  80.1324924 112.8919133 104.9685299  82.5498175
 112.5216920 104.4156339  83.2379080 113.3878225 104.3643432  81.9973175
 120.7786496 107.4256922  80.9314948 121.2446948 108.2584914  80.8575251
 121.2293996 106.9601904  81.6360206 110.7208331 115.4282794  89.6453193
 111.4217791 116.0619277  89.7982587 110.2503446 115.7697525  88.8848832
 118.8462727 113.7700743  77.9301100 119.1222571 113.6557338  78.8394974
 117.9767226 113.3718228  77.8913273 118.7503159  99.7937509  84.9705849
 117.8366238 100.0241736  85.1388056 119.1796260  99.8775953  85.8219882
 118.5209617 107.9827401  87.4705743 117.8681067 108.2303308  86.8158196
 118.8989997 107.1691539  87.1368221 115.4816791 118.0187094  81.5733914
 115.6639186 117.2008750  82.0361666 116.3049777 118.2354786  81.1358804
 115.8158956 116.9455279  78.8348962 116.3446723 116.4347734  78.2219124
 116.0787176 116.6297810  79.6994495 114.5697190 108.7247212  93.9571780
 113.8937827 108.6241341  94.6274156 115.3924824 108.5686426  94.4207778
 106.3176049 114.9619149  86.5784296 106.9029486 114.2162837  86.7112200
 106.1200888 115.2723105  87.4620959 109.1714704 117.9970396  81.5946738
 108.5025080 118.4816524  81.1110778 109.0327574 118.2439616  82.5090116
 100.9093704 107.5324749  85.2988739 100.9477803 106.9988340  86.0925857
 100.4033997 107.0059954  84.6799716 113.3119973 120.0314140  88.1929396
 113.8638281 120.1945761  88.9578482 113.6526166 120.6218577  87.5209421
 108.2884466 102.3789289  88.7951281 108.3525793 103.2404120  88.3828679
 108.2251586 101.7663291  88.0623640 107.7636739 104.4512422  92.4424315
 108.3908778 104.0689499  93.0561840 106.9064658 104.2326624  92.8080008
 118.1630847 114.8575397  94.0478051 118.7070751 115.4705355  93.5533006
 117.5817692 115.4154975  94.5645064 104.5402282 106.2588851  78.3742670
 104.8355723 105.3499529  78.3209724 103.6390317 106.2376590  78.0523672
 116.4488360 117.9796115  85.1793078 116.3239500 117.1785855  84.6704024
 117.1067451 118.4742308  84.6907048 108.0696529 104.3344848  84.3570219
 107.3483114 104.9480815  84.2177692 108.8589784 104.8702612  84.2786865
 118.5123269 115.7805135  86.8072629 117.5653604 115.6610486  86.7350955
 118.8606042 114.8927633  86.8898890 110.8722842 101.6699274  90.6310870
 111.3957244 101.9161571  91.3937180 110.6535175 102.5019309  90.2114008
 106.2690123 103.9402949  78.4981995 105.9402829 103.0600328  78.3157101
 106.6229494 103.8850617  79.3858384 115.5169702 115.5757851  83.0076981
 115.3694664 114.6474559  83.1884551 116.3423195 115.5977942  82.5234056
 109.3831946 104.2275918  78.8657473 109.7228019 104.7561840  78.1436081
 109.8304067 104.5656325  79.6416039 119.1203824 116.3986410  84.0941854
 120.0450371 116.1929271  83.9566305 118.9519127 116.1502811  85.0031195
 112.0775387 102.6112969  88.3160541 111.7372207 101.8120782  88.7181221
 111.3714393 102.9114680  87.7437374 112.7291859  99.6962282  86.7687864
 113.5517928  99.2222760  86.6466754 112.9729922 100.4752765  87.2686550
 111.3700093 102.7250540  77.0650766 112.0908456 103.1031793  76.5614483
 110.7465398 103.4439417  77.1685744 115.5131216 103.4295689  78.0009098
 115.7294831 104.3120327  77.6997926 115.0325283 103.0381902  77.2714740
 110.2530438 106.3881402  84.5779843 110.1075018 106.7021705  85.4704124
 109.7755641 107.0066303  84.0250741 112.1126821 103.3783950  84.6260732
 112.0988389 102.4825044  84.2893030 112.8299249 103.3854614  85.2599018
 113.9652951 103.8121290  86.6713860 113.7070729 104.7338361  86.6698190
 113.4337992 103.4151725  87.3614324 118.9099140 116.9172078  79.4503945
 119.0836018 116.3518500  78.6977797 119.4028031 117.7172972  79.2683435
 104.7276100 108.9286747  87.5167504 104.1829568 109.7046555  87.6487778
 105.6055450 109.2757551  87.3586625 111.5163716 102.2598330  79.8948302
 111.6379628 101.3314977  80.0939190 111.2265759 102.2737016  78.9826618
 114.3854907  99.9453241  83.0315022 114.4076604 100.0092574  82.0767002
 114.8022966  99.1057750  83.2255528 124.7638531 109.6808500  81.0694245
 125.2069677 108.9315826  80.6713368 123.8865041 109.6718637  80.6867977
 119.8974313 116.2338842  76.5500843 120.5925217 116.8545535  76.7688158
 120.2397463 115.3834193  76.8253221 105.5142122 108.0556643  90.4097661
 104.7723858 108.2039278  90.9962291 105.1934866 108.3164909  89.5464410
 121.7965736 113.6838547  78.0788174 122.3217060 114.0225820  77.3537494
 121.7088088 112.7485563  77.8951309 113.4585784 117.5972621  90.2078051
 113.7672911 117.3521768  91.0800750 114.2561266 117.8019260  89.7196921
 113.4806396 119.7510531  82.4383427 113.0411387 119.2586909  83.1316284
 114.2314513 119.2083498  82.1975502 105.9598735 115.9422072  82.4408055
 106.7856755 115.6425843  82.0606699 105.6092787 115.1729694  82.8897844
 110.9280269 115.2948540  84.5105729 110.3060278 114.6319245  84.2107957
 111.5985135 115.3209672  83.8279377 104.1607340 113.8608398  83.3996989
 103.3239249 113.4330572  83.2180990 104.1330986 114.0540841  84.3367780
 111.0004796 103.7730328  94.1038235 111.0492951 104.6492451  93.7216005
 111.5427310 103.2307721  93.5309878 121.4859642 114.3171451  93.3839372
 120.6955185 114.2995590  92.8443871 121.2492996 114.8559745  94.1388409
 121.6057517 111.1663917  90.6972101 121.6555522 111.0013925  91.6387623
 121.4971440 110.2991177  90.3069981 110.4893775 113.8452463  77.9864189
 110.6381896 114.5287928  77.3330862 111.2960219 113.8257553  78.5013645
 118.8961279 107.1494846  92.0131407 119.7971142 107.0101310  91.7215405
 118.9709254 107.3149300  92.9529585 113.2304084 104.5261700  90.8584594
 112.3607394 104.8195266  90.5867182 113.4663565 105.1102145  91.5791857
 123.1075714 113.5860859  90.9414122 122.8160522 113.9490840  91.7777583
 122.4947845 112.8727867  90.7627454 124.3071396 111.1513739  83.4616692
 125.1418287 111.5903543  83.6254253 124.4430525 110.6752392  82.6424938
 121.3562902 108.7093474  89.4094180 121.8317023 108.9021120  88.6013031
 120.4328467 108.7652659  89.1637564 108.2446408 109.8717641  78.9925258
 107.9992450 108.9679971  79.1905468 108.4142323 109.8734791  78.0504736
 115.9343118 100.7441317  88.3750014 116.4525062 101.4802344  88.0496503
 115.5798251 101.0505310  89.2096773 107.5142056 105.6045998  76.4911420
 106.8211301 105.6790353  75.8351456 107.2693808 104.8406342  77.0132937
 116.1855712  97.1641600  83.8950911 116.4657466  96.4964789  84.5211337
 116.9706319  97.3570695  83.3825574 113.9889181 116.3400594  75.4575937
 113.4163148 116.9590781  75.0046409 114.5621975 116.8899955  75.9915859
 120.0564571 105.5859234  87.6422486 121.0081994 105.6857331  87.6634710
 119.8868021 104.7937502  88.1520570 118.0778950 102.6714817  87.8281887
 117.4828882 102.9519830  87.1328375 117.7928647 103.1608718  88.5998628
 117.2086441 116.6237744  76.5884519 118.1417114 116.5583305  76.7917395
 117.1209654 117.4594011  76.1299052 119.8374457 115.9403614  73.5488467
 119.7588089 115.6063478  74.4424225 120.6584124 116.4325382  73.5479939
 122.5352649 108.8065353  86.7564785 122.5028969 107.8681354  86.9424469
 123.1453272 108.8849390  86.0230610 114.3735979 107.6761406  72.7991989
 115.3195084 107.5467614  72.8680407 113.9950224 106.9376068  73.2761418
 122.6847137 105.5976397  86.8023068 122.1686186 104.8134853  86.6152997
 123.5687086 105.2695113  86.9669588 120.3457864  99.3417412  82.7618881
 120.1482685  99.0332501  83.6462213 120.9557570 100.0679051  82.8916811
 128.3529198 109.8681360  85.8970822 129.0832587 109.6066648  86.4578525
 127.7436144 109.1310082  85.9372890 126.4344496 108.0089223  86.4945273
 125.7077659 107.8745188  85.8861765 126.0191782 108.3166051  87.3001991
 114.2574672 111.7279153  94.2592646 115.1777681 111.9057752  94.4532693
 114.2224255 110.7835198  94.1072346 112.5578897 105.6011383  72.7346875
 111.6510352 105.3044495  72.8109588 112.8354878 105.3041201  71.8681161
 103.4756837 106.9217746  83.1845921 103.1559621 106.0683054  82.8920295
 102.9290265 107.1366324  83.9403888 107.2536745 109.6380187  86.9015427
 107.4722754 110.5697295  86.9203461 107.6662518 109.2788162  87.6870231
 114.1740962 100.1448272  78.8891116 113.3641691  99.7995357  79.2646362
 114.8625379  99.8355816  79.4778727 116.1031511  99.2226319  80.5115413
 116.6562549  99.6421773  81.1705436 116.3401597  98.2962067  80.5538369
 112.1264610 105.2113393  96.2918176 112.0261337 106.1607750  96.2230268
 111.9086152 104.8831632  95.4194247 111.3277681 102.4598318  72.8758854
 112.1896845 102.7853216  73.1354671 111.5128025 101.6729814  72.3631920
 103.3445097 110.5420658  85.1539043 102.6508568 110.1274610  84.6408997
 104.0918088 110.5841194  84.5572461 119.4810318 101.3326844  80.0194077
 118.9008987 101.9911648  79.6372129 119.2146250 100.5104189  79.6081494
 117.9313884 100.7331902  82.2215397 118.4313662 100.8448437  81.4129716
 118.5749492 100.4292955  82.8616206 111.9895880 108.6410532  95.1083238
 111.5062962 109.4410892  95.3147127 112.0756819 108.6518477  94.1550682
 105.2581840 110.4738911  83.0305057 105.2352528 110.5726599  82.0786941
 105.5682476 111.3204062  83.3522224 107.9169217 112.5315066  87.1451672
 108.8712471 112.4999009  87.0781603 107.7181741 112.0705690  87.9601898
 108.5068600 111.1016183  89.7122470 109.3261489 111.5960261  89.7357307
 108.7805407 110.1848151  89.6840037 118.2635196 103.4926935  79.0750425
 117.3761051 103.7776585  78.8570620 118.6789185 103.3320698  78.2277702
 121.6149732 103.5173456  82.7904764 122.3910122 104.0069908  83.0629381
 120.8897866 103.9431510  83.2476634 124.0522290 104.2301075  83.8478705
 124.6466781 103.9896811  83.1372013 124.1248874 103.5108206  84.4752241
 106.2719446 118.0734686  84.1621870 106.1373914 117.3135087  83.5959868
 105.8551508 118.7975586  83.6950659 117.4078409 113.2571609  73.1698445
 118.1114259 113.4621612  73.7856101 116.6841058 113.8248371  73.4347529
 118.2376219 109.0081471  79.2900715 118.1811421 109.4650022  78.4508348
 118.7904562 108.2472155  79.1123558 122.0481025 104.7971203  80.1150835
 121.7917960 104.3967838  80.9459042 121.4233893 105.5114997  79.9900974
 126.3593363 107.5367276  82.6222126 125.7992921 107.6060465  83.3953688
 125.7536867 107.3608261  81.9021622 109.4288572 118.9704003  84.3740312
 109.3120956 119.9149435  84.2719003 108.6081018 118.6677565  84.7626112
 119.3165107 113.6954139  75.2196905 120.1510711 113.2635337  75.0374380
 119.1549450 113.5236152  76.1473800 118.9710999 110.1986252  76.5853244
 118.9159803 110.0330523  75.6441688 118.3457054 110.9062285  76.7415434
 103.7603514 105.4354316  90.4114667 104.4062377 104.9253270  90.9001892
 103.5520665 106.1722998  90.9858092 116.2856906 112.5035164  95.9106807
 117.1548066 112.6775816  95.5493442 115.8063657 113.3229581  95.7882536
 112.2807124  99.6994361  76.1638563 112.2685794 100.6436201  76.3206834
 113.1730546  99.5164506  75.8698024 110.4543086 119.6232265  87.5896241
 111.3570333 119.6555875  87.9062736 110.2280456 118.6932716  87.6042577
 112.2096688 118.3763251  84.2506319 111.2592319 118.3765113  84.1370692
 112.5129174 117.6295986  83.7342354 116.0959244  96.2937138  80.4184500
 115.3291640  95.7395624  80.5641182 116.5069949  96.3659006  81.2798651
 108.1001005 102.5821933  94.5089681 108.9632466 102.2258738  94.7193005
 107.5266415 102.2435828  95.1965085 127.9449382 124.2123790  85.3152082
 128.5827792 124.0930537  84.6115422 127.8270225 125.1604634  85.3740034
 124.7539088 124.1651218  85.2513607 124.4157600 124.0492283  84.3634141
 125.6228856 123.7642383  85.2314613 120.6125904 126.0186694  81.2410497
 120.0490769 125.9276631  80.4726785 120.4978299 125.1986599  81.7212990
 125.2358871 125.3186070  91.2099812 125.2247512 124.9238868  90.3380316
 125.3979510 124.5852142  91.8033583 118.1590336 127.5137886  84.0794718
 118.9511628 127.1728711  83.6641017 118.3986986 127.6232861  84.9996871
 126.1925462 129.6857662  76.5524962 125.5413442 130.2711742  76.1658976
 126.9869825 130.2163857  76.6120000 120.1181090 126.7746799  76.9512097
 120.8911966 126.2275786  76.8124973 120.4706488 127.6391049  77.1626558
 121.9566132 128.1023181  90.1578996 121.6655998 129.0068812  90.0425662
 122.5923116 128.1439709  90.8723066 122.8822339 125.4800030  86.7480356
 123.4785911 125.2556052  86.0337319 122.9397310 124.7384775  87.3505804
 122.4547367 122.9339465  74.5830547 122.7072888 122.4120987  73.8214010
 121.5171926 122.7705611  74.6857230 127.4990650 121.9375244  82.3905290
 128.2853739 121.5194667  82.0395707 127.7629355 122.8421336  82.5586938
 127.6700728 127.3748094  77.0893947 127.0346561 127.4482720  77.8014851
 127.3398134 127.9641693  76.4113026 132.8999077 121.8750477  83.2938268
 133.6324249 121.3049694  83.5276098 132.1438433 121.4872077  83.7344774
 122.1743656 124.8367571  76.7854922 122.0579914 124.1612475  77.4536006
 122.2845916 124.3499945  75.9687075 124.5175197 124.2977718  80.4901611
 124.1533404 123.7708339  81.2014532 125.3742313 123.9076187  80.3168096
 130.4224498 115.5872051  87.7532877 130.0907822 116.4567462  87.5294092
 129.8270111 115.2708335  88.4326907 124.1580684 119.3267618  75.4862959
 124.3255086 120.1947854  75.8533430 123.9677853 119.4894900  74.5624249
 126.9156017 127.7884597  87.1528790 126.6156740 128.6909636  87.0444597
 126.5707077 127.5216780  88.0049943 120.3668499 124.2398394  83.1865494
 119.4418995 124.1074608  83.3943186 120.6152912 125.0192613  83.6835437
 130.3153161 120.3067137  84.8326227 129.4070038 120.2382546  84.5384988
 130.2640757 120.7839082  85.6608053 124.1369905 121.7825276  76.4709626
 124.0169530 122.2282326  77.3095106 123.4422493 122.1310593  75.9123164
 117.7277310 123.8831667  84.0209283 117.8569691 124.1366146  84.9348695
 117.0474761 124.4759375  83.7013938 124.3894027 121.7256783  92.7761124
 123.6127361 122.2850703  92.7663989 125.0284590 122.2113566  93.2975994
 132.1814807 118.5083576  86.6104101 131.5389188 118.8016109  85.9643896
 131.6769736 118.3936496  87.4157298 129.8354971 122.2546749  77.2989960
 130.7472827 122.4874135  77.1237658 129.3264618 122.8383793  76.7365039
 122.6440399 124.5342236  92.3379091 123.3855083 125.0727280  92.0613915
 121.9377385 125.1608525  92.4950643 128.1195739 126.6771377  90.9351253
 128.5279095 126.2353787  90.1905885 127.3973000 126.1024004  91.1885446
 124.4726809 121.6143983  88.3084810 125.3188004 122.0383397  88.4519459
 124.4125446 120.9577608  89.0023373 128.4424553 127.2372567  84.6903542
 127.8133416 127.4018281  83.9879610 128.0550215 127.6514177  85.4614506
 127.6226254 119.2748352  89.9665983 127.3787186 120.0290412  89.4300259
 127.8986185 119.6533699  90.8013230 129.5764717 125.8186964  88.6443249
 129.7881612 126.4618724  87.9677630 129.5294465 124.9849281  88.1765179
 127.1790946 118.4304785  85.5479821 126.3175425 118.7286038  85.8396559
 127.2053380 118.6475184  84.6160854 123.9952515 126.9746975  81.9553627
 124.4590861 127.2534678  81.1658249 123.7309313 126.0730420  81.7726717
 120.8876596 126.5218457  84.8933390 121.4577953 126.9505725  84.2550875
 121.4784708 126.2401042  85.5917576 122.9321401 123.0970128  78.7643192
 123.6345445 123.5491171  79.2317118 122.6002030 122.4553947  79.3923085
 121.3801763 121.6881884  93.1394401 120.7500423 122.3698165  93.3729798
 121.2737851 121.5764966  92.1947540 116.6746735 121.3553680  84.0660325
 115.8845789 121.6111209  83.5900436 117.1657983 122.1702018  84.1712366
 118.6261481 121.7198260  81.0243802 117.8292644 121.8316954  81.5427298
 118.3987073 122.0584912  80.1584693 124.4567148 128.2442963  88.9726317
 124.5211581 128.7063370  89.8084489 123.7478072 127.6140328  89.1008627
 114.9584438 121.6084171  86.4975316 115.2092477 122.4931181  86.7632892
 115.4943987 121.4288772  85.7250408 124.1715166 129.9111070  78.8405297
 124.0360841 130.7562606  79.2690145 124.7124978 130.1130348  78.0771231
 120.6582506 115.9902650  95.5019652 120.2649451 115.4368849  96.1767297
 121.4748646 116.3013229  95.8926170 117.6244563 127.4286508  79.4133222
 118.1369084 128.2229759  79.5638787 118.2767276 126.7312799  79.3466824
 119.4339448 130.5452265  81.4955975 119.6106076 131.4670229  81.3076959
 120.2296282 130.2310684  81.9250355 123.5750467 117.4060529  93.0939909
 124.3160180 118.0067682  93.0144371 123.8068389 116.6638167  92.5357951
 118.7191805 122.5916896  91.3718139 118.6045320 121.6902154  91.6725238
 117.8636322 122.8380593  91.0202955 125.7983642 130.5334637  92.9705639
 125.3547496 129.7471015  92.6526544 126.4600856 130.7213787  92.3049530
 120.5570763 132.0630438  87.4966318 121.1078189 131.9347502  86.7243312
 119.7182239 132.3625327  87.1461211 124.3537935 128.3281566  91.8410549
 124.8866271 127.5669854  91.6109857 123.8252016 128.0355218  92.5834703
 127.5207629 113.4341632  87.3704191 127.1771899 114.3243274  87.2943301
 127.8886592 113.2443290  86.5073776 115.5893480 125.7575163  80.1892793
 116.4268702 126.1672171  79.9726500 115.7671748 124.8174605  80.1592987
 127.4857912 123.4250243  75.8776626 126.9704536 124.1954848  76.1165013
 127.2135221 122.7515379  76.5009687 125.0705023 118.2699944  80.9361864
 124.2146620 117.8806794  80.7567503 125.4831975 118.3491905  80.0761650
 126.6004170 115.8046287  85.3353424 126.0968965 115.7676422  84.5221229
 126.8934777 116.7139030  85.3950080 122.8447056 115.8885017  84.3419606
 123.7100053 115.6927826  83.9825495 122.9124565 115.6595369  85.2688962
 127.2744215 121.2977335  77.7036407 126.9694351 121.6123485  78.5546550
 128.2274657 121.3758755  77.7463740 125.7190647 127.4567559  79.3529361
 125.1912009 126.7220318  79.0402598 125.2178150 128.2342235  79.1069329
 130.6983493 125.6516579  84.4696407 130.0407168 126.3415841  84.5576536
 131.5023892 126.0413011  84.8130394 120.4509375 118.1187225  81.7135972
 121.0253127 117.8962406  80.9809165 121.0380357 118.1875919  82.4664574
 129.5088952 124.0060952  82.5200349 130.0220834 124.6390944  83.0222059
 130.1590176 123.4062147  82.1543709 120.7778962 120.1491686  75.7331858
 119.9416274 120.4866373  76.0541132 120.6383732 120.0140666  74.7958995
 122.7532043 114.9928474  80.4411042 122.0996455 114.6777491  79.8167657
 122.7112517 114.3704214  81.1670865 123.8643247 125.2747769  72.3564334
 122.9570309 125.0437022  72.5555483 124.3614279 124.4785388  72.5438315
 125.9869783 121.4810407  84.7658689 125.0692344 121.7025354  84.6080377
 126.4029927 121.5556718  83.9070397 126.7704831 122.8801823  79.8961370
 127.5176650 123.3923220  79.5868492 127.0396420 122.5585876  80.7565763
 125.0431481 125.3760364  76.8788324 124.1342700 125.0919397  76.9760794
 125.0726565 125.7959442  76.0191631 129.2183668 119.9158939  81.8780159
 128.4806425 119.4036326  82.2090402 129.4710441 119.4759321  81.0663436
 129.3195295 112.6935191  82.4721928 129.6254172 111.8332555  82.1847843
 130.0447900 113.2852812  82.2720922 115.6119651 123.0965878  80.8603526
 115.4144051 122.5035239  80.1354593 115.0566315 122.7918088  81.5779465
 123.5916375 122.9888984  82.9798119 123.6464985 122.0362821  82.9040596
 122.7807577 123.1448423  83.4639418 124.7407569 126.9169107  74.2176403
 124.3026999 126.2004966  73.7582040 125.4818010 127.1445222  73.6561494
 121.5308735 121.6066044  80.7388498 120.7176600 121.9060215  81.1453690
 122.0267729 121.2121733  81.4562980 123.6817313 131.6023801  82.6722763
 123.6393491 131.8284647  81.7431295 124.5980012 131.3687176  82.8208564
 127.1282946 122.0707869  89.5703392 127.4832334 122.2979342  90.4297858
 127.7755078 122.4026245  88.9480647 132.8580683 125.1926305  80.2752721
 132.7198582 125.3827900  79.3473910 132.5016902 125.9545687  80.7320772
 121.0222810 119.1784400  86.3549733 121.6622189 119.0373159  85.6572696
 120.1900340 118.8918913  85.9788335 121.7983113 128.4786830  82.4684726
 122.5923712 127.9837150  82.2667301 121.0874806 127.9504693  82.1052431
 118.1065877 122.6229912  78.5444478 117.1763465 122.5614367  78.7614440
 118.2023349 122.1005865  77.7481120 118.0251426 119.1484725  81.1322720
 118.2858243 120.0630058  81.0231880 118.8468598 118.6809167  81.2819333
 119.4976351 120.5622482  88.3021544 120.1699405 120.3539844  87.6534193
 118.6706138 120.3644568  87.8626777 125.4001923 117.1884423  90.3187205
 124.7529838 117.8874372  90.2251682 126.1702939 117.6220567  90.6863454
 128.8080721 127.4533275  93.3937759 128.6566228 127.2243827  92.4767842
 128.7985401 128.4103876  93.4069104 125.5766058 125.0265188  88.3784025
 126.5058118 125.1776347  88.2052992 125.1557088 125.1149208  87.5232672
 124.3754389 129.0515852  86.1482563 124.2365475 128.6834636  87.0208501
 123.5868986 129.5663492  85.9766521 125.9259605 128.4297455  83.5371400
 125.5909437 128.3898225  84.4329050 125.4263550 127.7642171  83.0641811
 119.9003849 123.8365085  89.0623982 119.7623647 123.1045324  89.6635521
 120.8108772 123.7473985  88.7808169 128.8618796 125.7753489  73.8108460
 128.2447967 125.0500317  73.7141513 128.3935285 126.5362849  73.4675534
 122.5286149 123.5485044  88.5507661 123.2385768 122.9078236  88.5094280
 122.4855457 123.7997939  89.4733842 121.2415083 120.5350262  90.3703301
 120.7052440 120.0841000  91.0224897 120.6531792 120.6696171  89.6273765
 120.6517342 119.9938913  72.9329764 119.7746808 119.8727714  72.5692011
 121.1275095 119.2024992  72.6808653 112.1719482 124.7816073  83.0271272
 112.8590522 124.4677803  82.4392287 112.0167611 125.6857438  82.7538523
 116.9754204 119.6706270  87.4556295 116.8912393 119.0631939  86.7206705
 116.1536911 120.1615288  87.4565792 127.1477918 118.1559833  82.8226490
 127.6446618 117.4029796  82.5027561 126.3764900 118.1924150  82.2569700
 135.0007676 123.8600199  84.4644782 134.9897552 124.7424914  84.0938715
 134.1325055 123.5071750  84.2699319 128.2307699 126.9131520  80.3964914
 127.2963978 127.0332983  80.2269618 128.4084367 126.0103987  80.1324924
 123.7312887 120.2977216  82.5498175 123.3610675 119.7448257  83.2379080
 124.2271980 119.6935350  81.9973175 131.6180250 122.7548840  80.9314948
 132.0840703 123.5876831  80.8575251 132.0687751 122.2893821  81.6360206
 121.5602086 130.7574711  89.6453193 122.2611545 131.3911194  89.7982587
 121.0897201 131.0989443  88.8848832 129.5896913 115.1229427  84.9705849
 128.6759993 115.3533654  85.1388056 130.0190015 115.2067871  85.8219882
 129.3603372 123.3119319  87.4705743 128.7074822 123.5595226  86.8158196
 129.7383751 122.4983457  87.1368221 125.4090945 124.0539130  93.9571780
 124.7331582 123.9533259  94.6274156 126.2318579 123.8978343  94.4207778
 117.1569804 130.2911066  86.5784296 117.7423241 129.5454754  86.7112200
 116.9594642 130.6015023  87.4620959 120.0108459 133.3262314  81.5946738
 119.3418834 133.8108441  81.1110778 119.8721329 133.5731534  82.5090116
 111.7487458 122.8616667  85.2988739 111.7871558 122.3280257  86.0925857
 111.2427751 122.3351872  84.6799716 119.1278221 117.7081207  88.7951281
 119.1919547 118.5696038  88.3828679 119.0645341 117.0955209  88.0623640
 118.6030493 119.7804340  92.4424315 119.2302532 119.3981417  93.0561840
 117.7458412 119.5618541  92.8080008 115.3796036 121.5880769  78.3742670
 115.6749477 120.6791447  78.3209724 114.4784072 121.5668508  78.0523672
 118.9090283 119.6636765  84.3570219 118.1876869 120.2772733  84.2177692
 119.6983539 120.1994530  84.2786865 121.7116597 116.9991192  90.6310870
 122.2350998 117.2453488  91.3937180 121.4928930 117.8311227  90.2114008
 117.1083878 119.2694866  78.4981995 116.7796584 118.3892245  78.3157101
 117.4623248 119.2142535  79.3858384 120.2225701 119.5567836  78.8657473
 120.5621773 120.0853757  78.1436081 120.6697821 119.8948242  79.6416039
 122.9169142 117.9404887  88.3160541 122.5765962 117.1412700  88.7181221
 122.2108148 118.2406598  87.7437374 123.5685613 115.0254199  86.7687864
 124.3911683 114.5514677  86.6466754 123.8123677 115.8044683  87.2686550
 122.2093848 118.0542458  77.0650766 122.9302210 118.4323710  76.5614483
 121.5859152 118.7731335  77.1685744 126.3524971 118.7587607  78.0009098
 126.5688585 119.6412245  77.6997926 125.8719038 118.3673820  77.2714740
 121.0924192 121.7173320  84.5779843 120.9468773 122.0313623  85.4704124
 120.6149396 122.3358220  84.0250741 122.9520575 118.7075868  84.6260732
 122.9382144 117.8116961  84.2893030 123.6693003 118.7146532  85.2599018
 124.8046706 119.1413208  86.6713860 124.5464484 120.0630279  86.6698190
 124.2731746 118.7443643  87.3614324 115.5669854 124.2578664  87.5167504
 115.0223322 125.0338472  87.6487778 116.4449204 124.6049469  87.3586625
 122.3557471 117.5890248  79.8948302 122.4773382 116.6606894  80.0939190
 122.0659513 117.6028934  78.9826618 125.2248661 115.2745159  83.0315022
 125.2470358 115.3384492  82.0767002 125.6416720 114.4349667  83.2255528
 116.3535876 123.3848561  90.4097661 115.6117612 123.5331196  90.9962291
 116.0328620 123.6456826  89.5464410 116.7992490 131.2713989  82.4408055
 117.6250510 130.9717761  82.0606699 116.4486542 130.5021612  82.8897844
 121.7674023 130.6240458  84.5105729 121.1454032 129.9611163  84.2107957
 122.4378890 130.6501589  83.8279377 115.0001095 129.1900316  83.3996989
 114.1633003 128.7622490  83.2180990 114.9724740 129.3832759  84.3367780
 121.8398551 119.1022246  94.1038235 121.8886706 119.9784368  93.7216005
 122.3821065 118.5599639  93.5309878 132.4451271 126.4955835  90.6972101
 132.4949276 126.3305843  91.6387623 132.3365195 125.6283094  90.3069981
 121.3287530 129.1744381  77.9864189 121.4775650 129.8579845  77.3330862
 122.1353973 129.1549471  78.5013645 129.7355034 122.4786763  92.0131407
 130.6364896 122.3393228  91.7215405 129.8103008 122.6441218  92.9529585
 124.0697839 119.8553618  90.8584594 123.2001148 120.1487184  90.5867182
 124.3057319 120.4394063  91.5791857 132.1956656 124.0385391  89.4094180
 132.6710778 124.2313038  88.6013031 131.2722222 124.0944577  89.1637564
 119.0840163 125.2009558  78.9925258 118.8386205 124.2971888  79.1905468
 119.2536077 125.2026709  78.0504736 126.7736873 116.0733235  88.3750014
 127.2918817 116.8094262  88.0496503 126.4192006 116.3797228  89.2096773
 118.3535810 120.9337916  76.4911420 117.6605055 121.0082271  75.8351456
 118.1087562 120.1698260  77.0132937 127.0249467 112.4933517  83.8950911
 127.3051221 111.8256706  84.5211337 127.8100074 112.6862613  83.3825574
 130.8958325 120.9151151  87.6422486 131.8475748 121.0149249  87.6634710
 130.7261776 120.1229420  88.1520570 128.9172705 118.0006735  87.8281887
 128.3222637 118.2811747  87.1328375 128.6322401 118.4900636  88.5998628
 133.3746403 124.1357271  86.7564785 133.3422723 123.1973272  86.9424469
 133.9847027 124.2141308  86.0230610 125.2129734 123.0053324  72.7991989
 126.1588839 122.8759532  72.8680407 124.8343979 122.2667986  73.2761418
 133.5240892 120.9268315  86.8023068 133.0079940 120.1426771  86.6152997
 134.4080840 120.5987031  86.9669588 131.1851618 114.6709330  82.7618881
 130.9876440 114.3624418  83.6462213 131.7951324 115.3970969  82.8916811
 125.0968426 127.0571070  94.2592646 126.0171436 127.2349669  94.4532693
 125.0618010 126.1127116  94.1072346 123.3972651 120.9303300  72.7346875
 122.4904106 120.6336413  72.8109588 123.6748632 120.6333119  71.8681161
 114.3150591 122.2509664  83.1845921 113.9953376 121.3974972  82.8920295
 113.7684020 122.4658242  83.9403888 118.0930499 124.9672105  86.9015427
 118.3116509 125.8989213  86.9203461 118.5056273 124.6080079  87.6870231
 125.0134717 115.4740190  78.8891116 124.2035445 115.1287275  79.2646362
 125.7019134 115.1647734  79.4778727 126.9425265 114.5518237  80.5115413
 127.4956304 114.9713690  81.1705436 127.1795351 113.6253985  80.5538369
 122.9658364 120.5405311  96.2918176 122.8655091 121.4899668  96.2230268
 122.7479906 120.2123550  95.4194247 122.1671436 117.7890236  72.8758854
 123.0290600 118.1145134  73.1354671 122.3521780 117.0021732  72.3631920
 114.1838851 125.8712575  85.1539043 113.4902323 125.4566528  84.6408997
 114.9311842 125.9133112  84.5572461 130.3204072 116.6618762  80.0194077
 129.7402741 117.3203566  79.6372129 130.0540005 115.8396107  79.6081494
 128.7707639 116.0623820  82.2215397 129.2707417 116.1740354  81.4129716
 129.4143246 115.7584873  82.8616206 122.8289634 123.9702449  95.1083238
 122.3456716 124.7702810  95.3147127 122.9150573 123.9810394  94.1550682
 116.0975594 125.8030829  83.0305057 116.0746282 125.9018516  82.0786941
 116.4076231 126.6495980  83.3522224 118.7562972 127.8606984  87.1451672
 119.7106225 127.8290926  87.0781603 118.5575495 127.3997608  87.9601898
 119.3462354 126.4308100  89.7122470 120.1655243 126.9252179  89.7357307
 119.6199162 125.5140068  89.6840037 129.1028950 118.8218853  79.0750425
 128.2154805 119.1068503  78.8570620 129.5182939 118.6612616  78.2277702
 132.4543486 118.8465373  82.7904764 133.2303876 119.3361826  83.0629381
 131.7291621 119.2723428  83.2476634 134.8916045 119.5592993  83.8478705
 135.4860536 119.3188729  83.1372013 134.9642629 118.8400123  84.4752241
 117.1113201 133.4026604  84.1621870 116.9767669 132.6427005  83.5959868
 116.6945263 134.1267504  83.6950659 128.2472164 128.5863527  73.1698445
 128.9508014 128.7913530  73.7856101 127.5234812 129.1540289  73.4347529
 129.0769974 124.3373388  79.2900715 129.0205175 124.7941940  78.4508348
 129.6298316 123.5764073  79.1123558 132.8874780 120.1263120  80.1150835
 132.6311714 119.7259756  80.9459042 132.2627648 120.8406914  79.9900974
 137.1987118 122.8659194  82.6222126 136.6386676 122.9352383  83.3953688
 136.5930621 122.6900178  81.9021622 120.2682327 134.2995921  84.3740312
 120.1514711 135.2441353  84.2719003 119.4474773 133.9969482  84.7626112
 129.8104753 125.5278170  76.5853244 129.7553557 125.3622441  75.6441688
 129.1850809 126.2354203  76.7415434 114.5997268 120.7646234  90.4114667
 115.2456132 120.2545188  90.9001892 114.3914419 121.5014916  90.9858092
 127.1250660 127.8327082  95.9106807 127.9941820 128.0067734  95.5493442
 126.6457412 128.6521498  95.7882536 123.1200879 115.0286279  76.1638563
 123.1079549 115.9728119  76.3206834 124.0124301 114.8456424  75.8698024
 126.9352998 111.6229055  80.4184500 126.1685394 111.0687542  80.5641182
 127.3463703 111.6950924  81.2798651 118.9394759 117.9113851  94.5089681
 119.8026221 117.5550656  94.7193005 118.3660170 117.5727746  95.1965085
  52.0693102  -6.0857511  72.0397388  52.7071511  -6.2050764  71.3360729
  51.9513944  -5.1376667  72.0985341  48.8782808  -6.1330083  71.9758913
  48.5401319  -6.2489019  71.0879448  49.7472576  -6.5338918  71.9559919
  44.7369623  -4.2794607  67.9655804  44.1734489  -4.3704670  67.1972092
  44.6222019  -5.0994702  68.4458297  49.3602591  -4.9795231  77.9345119
  49.3491232  -5.3742433  77.0625622  49.5223230  -5.7129159  78.5278890
  42.2834055  -2.7843415  70.8040025  43.0755347  -3.1252591  70.3886324
  42.5230706  -2.6748440  71.7242178  50.3169182  -0.6123639  63.2770269
  49.6657162  -0.0269559  62.8904283  51.1113545  -0.0817444  63.3365306
  44.2424809  -3.5234502  63.6757403  45.0155685  -4.0705515  63.5370279
  44.5950208  -2.6590253  63.8871865  46.0809852  -2.1958120  76.8824303
  45.7899718  -1.2912489  76.7670969  46.7166836  -2.1541592  77.5968372
  47.0066059  -4.8181271  73.4725662  47.6029631  -5.0425249  72.7582625
  47.0641030  -5.5596526  74.0751110  46.5791087  -7.3641836  61.3075853
  46.8316608  -7.8860315  60.5459316  45.6415646  -7.5275690  61.4102537
  51.6234370  -8.3606057  69.1150596  52.4097459  -8.7786634  68.7641014
  51.8873074  -7.4559965  69.2832245  51.7944447  -2.9233207  63.8139253
  51.1590280  -2.8498581  64.5260158  51.4641854  -2.3339608  63.1358333
  46.2987376  -5.4613730  63.5100228  46.1823634  -6.1368827  64.1781313
  46.4089636  -5.9481356  62.6932381  48.6418917  -6.0003583  67.2146917
  48.2777124  -6.5272962  67.9259839  49.4986033  -6.3905114  67.0413403
  48.2824404 -10.9713683  62.2108266  48.4498806 -10.1033447  62.5778737
  48.0921573 -10.8086401  61.2869555  51.0399737  -2.5096704  73.8774096
  50.7400460  -1.6071665  73.7689904  50.6950797  -2.7764521  74.7295249
  44.4912218  -6.0582907  69.9110801  43.5662715  -6.1906693  70.1188493
  44.7396632  -5.2788688  70.4080743  48.2613625  -8.5156026  63.1954933
  48.1413250  -8.0698975  64.0340413  47.5666213  -8.1670708  62.6368471
  41.8521030  -6.4149634  70.7454590  41.9813411  -6.1615155  71.6594002
  41.1718481  -5.8221926  70.4259245  46.0220517   4.2547616  66.8445064
  45.9444547   5.2055441  66.9233545  45.4182160   3.9093489  67.5019990
  48.5137747  -8.5724518  79.5006431  47.7371081  -8.0130598  79.4909296
  49.1528310  -8.0867735  80.0221301  53.9598691  -8.0434552  64.0235267
  54.8716547  -7.8107166  63.8482964  53.4508338  -7.4597508  63.4610345
  46.7684119  -5.7639065  79.0624398  47.5098803  -5.2254021  78.7859222
  46.0621104  -5.1372776  79.2195950  52.2439459  -3.6209925  77.6596559
  52.6522815  -4.0627514  76.9151192  51.5216720  -4.1957297  77.9130752
  48.5970529  -8.6837318  75.0330116  49.4431724  -8.2597904  75.1764765
  48.5369166  -9.3403693  75.7268679  52.5668273  -3.0608734  71.4148848
  51.9377136  -2.8963020  70.7124916  52.1793935  -2.6467124  72.1859812
  56.4457505  -2.1254296  68.7693212  55.7608543  -1.7455395  68.2190245
  56.5301354  -1.5158969  69.5025160  53.7008437  -4.4794337  75.3688556
  53.9125332  -3.8362577  74.6922937  53.6538185  -5.3132021  74.9010486
  48.1196235  -3.3234326  68.6798933  48.5834581  -3.0446623  67.8903556
  47.8553033  -4.2250881  68.4972024  45.0120316  -3.7762844  71.6178697
  45.5821673  -3.3475576  70.9796181  45.6028428  -4.0580260  72.3162882
  47.0565121  -7.2011173  65.4888499  47.7589164  -6.7490130  65.9562425
  46.7245750  -7.8427355  66.1168392  45.5045483  -8.6099417  79.8639708
  44.8744143  -7.9283136  80.0975105  45.3981571  -8.7216335  78.9192846
  54.8154265  -1.6022382  73.5410913  55.6371708  -2.0042194  73.2593595
  54.8116667  -1.7054147  74.4927029  48.5810868  -2.0538338  75.6971623
  48.6455301  -1.5917931  76.5329795  47.8721792  -2.6840973  75.8253933
  62.9060258  -5.2583633  69.8895884  62.1523966  -5.8276235  69.7339889
  63.0407799  -5.2920969  70.8366519  48.2958886  -0.3870231  65.5650604
  48.1604561   0.4581305  65.9935452  48.8368698  -0.1850953  64.8016538
  41.7488283  -2.8694793  66.1378529  42.2612804  -2.0751543  66.2884094
  42.4010996  -3.5668502  66.0712130  43.5583168   0.2470963  68.2201282
  43.7349796   1.1688928  68.0322266  44.3540001  -0.0670617  68.6495662
  42.8435524  -7.7064405  78.0963445  42.7289040  -8.6079147  78.3970544
  41.9880042  -7.4600708  77.7448262  49.9227362   0.2353336  79.6950946
  49.4791216  -0.5510286  79.3771850  50.5844576   0.4232486  79.0294837
  44.6814483   1.7649137  74.2211624  45.2321908   1.6366201  73.4488618
  43.8425959   2.0644026  73.8706517  52.0208600   0.5156136  77.7232347
  52.0027076   1.3365017  77.2312616  52.9428520   0.3910211  77.9482488
  48.4781654  -1.9699735  78.5655855  49.0109991  -2.7311447  78.3355163
  47.9495735  -2.2626083  79.3080010  39.7137200  -4.5406139  66.9138099
  40.5512422  -4.1309130  66.6971807  39.8915468  -5.4806696  66.8838293
  51.6101632  -6.8731058  62.6021932  51.0948255  -6.1026453  62.8410320
  51.3378940  -7.5465922  63.2254994  56.5835906  -4.1198703  64.5375106
  55.8065349  -4.4587544  64.0930268  57.2627387  -4.1146080  63.8630071
  51.3987935  -9.0003966  64.4281714  51.0938071  -8.6857817  65.2791857
  52.3518377  -8.9222546  64.4709046  49.8434367  -2.8413742  66.0774667
  49.3155729  -3.5760983  65.7647905  49.3421870  -2.0639066  65.8314636
  54.8227213  -4.6464722  71.1941714  54.1650887  -3.9565461  71.2821842
  55.6267612  -4.2568290  71.5375700  53.6332672  -6.2920349  69.2445656
  54.1464554  -5.6590357  69.7467365  54.2833896  -6.8919154  68.8789016
  44.9022682 -10.1489615  62.4577164  44.0659994  -9.8114929  62.7786439
  44.7627451 -10.2840635  61.5204301  47.9886967  -5.0233532  59.0809641
  47.0814029  -5.2544279  59.2800789  48.4857999  -5.8195913  59.2683622
  50.8955046   3.6863975  62.0006327  50.2216745   3.9895672  62.6091285
  51.2820868   4.4893055  61.6511784  50.1113503  -8.8170894  71.4903996
  49.1936064  -8.5955947  71.3325684  50.5273646  -8.7424583  70.6315703
  50.8948550  -7.4179478  66.6206676  51.6420369  -6.9058081  66.3113798
  51.1640140  -7.7395425  67.4811070  49.1675201  -4.9220937  63.6033631
  48.2586420  -5.2061905  63.7006100  49.1970284  -4.5021859  62.7436937
  54.3994468  -1.3114348  67.3724798  53.9456795  -2.1523438  67.4289989
  53.7688435  -0.6752949  67.7099578  52.8427407   0.5262149  68.3074616
  53.1350382   1.0867206  67.5886982  53.3526028   0.8190710  69.0627775
  47.7160095  -7.3092317  69.7043426  47.7708704  -8.2618480  69.6285903
  46.9051297  -7.1532878  70.1884724  48.8651288  -3.3812194  60.9421709
  48.4270718  -4.0976335  60.4827347  49.6061729  -3.1536079  60.3806801
  45.6552455  -8.6915257  67.4633805  44.8420320  -8.3921086  67.8698997
  46.1511449  -9.0859568  68.1808287  47.8061033   1.3042500  69.3968070
  47.7637211   1.5303346  68.4676602  48.7223731   1.0705875  69.5453871
  51.2526666  -8.2273433  76.2948699  51.6076054  -8.0001959  77.1543164
  51.8998798  -7.8955056  75.6725954  56.9824403  -5.1054997  66.9998028
  56.8442302  -4.9153401  66.0719217  56.6260622  -4.3435614  67.4566079
  57.0093783  -3.0378470  72.0109299  57.4430290  -3.1303181  72.8592353
  57.7225364  -3.0620969  71.3729315  45.9226833  -1.8194471  69.1930032
  46.7167432  -2.3144151  68.9912607  45.2118526  -2.3476608  68.8297738
  50.7421678   0.5623624  73.5442400  50.7958700   1.1314561  74.3120116
  49.8736459   0.7325510  73.1796437  42.2309597  -7.6751389  65.2689785
  41.3007185  -7.7366934  65.4859747  42.3267069  -8.1975437  64.4726426
  57.8709332  -2.9954769  74.5442185  58.0645222  -2.0908958  74.7901460
  57.7709951  -3.4547350  75.3780770  52.9324441  -2.8448026  80.1183065
  52.7809947  -3.0737475  79.2013149  52.9229121  -1.8877425  80.1314410
  49.7009777  -5.2716113  75.1029332  50.6301837  -5.1204954  74.9298299
  49.2800808  -5.1832093  74.2477978  48.4998109  -1.2465449  72.8727869
  48.3609195  -1.6146665  73.7453807  47.7112706  -0.7317810  72.7011827
  49.0946261   3.8543647  64.2153406  49.2698017   3.3831691  65.0299029
  48.4079049   4.4809414  64.4434667  50.0503324  -1.8683846  70.2616707
  49.7153157  -1.9083076  71.1574357  49.5507270  -2.5339130  69.7887117
  44.0247568  -6.4616216  75.7869288  43.8867366  -7.1935978  76.3880827
  44.9352492  -6.5507316  75.5053476  52.9862516  -4.5227812  60.5353767
  52.3691687  -5.2480984  60.4386819  52.5179005  -3.7618452  60.1920841
  46.6529869  -6.7496257  75.2752968  47.3629488  -7.3903065  75.2339586
  46.6099177  -6.4983362  76.1979149  54.6416648   0.1871096  78.1959547
  54.5829194  -0.4969684  77.5290130  55.0436166   0.9290086  77.7440173
  45.3658803  -9.7631039  77.0948607  44.8296160 -10.2140301  77.7470204
  44.7775511  -9.6285130  76.3519072  43.6607347   7.0033010  70.9893266
  43.9003945   7.6351534  71.6672285  42.8176543   6.6521050  71.2758625
  54.6434055  -1.8489320  76.4273527  53.7560834  -2.1863398  76.5499926
  55.2132606  -2.5806289  76.6642292  48.1735208   2.8112133  73.3934770
  48.1005380   3.6167104  73.9054075  47.7312602   3.0104098  72.5682791
  47.9624988   2.0483903  66.9037592  47.1792510   2.5905583  66.9975816
  48.6617733   2.5657882  67.3031833  59.1251396  -6.4381102  71.1890088
  59.1141272  -5.5556387  70.8184022  58.2568775  -6.7909552  70.9944626
  50.6333892   2.7098967  75.5492929  51.3461864   3.3446431  75.4768830
  50.1423921   2.8062833  74.7332931  52.3551419  -3.3849781  67.1210220
  51.4207698  -3.2648318  66.9514925  52.5328087  -4.2877314  66.8570230
  47.8556607 -10.0004085  69.2743482  47.4854394 -10.5533045  69.9624387
  48.3515699 -10.6045951  68.7218482  55.7423970  -7.5432461  67.6560254
  56.2084422  -6.7104470  67.5820557  56.1931471  -8.0087480  68.3605513
  45.6845805   0.4593410  76.3698500  46.3855265   1.0929893  76.5227894
  45.2140920   0.8008142  75.6094139  53.8100201  -1.1988640  64.6546407
  54.0860045  -1.3132046  65.5640281  52.9404700  -1.5971155  64.6158580
  53.4847091  -6.9861982  74.1951050  52.8318542  -6.7386075  73.5403503
  53.8627471  -7.7997844  73.8613527  50.4454265   3.0497711  68.2979220
  50.6276660   2.2319367  68.7606972  51.2687251   3.2665403  67.8604110
  50.7796431   1.9765896  65.5594269  51.3084197   1.4658350  64.9464431
  51.0424650   1.6608426  66.4239802  49.5334664  -6.2442171  80.6817087
  48.8575301  -6.3448042  81.3519462  50.3562298  -6.4002958  81.1453084
  41.2813524  -0.0070235  73.3029602  41.8666960  -0.7526547  73.4357506
  41.0838362   0.3033722  74.1866266  44.1352179   3.0281013  68.3192045
  43.4662554   3.5127140  67.8356085  43.9965048   3.2750233  69.2335423
  48.2757447   5.0624756  74.9174703  48.8275755   5.2256378  75.6823788
  48.6163641   5.6529194  74.2454728  53.1268322  -0.1113986  80.7723357
  53.6708226   0.5015972  80.2778312  52.5455166   0.4465592  81.2890370
  51.4125835   3.0106732  71.9038385  51.2876974   2.2096471  71.3949331
  52.0704926   3.5052925  71.4152355  53.4760743   0.8115752  73.5317935
  52.5291079   0.6921103  73.4596262  53.8243516  -0.0761750  73.6144197
  50.4807176   0.6068468  69.7322287  50.3332139  -0.3214825  69.9129857
  51.3060670   0.6288559  69.2479363  54.0841298   1.4297027  70.8187160
  55.0087846   1.2239888  70.6811611  53.9156601   1.1813428  71.7276502
  45.2167912  -8.5807981  71.3025149  45.0712493  -8.2667678  72.1949431
  44.7393116  -7.9623081  70.7496048  48.9290426 -11.1568093  73.3959166
  48.6708203 -10.2351022  73.3943497  48.3975466 -11.5537659  74.0859630
  53.8736614   1.9482694  66.1749252  54.0473492   1.3829117  65.4223104
  54.3665506   2.7483589  65.9928742  39.6913574  -6.0402637  74.2412810
  39.1467042  -5.2642829  74.3733085  40.5692924  -5.6931832  74.0831932
  59.7276006  -5.2880883  67.7939551  60.1707152  -6.0373558  67.3958675
  58.8502516  -5.2970747  67.4113283  54.8611787   1.2649458  63.2746150
  55.5562691   1.8856151  63.4933465  55.2034937   0.4144810  63.5498528
  40.4779596  -6.9132741  77.1342967  39.7361332  -6.7650105  77.7207598
  40.1572340  -6.6524475  76.2709717  56.7603210  -1.2850836  64.8033481
  57.2854534  -0.9463563  64.0782801  56.6725562  -2.2203821  64.6196615
  48.4223259   2.6283238  76.9323357  48.7310385   2.3832384  77.8046057
  49.2198741   2.8329876  76.4442228  48.4443871   4.7821147  69.1628734
  48.0048861   4.2897526  69.8561591  49.1951988   4.2394115  68.9220809
  40.9236210   0.9732688  69.1653362  41.7494230   0.6736460  68.7852005
  40.5730262   0.2040311  69.6143151  45.8917743   0.3259156  71.2351036
  45.2697752  -0.3370139  70.9353263  46.5622610   0.3520288  70.5524683
  39.1244815  -1.1080985  70.1242296  38.2876723  -1.5358811  69.9426297
  39.0968460  -0.9148542  71.0613087  56.4497116  -0.6517932  80.1084679
  55.6592660  -0.6693793  79.5689178  56.2130471  -0.1129639  80.8633715
  56.5694991  -3.8025466  77.4217407  56.6192996  -3.9675459  78.3632930
  56.4608914  -4.6698207  77.0315288  45.4531250  -1.1236920  64.7109496
  45.6019370  -0.4401456  64.0576169  46.2597693  -1.1431830  65.2258952
  53.8598753  -7.8194538  78.7376714  54.7608616  -7.9588073  78.4460712
  53.9346728  -7.6540083  79.6774891  48.1941559 -10.4427683  77.5829900
  47.3244868 -10.1494117  77.3112489  48.4301039  -9.8587238  78.3037164
  58.0713188  -1.3828524  77.6659429  57.7797996  -1.0198544  78.5022890
  57.4585319  -2.0961516  77.4872761  59.2708870  -3.8175645  70.1861999
  60.1055762  -3.3785841  70.3499559  59.4067999  -4.2936991  69.3670245
  56.3200376  -6.2595910  76.1339487  56.7954498  -6.0668264  75.3258338
  55.3965942  -6.2036724  75.8882870  43.2083883  -5.0971743  65.7170565
  42.9629925  -6.0009413  65.9150775  43.3779797  -5.0954592  64.7750043
  48.9526655   1.3711210  62.1821243  48.3800622   1.9901397  61.7291715
  49.5259449   1.9210572  62.7161165  52.1723915   1.6548360  63.3129826
  53.1054588   1.5893922  63.5162701  52.0847128   2.4904627  62.8544358
  54.8011932   0.9714231  60.2733773  54.7225563   0.6374094  61.1669531
  55.6221599   1.4635999  60.2725246  57.4990123  -6.1624030  73.4810092
  57.4666443  -7.1008029  73.6669776  58.1090747  -6.0839993  72.7475917
  49.3373454  -7.2927977  59.5237296  50.2832559  -7.4221769  59.5925714
  48.9587699  -8.0313315  60.0006724  63.3166673  -5.1008023  72.6216129
  64.0470061  -5.3622735  73.1823832  62.7073618  -5.8379301  72.6618197
  61.3981970  -6.9600161  73.2190580  60.6715133  -7.0944196  72.6107072
  60.9829257  -6.6523332  74.0247298  49.2212146  -3.2410231  80.9837953
  50.1415156  -3.0631632  81.1777999  49.1861729  -4.1854186  80.8317652
  47.5216371  -9.3678001  59.4592181  46.6147826  -9.6644888  59.5354895
  47.7992352  -9.6648183  58.5926467  42.2174219  -5.3309196  73.6260734
  42.4360229  -4.3992088  73.6448768  42.6299993  -5.6901222  74.4115538
  47.0902084  -9.7575991  83.0163483  46.9898811  -8.8081634  82.9475574
  46.8723626 -10.0857752  82.1439553  38.3082571  -4.4268726  71.8784349
  37.6146043  -4.8414773  71.3654304  39.0555562  -4.3848189  71.2817768
  46.9533354  -6.3278852  81.8328545  46.4700436  -5.5278492  82.0392434
  47.0394293  -6.3170907  80.8795989  40.2219314  -4.4950472  69.7550364
  40.1990002  -4.3962785  68.8032247  40.5319950  -3.6485321  70.0767530
  42.8806692  -2.4374317  73.8696978  43.8349945  -2.4690375  73.8026910
  42.6819215  -2.8983693  74.6847204  43.4706074  -3.8673201  76.4367776
  44.2898963  -3.3729122  76.4602613  43.7442882  -4.7841233  76.4085344
  41.2356921   3.1045303  70.8867176  41.1011388   2.3445703  70.3205174
  40.8188983   3.8286202  70.4195965  52.3715884  -1.7117774  59.8943752
  53.0751734  -1.5067771  60.5101407  51.6478532  -1.1441012  60.1592835
  53.2013694  -5.9607913  66.0146022  53.1448895  -5.5039361  65.1753654
  53.7542036  -6.7217228  65.8368865  44.3926046   4.0014620  71.0985619
  44.2758431   4.9460052  70.9964309  43.5718493   3.6988181  71.4871418
  54.2802581  -1.2735245  61.9442212  55.1148185  -1.7054046  61.7619686
  54.1186924  -1.4453231  62.8719106  53.9348473  -4.7703131  63.3098551
  53.8797277  -4.9358860  62.3686995  53.3094528  -4.0627099  63.4660741
  51.2494380  -2.4654220  82.6352114  52.1185540  -2.2913567  82.2738749
  50.7701132  -1.6459803  82.5127843  45.4180561   4.6542881  74.3141547
  46.3207807   4.6866492  74.6308042  45.1917931   3.7243332  74.3287883
  47.1734163   3.4073868  70.9751626  46.2229794   3.4075730  70.8615998
  47.4766649   2.6606603  70.4587661  62.9086856   9.2434406  72.0397388
  63.5465266   9.1241154  71.3360729  62.7907699  10.1915250  72.0985341
  59.7176562   9.1961834  71.9758913  59.3795074   9.0802899  71.0879448
  60.5866330   8.7953000  71.9559919  55.5763378  11.0497311  67.9655804
  55.0128243  10.9587248  67.1972092  55.4615773  10.2297215  68.4458297
  60.1996345  10.3496686  77.9345119  60.1884986   9.9549484  77.0625622
  60.3616985   9.6162759  78.5278890  53.1227810  12.5448502  70.8040025
  53.9149102  12.2039327  70.3886324  53.3624460  12.6543478  71.7242178
  61.1562937  14.7168279  63.2770269  60.5050916  15.3022359  62.8904283
  61.9507300  15.2474473  63.3365306  55.0818564  11.8057416  63.6757403
  55.8549440  11.2586403  63.5370279  55.4343963  12.6701665  63.8871865
  56.9203606  13.1333798  76.8824303  56.6293472  14.0379429  76.7670969
  57.5560591  13.1750326  77.5968372  57.8459813  10.5110647  73.4725662
  58.4423386  10.2866669  72.7582625  57.9034785   9.7695392  74.0751110
  57.4184842   7.9650082  61.3075853  57.6710362   7.4431603  60.5459316
  56.4809401   7.8016227  61.4102537  62.4628124   6.9685860  69.1150596
  63.2491214   6.5505283  68.7641014  62.7266829   7.8731952  69.2832245
  62.6338202  12.4058711  63.8139253  61.9984035  12.4793337  64.5260158
  62.3035608  12.9952309  63.1358333  67.8636552   6.9061093  70.0183575
  68.5961724   6.3360310  70.2521404  67.1075907   6.5182694  70.4590081
  57.1381130   9.8678188  63.5100228  57.0217389   9.1923091  64.1781313
  57.2483390   9.3810562  62.6932381  59.4812671   9.3288335  67.2146917
  59.1170879   8.8018956  67.9259839  60.3379787   8.9386804  67.0413403
  65.3861972   0.6182668  74.4778184  65.0545297   1.4878078  74.2539399
  64.7907585   0.3018952  75.1572214  59.1218158   4.3578235  62.2108266
  59.2892561   5.2258471  62.5778737  58.9315327   4.5205516  61.2869555
  61.8793492  12.8195214  73.8774096  61.5794215  13.7220252  73.7689904
  61.5344551  12.5527397  74.7295249  55.3305973   9.2709010  69.9110801
  54.4056469   9.1385224  70.1188493  55.5790386  10.0503230  70.4080743
  65.2790635   5.3377754  71.5571534  64.3707513   5.2693162  71.2630295
  65.2278231   5.8149699  72.3853359  59.1007379   6.8135892  63.1954933
  58.9807004   7.2592943  64.0340413  58.4059968   7.1621210  62.6368471
  52.6914784   8.9142284  70.7454590  52.8207165   9.1676763  71.6594002
  52.0112235   9.5069992  70.4259245  56.8614271  19.5839534  66.8445064
  56.7838301  20.5347359  66.9233545  56.2575915  19.2385406  67.5019990
  59.3531501   6.7567399  79.5006431  58.5764835   7.3161319  79.4909296
  59.9922064   7.2424182  80.0221301  67.1452282   3.5394192  73.3349408
  66.5026662   3.8326725  72.6889202  66.6407210   3.4247112  74.1402604
  64.7992445   7.2857365  64.0235267  65.7110301   7.5184752  63.8482964
  64.2902092   7.8694409  63.4610345  57.6077873   9.5652853  79.0624398
  58.3492558  10.1037897  78.7859222  56.9014859  10.1919141  79.2195950
  63.0833213  11.7081993  77.6596559  63.4916569  11.2664404  76.9151192
  62.3610475  11.1334621  77.9130752  59.4364283   6.6454600  75.0330116
  60.2825478   7.0694013  75.1764765  59.3762921   5.9888224  75.7268679
  63.4062028  12.2683184  71.4148848  62.7770890  12.4328898  70.7124916
  63.0187690  12.6824793  72.1859812  67.2851260  13.2037622  68.7693212
  66.6002298  13.5836523  68.2190245  67.3695109  13.8132948  69.5025160
  62.5863728   4.3058968  76.6911290  62.3424660   5.0601029  76.1545566
  62.8623659   4.6844316  77.5258537  64.5402191  10.8497581  75.3688556
  64.7519086  11.4929340  74.6922937  64.4931939  10.0159897  74.9010486
  62.1428420   3.4615401  72.2725128  61.2812899   3.7596655  72.5641865
  62.1690855   3.6785800  71.3406160  58.9589990  12.0057592  68.6798933
  59.4228335  12.2845295  67.8903556  58.6946788  11.1041036  68.4972024
  55.8514071  11.5529073  71.6178697  56.4215428  11.9816342  70.9796181
  56.4422182  11.2711658  72.3162882  57.8958876   8.1280744  65.4888499
  58.5982919   8.5801788  65.9562425  57.5639504   7.4864563  66.1168392
  56.3439237   6.7192501  79.8639708  55.7137898   7.4008782  80.0975105
  56.2375325   6.6075582  78.9192846  51.6384210   6.3864297  70.7905632
  50.8483264   6.6421825  70.3145743  52.1295457   7.2012635  70.8957673
  65.6548019  13.7269536  73.5410913  66.4765463  13.3249723  73.2593595
  65.6510422  13.6237770  74.4927029  53.5898955   6.7508876  67.7489109
  52.7930118   6.8627570  68.2672604  53.3624547   7.0895528  66.8829999
  59.4204623  13.2753579  75.6971623  59.4849055  13.7373987  76.5329795
  58.7115546  12.6450944  75.8253933  49.9221913   6.6394787  73.2220623
  50.1729951   7.5241797  73.4878199  50.4581461   6.4599389  72.4495715
  73.7454012  10.0708285  69.8895884  72.9917721   9.5015683  69.7339889
  73.8801553  10.0370949  70.8366519  59.1352640  14.9421687  65.5650604
  58.9998315  15.7873223  65.9935452  59.6762453  15.1440964  64.8016538
  55.6219980   1.0213267  82.2264959  55.2286925   0.4679465  82.9012603
  56.4386120   1.3323845  82.6171477  52.5882038  12.4597125  66.1378529
  53.1006558  13.2540375  66.2884094  53.2404750  11.7623415  66.0712130
  54.3976922  15.5762881  68.2201282  54.5743551  16.4980846  68.0322266
  55.1933756  15.2621300  68.6495662  58.5387941   2.4371146  79.8185216
  59.2797654   3.0378299  79.7389678  58.7705864   1.6948784  79.2603258
  53.6829279   7.6227513  78.0963445  53.5682794   6.7212770  78.3970544
  52.8273797   7.8691210  77.7448262  60.7621117  15.5645253  79.6950946
  60.3184971  14.7781632  79.3771850  61.4238330  15.7524404  79.0294837
  55.5208238  17.0941055  74.2211624  56.0715663  16.9658118  73.4488618
  54.6819714  17.3935944  73.8706517  62.8602355  15.8448053  77.7232347
  62.8420830  16.6656934  77.2312616  63.7822275  15.7202128  77.9482488
  59.3175409  13.3592183  78.5655855  59.8503746  12.5980471  78.3355163
  58.7889490  13.0665835  79.3080010  62.4845104  -1.5347751  74.0949497
  62.1409373  -0.6446110  74.0188608  62.8524066  -1.7246094  73.2319082
  50.5530954  10.7885779  66.9138099  51.3906176  11.1982788  66.6971807
  50.7309222   9.8485221  66.8838293  62.4495387   8.4560860  62.6021932
  61.9342010   9.2265464  62.8410320  62.1772695   7.7825996  63.2254994
  60.0342498   3.3010561  67.6607171  59.1784094   2.9117411  67.4812809
  60.4469449   3.3802521  66.8006956  61.5641644   0.8356904  72.0598730
  61.0606440   0.7987039  71.2466536  61.8572251   1.7449647  72.1195387
  57.8084530   0.9195634  71.0664912  58.6737527   0.7238442  70.7070802
  57.8762039   0.6905985  71.9934269  67.4229661  11.2093214  64.5375106
  66.6459103  10.8704374  64.0930268  68.1021142  11.2145838  63.8630071
  62.2381690   6.3287952  64.4281714  61.9331825   6.6434101  65.2791857
  63.1912132   6.4069372  64.4709046  60.6828122  12.4878175  66.0774667
  60.1549483  11.7530935  65.7647905  60.1815624  13.2652852  65.8314636
  65.6620968  10.6827196  71.1941714  65.0044642  11.3726457  71.2821842
  66.4661367  11.0723628  71.5375700  55.4146849   3.1497841  68.4381279
  55.9890601   2.9273023  67.7054472  56.0017832   3.2186536  69.1909880
  64.4726426   9.0371568  69.2445656  64.9858308   9.6701560  69.7467365
  65.1227650   8.4372764  68.8789016  55.7416436   5.1802303  62.4577164
  54.9053749   5.5176989  62.7786439  55.6021206   5.0451282  61.5204301
  57.7169517   0.0239090  67.1656348  57.0633929  -0.2911892  66.5412963
  57.6749991  -0.5985169  67.8916171  58.8280722  10.3058385  59.0809641
  57.9207783  10.0747639  59.2800789  59.3251754   9.5096005  59.2683622
  61.7348801  19.0155893  62.0006327  61.0610499  19.3187589  62.6091285
  62.1214623  19.8184973  61.6511784  60.9507257   6.5121024  71.4903996
  60.0329819   6.7335971  71.3325684  61.3667401   6.5867334  70.6315703
  61.7342305   7.9112440  66.6206676  62.4814124   8.4233837  66.3113798
  62.0033895   7.5896492  67.4811070  60.0068955  10.4070980  63.6033631
  59.0980174  10.1230013  63.7006100  60.0364039  10.8270059  62.7436937
  65.2388223  14.0177570  67.3724798  64.7850550  13.1768480  67.4289989
  64.6082189  14.6538968  67.7099578  64.1821142   4.9469556  68.6025466
  63.4443899   4.4346942  68.9335708  64.4347916   4.5069937  67.7908742
  63.6821162  15.8554067  68.3074616  63.9744136  16.4159124  67.5886982
  64.1919782  16.1482628  69.0627775  64.2832769  -2.2754192  69.1967235
  64.5891646  -3.1356829  68.9093150  65.0085374  -1.6836572  68.9966229
  50.5757126   8.1276494  67.5848833  50.3781525   7.5345855  66.8599899
  50.0203790   7.8228705  68.3024772  58.5553849   8.0199601  69.7043426
  58.6102459   7.0673437  69.6285903  57.7445051   8.1759040  70.1884724
  59.7045043  11.9479724  60.9421709  59.2664473  11.2315583  60.4827347
  60.4455484  12.1755839  60.3806801  56.4946209   6.6376661  67.4633805
  55.6814075   6.9370831  67.8698997  56.9905203   6.2432349  68.1808287
  58.6454787  16.6334418  69.3968070  58.6030966  16.8595264  68.4676602
  59.5617486  16.3997792  69.5453871  62.0920421   7.1018485  76.2948699
  62.4469809   7.3289958  77.1543164  62.7392552   7.4336862  75.6725954
  67.8218158  10.2236921  66.9998028  67.6836056  10.4138517  66.0719217
  67.4654377  10.9856304  67.4566079  55.9860284   4.2095016  73.0795040
  56.6259663   4.0683775  72.3818003  55.1537814   3.9229530  72.7033642
  67.8487537  12.2913448  72.0109299  68.2824044  12.1988737  72.8592353
  68.5619118  12.2670949  71.3729315  56.7620588  13.5097447  69.1930032
  57.5561186  13.0147767  68.9912607  56.0512280  12.9815310  68.8297738
  61.5815432  15.8915542  73.5442400  61.6352455  16.4606478  74.3120116
  60.7130214  16.0617427  73.1796437  53.0703351   7.6540528  65.2689785
  52.1400939   7.5924984  65.4859747  53.1660823   7.1316481  64.4726426
  52.9888900   4.1795341  67.8568027  53.2495718   5.0940674  67.7477187
  53.8106073   3.7119784  68.0064639  54.4613826   5.5933098  75.0266851
  55.1336879   5.3850460  74.3779500  53.6343612   5.3955184  74.5872083
  68.7103087  12.3337149  74.5442185  68.9038977  13.2382959  74.7901460
  68.6103705  11.8744568  75.3780770  60.3639398   2.2195039  77.0432512
  59.7167313   2.9184989  76.9496988  61.1340413   2.6531183  77.4108760
  63.7718196  12.4843891  80.1183065  63.6203702  12.2554443  79.2013149
  63.7622875  13.4414493  80.1314410  60.5403532  10.0575804  75.1029332
  61.4695592  10.2086964  74.9298299  60.1194562  10.1459825  74.2477978
  59.3391864  14.0826469  72.8727869  59.2002949  13.7145253  73.7453807
  58.5506460  14.5974108  72.7011827  59.9340016  19.1835565  64.2153406
  60.1091771  18.7123608  65.0299029  59.2472804  19.8101331  64.4434667
  60.8897079  13.4608071  70.2616707  60.5546912  13.4208841  71.1574357
  60.3901025  12.7952787  69.7887117  54.8641323   8.8675701  75.7869288
  54.7261121   8.1355940  76.3880827  55.7746246   8.7784601  75.5053476
  63.8256271  10.8064106  60.5353767  63.2085441  10.0810934  60.4386819
  63.3572759  11.5673466  60.1920841  57.4923624   8.5795661  75.2752968
  58.2023242   7.9388853  75.2339586  57.4492932   8.8308556  76.1979149
  65.4810402  15.5163014  78.1959547  65.4222948  14.8322234  77.5290130
  65.8829921  16.2582004  77.7440173  56.2052558   5.5660879  77.0948607
  55.6689915   5.1151617  77.7470204  55.6169266   5.7006787  76.3519072
  54.5001101  22.3324928  70.9893266  54.7397699  22.9643452  71.6672285
  53.6570298  21.9812968  71.2758625  55.6154816   5.0249530  59.6575071
  54.7384283   4.9038331  59.2937318  56.0912570   4.2335608  59.4053960
  65.4827809  13.4802598  76.4273527  64.5954588  13.1428520  76.5499926
  66.0526361  12.7485629  76.6642292  47.1356957   9.8126690  69.7516578
  47.8227996   9.4988420  69.1637594  46.9805085  10.7168054  69.4783830
  51.9391679   4.7016886  74.1801602  51.8549867   4.0942556  73.4452012
  51.1174385   5.1925905  74.1811098  59.0128963  18.1404050  73.3934770
  58.9399134  18.9459022  73.9054075  58.5706356  18.3396016  72.5682791
  58.8018743  17.3775820  66.9037592  58.0186264  17.9197501  66.9975816
  59.5011488  17.8949800  67.3031833  62.1115393   3.1870450  69.5471797
  62.6084092   2.4340412  69.2272867  61.3402374   3.2234766  68.9815006
  69.9645150   8.8910815  71.1890088  69.9535026   9.7735531  70.8184022
  69.0962529   8.5382366  70.9944626  61.4727646  18.0390884  75.5492929
  62.1855619  18.6738349  75.4768830  60.9817675  18.1354750  74.7332931
  63.1945173  11.9442137  67.1210220  62.2601452  12.0643599  66.9514925
  63.3721842  11.0414604  66.8570230  58.6950361   5.3287833  69.2743482
  58.3248149   4.7758873  69.9624387  59.1909454   4.7245966  68.7218482
  66.5817725   7.7859456  67.6560254  67.0478177   8.6187448  67.5820557
  67.0325225   7.3204438  68.3605513  56.5239560  15.7885328  76.3698500
  57.2249019  16.4221811  76.5227894  56.0534675  16.1300059  75.6094139
  64.6493956  14.1303278  64.6546407  64.9253800  14.0159872  65.5640281
  63.7798455  13.7320762  64.6158580  64.5534387   0.1540043  71.6951156
  63.6397467   0.3844270  71.8633363  64.9827489   0.2378487  72.5465188
  64.3240846   8.3429935  74.1951050  63.6712296   8.5905843  73.5403503
  64.7021226   7.5294073  73.8613527  61.2848020  18.3789628  68.2979220
  61.4670414  17.5611284  68.7606972  62.1081006  18.5957321  67.8604110
  61.6190185  17.3057814  65.5594269  62.1477952  16.7950268  64.9464431
  61.8818405  16.9900344  66.4239802  60.3728419   9.0849746  80.6817087
  59.6969056   8.9843876  81.3519462  61.1956053   8.9288960  81.1453084
  52.1207278  15.3221683  73.3029602  52.7060715  14.5765371  73.4357506
  51.9232116  15.6325640  74.1866266  54.9745933  18.3572930  68.3192045
  54.3056308  18.8419058  67.8356085  54.8358803  18.6042151  69.2335423
  46.7124933   7.8927283  72.0234045  46.7509032   7.3590874  72.8171163
  46.2065226   7.3662489  71.4045023  59.1151202  20.3916674  74.9174703
  59.6669510  20.5548295  75.6823788  59.4557395  20.9821112  74.2454728
  54.0915695   2.7391824  75.5196588  54.1557022   3.6006654  75.1073985
  54.0282815   2.1265825  74.7868946  53.5667968   4.8114956  79.1669622
  54.1940006   4.4292033  79.7807146  52.7095886   4.5929158  79.5325314
  63.9662076  15.2177931  80.7723357  64.5101980  15.8307890  80.2778312
  63.3848921  15.7757510  81.2890370  50.3433510   6.6191385  65.0987977
  50.6386951   5.7102064  65.0455030  49.4421546   6.5979125  64.7768979
  62.2519589  18.3398649  71.9038385  62.1270729  17.5388389  71.3949331
  62.9098680  18.8344843  71.4152355  53.8727757   4.6947382  71.0815525
  53.1514343   5.3083349  70.9422999  54.6621013   5.2305147  71.0032171
  64.3154497  16.1407669  73.5317935  63.3684833  16.0213021  73.4596262
  64.6637271  15.2530167  73.6144197  56.6754071   2.0301808  77.3556177
  57.1988473   2.2764105  78.1182486  56.4566404   2.8621843  76.9359314
  52.0721352   4.3005483  65.2227302  51.7434058   3.4202862  65.0402408
  52.4260723   4.2453152  66.1103691  61.3200931  15.9360386  69.7322287
  61.1725893  15.0077093  69.9129857  62.1454424  15.9580476  69.2479363
  55.1863175   4.5878453  65.5902780  55.5259248   5.1164374  64.8681388
  55.6335296   4.9258859  66.3661346  64.9235053  16.7588944  70.8187160
  65.8481600  16.5531806  70.6811611  64.7550356  16.5105345  71.7276502
  57.8806616   2.9715503  75.0405848  57.5403436   2.1723316  75.4426527
  57.1745622   3.2717214  74.4682681  58.5323088   0.0564816  73.4933171
  59.3549157  -0.4174706  73.3712061  58.7761151   0.8355300  73.9931857
  57.1731322   3.0853074  63.7896072  57.8939685   3.4634327  63.2859789
  56.5496626   3.8041951  63.8931050  61.3162445   3.7898223  64.7254405
  61.5326059   4.6722861  64.4243233  60.8356512   3.3984437  63.9960047
  56.0561666   6.7483936  71.3025149  55.9106247   7.0624240  72.1949431
  55.5786870   7.3668837  70.7496048  57.9158049   3.7386484  71.3506039
  57.9019618   2.8427578  71.0138337  58.6330477   3.7457148  71.9844325
  59.7684180   4.1723825  73.3959166  59.5101958   5.0940895  73.3943497
  59.2369220   3.7754259  74.0859630  64.7130369  17.2774612  66.1749252
  64.8867246  16.7121034  65.4223104  65.2059260  18.0775507  65.9928742
  50.5307329   9.2889281  74.2412810  49.9860797  10.0649089  74.3733085
  51.4086678   9.6360085  74.0831932  57.3194945   2.6200865  66.6193609
  57.4410856   1.6917511  66.8184496  57.0296988   2.6339551  65.7071924
  60.1886136   0.3055775  69.7560329  60.2107832   0.3695108  68.8012308
  60.6054195  -0.5339716  69.9500835  70.5669760  10.0411035  67.7939551
  71.0100906   9.2918360  67.3958675  69.6896270  10.0321171  67.4113283
  65.7005541  16.5941376  63.2746150  66.3956446  17.2148069  63.4933465
  66.0428691  15.7436727  63.5498528  51.3173350   8.4159177  77.1342967
  50.5755087   8.5641812  77.7207598  50.9966095   8.6767443  76.2709717
  67.5996964  14.0441082  64.8033481  68.1248289  14.3828354  64.0782801
  67.5119317  13.1088097  64.6196615  59.2617013  17.9575155  76.9323357
  59.5704140  17.7124302  77.8046057  60.0592495  18.1621794  76.4442228
  59.2837625  20.1113065  69.1628734  58.8442615  19.6189444  69.8561591
  60.0345742  19.5686033  68.9220809  51.7629964  16.3024606  69.1653362
  52.5887984  16.0028378  68.7852005  51.4124016  15.5332228  69.6143151
  56.7311497  15.6551074  71.2351036  56.1091507  14.9921779  70.9353263
  57.4016364  15.6812206  70.5524683  49.9638569  14.2210932  70.1242296
  49.1270478  13.7933107  69.9426297  49.9362215  14.4143376  71.0613087
  56.8036025   4.1332862  80.8283542  56.8524180   5.0094985  80.4461311
  57.3458539   3.5910255  80.2555185  67.2890871  14.6773985  80.1084679
  66.4986414  14.6598124  79.5689178  67.0524225  15.2162279  80.8633715
  67.4088746  11.5266452  77.4217407  67.4586750  11.3616459  78.3632930
  67.3002669  10.6593711  77.0315288  56.2925004  14.2054997  64.7109496
  56.4413125  14.8890462  64.0576169  57.0991448  14.1860087  65.2258952
  64.6992508   7.5097380  78.7376714  65.6002371   7.3703845  78.4460712
  64.7740482   7.6751835  79.6774891  59.0335313   4.8864234  77.5829900
  58.1638623   5.1797801  77.3112489  59.2694794   5.4704679  78.3037164
  68.9106942  13.9463393  77.6659429  68.6191751  14.3093374  78.5022890
  68.2979074  13.2330402  77.4872761  70.1102625  11.5116273  70.1861999
  70.9449516  11.9506077  70.3499559  70.2461753  11.0354926  69.3670245
  67.1594131   9.0696008  76.1339487  67.6348252   9.2623654  75.3258338
  66.2359696   9.1255194  75.8882870  54.0477637  10.2320175  65.7170565
  53.8023679   9.3282505  65.9150775  54.2173552  10.2337325  64.7750043
  61.7374347   1.1043851  75.0995321  62.2556291   1.8404878  74.7741809
  61.3829480   1.4107845  75.9342080  53.3173285   5.9648533  63.2156726
  52.6242530   6.0392888  62.5596762  53.0725037   5.2008876  63.7378243
  61.9886941  -2.4755866  70.6196217  62.2688695  -3.1432677  71.2456644
  62.7737548  -2.2826770  70.1070881  59.7920410  16.7003128  62.1821243
  59.2194377  17.3193315  61.7291715  60.3653203  17.2502490  62.7161165
  65.8595800   5.9461768  74.3667792  66.8113223   6.0459866  74.3880016
  65.6899250   5.1540036  74.8765877  63.8810179   3.0317351  74.5527193
  63.2860111   3.3122364  73.8573682  63.5959876   3.5211252  75.3243934
  63.0117670  16.9840278  63.3129826  63.9448343  16.9185840  63.5162701
  62.9240882  17.8196545  62.8544358  65.6405686  16.3006148  60.2733773
  65.5619318  15.9666012  61.1669531  66.4615353  16.7927916  60.2725246
  68.3383877   9.1667888  73.4810092  68.3060198   8.2283888  73.6669776
  68.9484501   9.2451924  72.7475917  60.1767208   8.0363941  59.5237296
  61.1226313   7.9070149  59.5925714  59.7981453   7.2978603  60.0006724
  68.4878366   5.9578931  73.5268375  67.9717415   5.1737388  73.3398304
  69.3718314   5.6297648  73.6914895  66.1489093  -0.2980053  69.4864188
  65.9513914  -0.6064965  70.3707520  66.7588798   0.4281586  69.6162118
  74.1560427  10.2283894  72.6216129  74.8863816   9.9669183  73.1823832
  73.5467373   9.4912616  72.6618197  72.2375724   8.3691757  73.2190580
  71.5108888   8.2347722  72.6107072  71.8223011   8.6768586  74.0247298
  60.0605901  12.0881687  80.9837953  60.9808910  12.2660286  81.1777999
  60.0255484  11.1437732  80.8317652  58.3610125   5.9613917  59.4592181
  57.4541581   5.6647030  59.5354895  58.6386106   5.6643735  58.5926467
  49.2788066   7.2820280  69.9091228  48.9590850   6.4285589  69.6165602
  48.7321494   7.4968859  70.6649195  53.0567973   9.9982721  73.6260734
  53.2753983  10.9299829  73.6448768  53.4693747   9.6390696  74.4115538
  59.9772191   0.5050807  65.6136423  59.1672919   0.1597892  65.9891669
  60.6656608   0.1958350  66.2024034  61.9062739  -0.4171146  67.2360719
  62.4593778   0.0024307  67.8950742  62.1432826  -1.3435398  67.2783675
  57.9295839   5.5715927  83.0163483  57.8292566   6.5210284  82.9475574
  57.7117381   5.2434166  82.1439553  57.1308910   2.8200852  59.6004160
  57.9928074   3.1455751  59.8599978  57.3159254   2.0332348  59.0877226
  49.1476326  10.9023192  71.8784349  48.4539797  10.4877145  71.3654304
  49.8949317  10.9443728  71.2817768  65.2841547   1.6929379  66.7439383
  64.7040216   2.3514183  66.3617436  65.0177479   0.8706723  66.3326801
  63.7345113   1.0934436  68.9460704  64.2344891   1.2050971  68.1375023
  64.3780721   0.7895489  69.5861512  57.7927109   9.0013066  81.8328545
  57.3094190   9.8013426  82.0392434  57.8788048   9.0121011  80.8795989
  51.0613068  10.8341446  69.7550364  51.0383756  10.9329133  68.8032247
  51.3713705  11.6806596  70.0767530  53.7200446  12.8917601  73.8696978
  54.6743700  12.8601543  73.8026910  53.5212970  12.4308224  74.6847204
  54.3099828  11.4618717  76.4367776  55.1292717  11.9562795  76.4602613
  54.5836636  10.5450685  76.4085344  64.0666425   3.8529469  65.7995732
  63.1792280   4.1379120  65.5815926  64.4820414   3.6923232  64.9523009
  67.4180961   3.8775990  69.5150071  68.1941351   4.3672442  69.7874688
  66.6929095   4.3034044  69.9721940  69.8553519   4.5903609  70.5724012
  70.4498010   4.3499345  69.8617320  69.9280103   3.8710740  71.1997548
  52.0750675  18.4337220  70.8867176  51.9405143  17.6737621  70.3205174
  51.6582737  19.1578120  70.4195965  63.2109638  13.6174144  59.8943752
  63.9145488  13.8224146  60.5101407  62.4872287  14.1850906  60.1592835
  64.0407448   9.3684005  66.0146022  63.9842650   9.8252556  65.1753654
  64.5935791   8.6074690  65.8368865  67.8512254   5.1573737  66.8396141
  67.5949188   4.7570373  67.6704349  67.2265122   5.8717531  66.7146280
  72.1624592   7.8969810  69.3467433  71.6024150   7.9662999  70.1198995
  71.5568095   7.7210795  68.6266929  55.2319801  19.3306537  71.0985619
  55.1152185  20.2751970  70.9964309  54.4112247  19.0280099  71.4871418
  65.1196335  14.0556673  61.9442212  65.9541939  13.6237871  61.7619686
  64.9580678  13.8838687  62.8719106  64.7742228  10.5588786  63.3098551
  64.7191031  10.3933058  62.3686995  64.1488283  11.2664819  63.4660741
  49.5634743   5.7956851  77.1359973  50.2093606   5.2855805  77.6247198
  49.3551894   6.5325532  77.7103398  62.0888135  12.8637698  82.6352114
  62.9579294  13.0378350  82.2738749  61.6094886  13.6832115  82.5127843
  58.0838353   0.0596895  62.8883869  58.0717023   1.0038735  63.0452140
  58.9761775  -0.1232959  62.5943331  56.2574315  19.9834799  74.3141547
  57.1601562  20.0158409  74.6308042  56.0311685  19.0535250  74.3287883
  58.0127917  18.7365786  70.9751626  57.0623548  18.7367647  70.8615998
  58.3160403  17.9898520  70.4587661  61.8990473  -3.3460328  67.1429806
  61.1322868  -3.9001841  67.2886489  62.3101177  -3.2738459  68.0043958
  53.9032234   2.9424468  81.2334987  54.7663695   2.5861273  81.4438312
  53.3297644   2.6038363  81.9210392  73.7480610  24.5726324  72.0397388
  74.3859020  24.4533071  71.3360729  73.6301453  25.5207168  72.0985341
  70.5570317  24.5253752  71.9758913  70.2188828  24.4094817  71.0879448
  71.4260085  24.1244917  71.9559919  66.4157132  26.3789229  67.9655804
  65.8521998  26.2879165  67.1972092  66.3009528  25.5589133  68.4458297
  71.0390100  25.6788604  77.9345119  71.0278741  25.2841402  77.0625622
  71.2010739  24.9454676  78.5278890  63.9621564  27.8740420  70.8040025
  64.7542856  27.5331245  70.3886324  64.2018215  27.9835395  71.7242178
  71.9956691  30.0460196  63.2770269  71.3444671  30.6314277  62.8904283
  72.7901054  30.5766391  63.3365306  65.9212318  27.1349333  63.6757403
  66.6943194  26.5878320  63.5370279  66.2737717  27.9993583  63.8871865
  67.7597361  28.4625716  76.8824303  67.4687227  29.3671347  76.7670969
  68.3954345  28.5042243  77.5968372  68.6853568  25.8402564  73.4725662
  69.2817140  25.6158587  72.7582625  68.7428539  25.0987310  74.0751110
  68.2578596  23.2942000  61.3075853  68.5104117  22.7723521  60.5459316
  67.3203155  23.1308145  61.4102537  73.3021879  22.2977778  69.1150596
  74.0884968  21.8797201  68.7641014  73.5660583  23.2023870  69.2832245
  73.4731956  27.7350628  63.8139253  72.8377789  27.8085255  64.5260158
  73.1429363  28.3244227  63.1358333  78.7030306  22.2353011  70.0183575
  79.4355478  21.6652228  70.2521404  77.9469662  21.8474612  70.4590081
  67.9774885  25.1970105  63.5100228  67.8611143  24.5215009  64.1781313
  68.0877145  24.7102479  62.6932381  70.3206426  24.6580253  67.2146917
  69.9564633  24.1310874  67.9259839  71.1773542  24.2678722  67.0413403
  76.2255726  15.9474585  74.4778184  75.8939051  16.8169996  74.2539399
  75.6301340  15.6310869  75.1572214  69.9611913  19.6870152  62.2108266
  70.1286315  20.5550389  62.5778737  69.7709082  19.8497434  61.2869555
  72.7187246  28.1487131  73.8774096  72.4187969  29.0512170  73.7689904
  72.3738306  27.8819314  74.7295249  66.1699727  24.6000928  69.9110801
  65.2450224  24.4677142  70.1188493  66.4184141  25.3795147  70.4080743
  76.1184390  20.6669671  71.5571534  75.2101267  20.5985080  71.2630295
  76.0671986  21.1441616  72.3853359  69.9401134  22.1427810  63.1954933
  69.8200759  22.5884861  64.0340413  69.2453722  22.4913127  62.6368471
  63.5308539  24.2434202  70.7454590  63.6600920  24.4968680  71.6594002
  62.8505990  24.8361910  70.4259245  67.7008026  34.9131452  66.8445064
  67.6232055  35.8639277  66.9233545  67.0969669  34.5677324  67.5019990
  70.1925256  22.0859317  79.5006431  69.4158590  22.6453237  79.4909296
  70.8315819  22.5716100  80.0221301  77.9846036  18.8686110  73.3349408
  77.3420416  19.1618643  72.6889202  77.4800965  18.7539030  74.1402604
  75.6386200  22.6149283  64.0235267  76.5504056  22.8476670  63.8482964
  75.1295847  23.1986327  63.4610345  68.4471628  24.8944770  79.0624398
  69.1886312  25.4329814  78.7859222  67.7408613  25.5211059  79.2195950
  73.9226968  27.0373911  77.6596559  74.3310324  26.5956321  76.9151192
  73.2004229  26.4626538  77.9130752  70.2758038  21.9746518  75.0330116
  71.1219233  22.3985931  75.1764765  70.2156675  21.3180142  75.7268679
  74.2455782  27.5975101  71.4148848  73.6164645  27.7620816  70.7124916
  73.8581444  28.0116711  72.1859812  78.1245014  28.5329539  68.7693212
  77.4396052  28.9128441  68.2190245  78.2088863  29.1424866  69.5025160
  73.4257483  19.6350886  76.6911290  73.1818415  20.3892946  76.1545566
  73.7017413  20.0136234  77.5258537  75.3795946  26.1789498  75.3688556
  75.5912841  26.8221258  74.6922937  75.3325694  25.3451815  74.9010486
  72.9822175  18.7907319  72.2725128  72.1206654  19.0888572  72.5641865
  73.0084609  19.0077718  71.3406160  69.7983744  27.3349509  68.6798933
  70.2622090  27.6137212  67.8903556  69.5340542  26.4332954  68.4972024
  66.6907825  26.8820991  71.6178697  67.2609182  27.3108259  70.9796181
  67.2815937  26.6003576  72.3162882  68.7352630  23.4572662  65.4888499
  69.4376673  23.9093706  65.9562425  68.4033259  22.8156481  66.1168392
  67.1832992  22.0484418  79.8639708  66.5531652  22.7300699  80.0975105
  67.0769080  21.9367500  78.9192846  62.4777964  21.7156215  70.7905632
  61.6877018  21.9713743  70.3145743  62.9689211  22.5304552  70.8957673
  76.4941774  29.0561454  73.5410913  77.3159217  28.6541641  73.2593595
  76.4904176  28.9529688  74.4927029  64.4292709  22.0800794  67.7489109
  63.6323873  22.1919488  68.2672604  64.2018302  22.4187446  66.8829999
  70.2598377  28.6045497  75.6971623  70.3242810  29.0665904  76.5329795
  69.5509301  27.9742862  75.8253933  60.7615667  21.9686705  73.2220623
  61.0123705  22.8533715  73.4878199  61.2975215  21.7891307  72.4495715
  84.5847767  25.4000202  69.8895884  83.8311475  24.8307600  69.7339889
  84.7195308  25.3662867  70.8366519  69.9746395  30.2713604  65.5650604
  69.8392069  31.1165140  65.9935452  70.5156207  30.4732882  64.8016538
  66.4613734  16.3505184  82.2264959  66.0680680  15.7971383  82.9012603
  67.2779875  16.6615763  82.6171477  63.4275792  27.7889043  66.1378529
  63.9400313  28.5832293  66.2884094  64.0798505  27.0915333  66.0712130
  65.2370677  30.9054799  68.2201282  65.4137305  31.8272763  68.0322266
  66.0327510  30.5913218  68.6495662  69.3781695  17.7663063  79.8185216
  70.1191409  18.3670217  79.7389678  69.6099618  17.0240701  79.2603258
  64.5223033  22.9519431  78.0963445  64.4076548  22.0504688  78.3970544
  63.6667551  23.1983127  77.7448262  71.6014871  30.8937171  79.6950946
  71.1578725  30.1073550  79.3771850  72.2632085  31.0816321  79.0294837
  66.3601992  32.4232973  74.2211624  66.9109417  32.2950036  73.4488618
  65.5213468  32.7227862  73.8706517  73.6996109  31.1739971  77.7232347
  73.6814585  31.9948852  77.2312616  74.6216029  31.0494046  77.9482488
  70.1569163  28.6884100  78.5655855  70.6897500  27.9272389  78.3355163
  69.6283244  28.3957752  79.3080010  73.3238858  13.7944166  74.0949497
  72.9803128  14.6845808  74.0188608  73.6917821  13.6045824  73.2319082
  61.3924709  26.1177697  66.9138099  62.2299931  26.5274705  66.6971807
  61.5702977  25.1777139  66.8838293  73.2889141  23.7852777  62.6021932
  72.7735764  24.5557382  62.8410320  73.0166449  23.1117914  63.2254994
  70.8736252  18.6302478  67.6607171  70.0177848  18.2409329  67.4812809
  71.2863204  18.7094439  66.8006956  72.4035399  16.1648822  72.0598730
  71.9000194  16.1278957  71.2466536  72.6966006  17.0741564  72.1195387
  68.6478285  16.2487551  71.0664912  69.5131281  16.0530360  70.7070802
  68.7155793  16.0197903  71.9934269  78.2623415  26.5385132  64.5375106
  77.4852858  26.1996292  64.0930268  78.9414896  26.5437755  63.8630071
  73.0775444  21.6579870  64.4281714  72.7725580  21.9726019  65.2791857
  74.0305886  21.7361289  64.4709046  71.5221876  27.8170093  66.0774667
  70.9943238  27.0822852  65.7647905  71.0209379  28.5944769  65.8314636
  76.5014722  26.0119113  71.1941714  75.8438396  26.7018375  71.2821842
  77.3055121  26.4015545  71.5375700  66.2540604  18.4789759  68.4381279
  66.8284356  18.2564941  67.7054472  66.8411586  18.5478454  69.1909880
  75.3120181  24.3663486  69.2445656  75.8252063  24.9993478  69.7467365
  75.9621405  23.7664682  68.8789016  66.5810191  20.5094220  62.4577164
  65.7447503  20.8468907  62.7786439  66.4414960  20.3743200  61.5204301
  68.5563271  15.3531008  67.1656348  67.9027684  15.0380025  66.5412963
  68.5143745  14.7306749  67.8916171  69.6674476  25.6350303  59.0809641
  68.7601538  25.4039557  59.2800789  70.1645508  24.8387922  59.2683622
  71.7901012  21.8412942  71.4903996  70.8723573  22.0627889  71.3325684
  72.2061155  21.9159252  70.6315703  72.5736059  23.2404357  66.6206676
  73.3207878  23.7525755  66.3113798  72.8427649  22.9188410  67.4811070
  70.8462710  25.7362898  63.6033631  69.9373929  25.4521931  63.7006100
  70.8757793  26.1561977  62.7436937  76.0781977  29.3469488  67.3724798
  75.6244304  28.5060397  67.4289989  75.4475944  29.9830886  67.7099578
  75.0214897  20.2761474  68.6025466  74.2837653  19.7638860  68.9335708
  75.2741670  19.8361855  67.7908742  74.5214916  31.1845984  68.3074616
  74.8137891  31.7451041  67.5886982  75.0313537  31.4774545  69.0627775
  75.1226524  13.0537726  69.1967235  75.4285401  12.1935089  68.9093150
  75.8479129  13.6455346  68.9966229  61.4150880  23.4568412  67.5848833
  61.2175280  22.8637773  66.8599899  60.8597544  23.1520622  68.3024772
  69.3947604  23.3491519  69.7043426  69.4496213  22.3965355  69.6285903
  68.5838806  23.5050958  70.1884724  70.5438797  27.2771642  60.9421709
  70.1058227  26.5607501  60.4827347  71.2849238  27.5047757  60.3806801
  67.3339964  21.9668578  67.4633805  66.5207829  22.2662749  67.8698997
  67.8298958  21.5724267  68.1808287  69.4848541  31.9626335  69.3968070
  69.4424720  32.1887182  68.4676602  70.4011240  31.7289710  69.5453871
  72.9314175  22.4310403  76.2948699  73.2863563  22.6581876  77.1543164
  73.5786307  22.7628780  75.6725954  78.6611912  25.5528839  66.9998028
  78.5229811  25.7430435  66.0719217  78.3048131  26.3148222  67.4566079
  66.8254038  19.5386934  73.0795040  67.4653418  19.3975693  72.3818003
  65.9931569  19.2521447  72.7033642  78.6881292  27.6205366  72.0109299
  79.1217798  27.5280655  72.8592353  79.4012873  27.5962866  71.3729315
  67.6014342  28.8389364  69.1930032  68.3954941  28.3439684  68.9912607
  66.8906035  28.3107227  68.8297738  72.4209187  31.2207460  73.5442400
  72.4746209  31.7898396  74.3120116  71.5523968  31.3909345  73.1796437
  63.9097106  22.9832446  65.2689785  62.9794694  22.9216902  65.4859747
  64.0054578  22.4608399  64.4726426  63.8282655  19.5087259  67.8568027
  64.0889472  20.4232592  67.7477187  64.6499827  19.0411701  68.0064639
  65.3007580  20.9225016  75.0266851  65.9730634  20.7142378  74.3779500
  64.4737367  20.7247102  74.5872083  79.5496841  27.6629066  74.5442185
  79.7432731  28.5674877  74.7901460  79.4497460  27.2036485  75.3780770
  71.2033152  17.5486957  77.0432512  70.5561067  18.2476907  76.9496988
  71.9734168  17.9823101  77.4108760  74.6111950  27.8135809  80.1183065
  74.4597456  27.5846361  79.2013149  74.6016630  28.7706411  80.1314410
  71.3797286  25.3867722  75.1029332  72.3089346  25.5378881  74.9298299
  70.9588316  25.4751743  74.2477978  70.1785618  29.4118386  72.8727869
  70.0396704  29.0437171  73.7453807  69.3900214  29.9266026  72.7011827
  71.7290833  28.7899989  70.2616707  71.3940666  28.7500759  71.1574357
  71.2294779  28.1244705  69.7887117  65.7035077  24.1967619  75.7869288
  65.5654875  23.4647858  76.3880827  66.6140001  24.1076519  75.5053476
  74.6650025  26.1356023  60.5353767  74.0479196  25.4102851  60.4386819
  74.1966514  26.8965384  60.1920841  68.3317378  23.9087578  75.2752968
  69.0416997  23.2680771  75.2339586  68.2886686  24.1600473  76.1979149
  76.3204157  30.8454932  78.1959547  76.2616703  30.1614152  77.5290130
  76.7223675  31.5873922  77.7440173  67.0446312  20.8952796  77.0948607
  66.5083669  20.4443535  77.7470204  66.4563020  21.0298705  76.3519072
  65.3394856  37.6616846  70.9893266  65.5791454  38.2935370  71.6672285
  64.4964052  37.3104886  71.2758625  66.4548571  20.3541448  59.6575071
  65.5778037  20.2330248  59.2937318  66.9306324  19.5627526  59.4053960
  76.3221564  28.8094516  76.4273527  75.4348343  28.4720437  76.5499926
  76.8920115  28.0777547  76.6642292  57.9750711  25.1418607  69.7516578
  58.6621751  24.8280337  69.1637594  57.8198840  26.0459972  69.4783830
  62.7785433  20.0308804  74.1801602  62.6943622  19.4234473  73.4452012
  61.9568140  20.5217822  74.1811098  69.8522717  33.4695968  73.3934770
  69.7792889  34.2750939  73.9054075  69.4100110  33.6687934  72.5682791
  69.6412497  32.7067738  66.9037592  68.8580019  33.2489418  66.9975816
  70.3405242  33.2241718  67.3031833  72.9509147  18.5162367  69.5471797
  73.4477847  17.7632330  69.2272867  72.1796129  18.5526684  68.9815006
  80.8038905  24.2202733  71.1890088  80.7928781  25.1027448  70.8184022
  79.9356284  23.8674284  70.9944626  72.3121401  33.3682802  75.5492929
  73.0249373  34.0030267  75.4768830  71.8211430  33.4646668  74.7332931
  74.0338928  27.2734055  67.1210220  73.0995207  27.3935517  66.9514925
  74.2115596  26.3706521  66.8570230  69.5344116  20.6579750  69.2743482
  69.1641903  20.1050791  69.9624387  70.0303208  20.0537884  68.7218482
  77.4211479  23.1151374  67.6560254  77.8871931  23.9479366  67.5820557
  77.8718980  22.6496356  68.3605513  67.3633314  31.1177245  76.3698500
  68.0642774  31.7513728  76.5227894  66.8928429  31.4591977  75.6094139
  75.4887710  29.4595195  64.6546407  75.7647554  29.3451790  65.5640281
  74.6192209  29.0612680  64.6158580  75.3928142  15.4831961  71.6951156
  74.4791222  15.7136188  71.8633363  75.8221243  15.5670405  72.5465188
  75.1634600  23.6721853  74.1951050  74.5106051  23.9197760  73.5403503
  75.5414980  22.8585991  73.8613527  72.1241774  33.7081546  68.2979220
  72.3064169  32.8903202  68.7606972  72.9474760  33.9249238  67.8604110
  71.2122173  24.4141664  80.6817087  70.5362810  24.3135793  81.3519462
  72.0349807  24.2580878  81.1453084  62.9601032  30.6513601  73.3029602
  63.5454469  29.9057288  73.4357506  62.7625871  30.9617557  74.1866266
  65.8139688  33.6864848  68.3192045  65.1450063  34.1710976  67.8356085
  65.6752557  33.9334068  69.2335423  57.5518687  23.2219201  72.0234045
  57.5902787  22.6882791  72.8171163  57.0458980  22.6954406  71.4045023
  69.9544956  35.7208591  74.9174703  70.5063264  35.8840213  75.6823788
  70.2951150  36.3113029  74.2454728  64.9309450  18.0683741  75.5196588
  64.9950776  18.9298572  75.1073985  64.8676570  17.4557743  74.7868946
  64.4061722  20.1406874  79.1669622  65.0333761  19.7583951  79.7807146
  63.5489641  19.9221076  79.5325314  74.8055831  30.5469849  80.7723357
  75.3495735  31.1599807  80.2778312  74.2242675  31.1049427  81.2890370
  61.1827265  21.9483303  65.0987977  61.4780706  21.0393981  65.0455030
  60.2815301  21.9271042  64.7768979  73.0913344  33.6690567  71.9038385
  72.9664483  32.8680307  71.3949331  73.7492435  34.1636760  71.4152355
  64.7121512  20.0239299  71.0815525  63.9908098  20.6375267  70.9422999
  65.5014768  20.5597064  71.0032171  75.1548252  31.4699587  73.5317935
  74.2078587  31.3504938  73.4596262  75.5031025  30.5822085  73.6144197
  67.5147825  17.3593726  77.3556177  68.0382227  17.6056022  78.1182486
  67.2960159  18.1913761  76.9359314  62.9115106  19.6297401  65.2227302
  62.5827813  18.7494779  65.0402408  63.2654477  19.5745069  66.1103691
  72.1594685  31.2652303  69.7322287  72.0119648  30.3369011  69.9129857
  72.9848179  31.2872394  69.2479363  66.0256930  19.9170370  65.5902780
  66.3653002  20.4456292  64.8681388  66.4729050  20.2550776  66.3661346
  75.7628807  32.0880862  70.8187160  76.6875355  31.8823723  70.6811611
  75.5944110  31.8397263  71.7276502  68.7200370  18.3007421  75.0405848
  68.3797191  17.5015234  75.4426527  68.0139377  18.6009132  74.4682681
  69.3716842  15.3856733  73.4933171  70.1942912  14.9117212  73.3712061
  69.6154906  16.1647217  73.9931857  68.0125077  18.4144992  63.7896072
  68.7333439  18.7926245  63.2859789  67.3890381  19.1333869  63.8931050
  72.1556200  19.1190141  64.7254405  72.3719814  20.0014779  64.4243233
  71.6750267  18.7276354  63.9960047  66.8955421  22.0775854  71.3025149
  66.7500002  22.3916157  72.1949431  66.4180625  22.6960754  70.7496048
  68.7551804  19.0678402  71.3506039  68.7413373  18.1719495  71.0138337
  69.4724232  19.0749066  71.9844325  70.6077935  19.5015742  73.3959166
  70.3495712  20.4232813  73.3943497  70.0762975  19.1046177  74.0859630
  75.5524123  32.6066529  66.1749252  75.7261001  32.0412952  65.4223104
  76.0453015  33.4067424  65.9928742  61.3701083  24.6181199  74.2412810
  60.8254551  25.3941006  74.3733085  62.2480433  24.9652003  74.0831932
  68.1588700  17.9492782  66.6193609  68.2804611  17.0209429  66.8184496
  67.8690742  17.9631468  65.7071924  71.0279890  15.6347693  69.7560329
  71.0501587  15.6987026  68.8012308  71.4447949  14.7952201  69.9500835
  81.4063514  25.3702952  67.7939551  81.8494661  24.6210278  67.3958675
  80.5290025  25.3613089  67.4113283  76.5399296  31.9233294  63.2746150
  77.2350200  32.5439987  63.4933465  76.8822446  31.0728645  63.5498528
  62.1567105  23.7451095  77.1342967  61.4148841  23.8933730  77.7207598
  61.8359849  24.0059360  76.2709717  78.4390719  29.3732999  64.8033481
  78.9642043  29.7120272  64.0782801  78.3513071  28.4380015  64.6196615
  70.1010768  33.2867073  76.9323357  70.4097894  33.0416220  77.8046057
  70.8986250  33.4913711  76.4442228  70.1231380  35.4404983  69.1628734
  69.6836370  34.9481361  69.8561591  70.8739497  34.8977950  68.9220809
  62.6023719  31.6316523  69.1653362  63.4281739  31.3320295  68.7852005
  62.2517771  30.8624146  69.6143151  67.5705252  30.9842992  71.2351036
  66.9485261  30.3213697  70.9353263  68.2410119  31.0104124  70.5524683
  60.8032324  29.5502850  70.1242296  59.9664232  29.1225024  69.9426297
  60.7755969  29.7435293  71.0613087  67.6429779  19.4624780  80.8283542
  67.6917935  20.3386903  80.4461311  68.1852294  18.9202173  80.2555185
  78.1284625  30.0065903  80.1084679  77.3380169  29.9890042  79.5689178
  77.8917980  30.5454197  80.8633715  78.2482500  26.8558369  77.4217407
  78.2980505  26.6908377  78.3632930  78.1396423  25.9885628  77.0315288
  67.1318759  29.5346915  64.7109496  67.2806879  30.2182379  64.0576169
  67.9385202  29.5152005  65.2258952  75.5386262  22.8389297  78.7376714
  76.4396125  22.6995762  78.4460712  75.6134237  23.0043752  79.6774891
  69.8729068  20.2156152  77.5829900  69.0032377  20.5089718  77.3112489
  70.1088548  20.7996597  78.3037164  79.7500697  29.2755311  77.6659429
  79.4585505  29.6385291  78.5022890  79.1372828  28.5622319  77.4872761
  80.9496379  26.8408191  70.1861999  81.7843271  27.2797995  70.3499559
  81.0855508  26.3646844  69.3670245  77.9987885  24.3987926  76.1339487
  78.4742007  24.5915572  75.3258338  77.0753450  24.4547111  75.8882870
  64.8871392  25.5612093  65.7170565  64.6417434  24.6574423  65.9150775
  65.0567306  25.5629243  64.7750043  72.5768102  16.4335769  75.0995321
  73.0950045  17.1696796  74.7741809  72.2223234  16.7399762  75.9342080
  64.1567039  21.2940450  63.2156726  63.4636284  21.3684805  62.5596762
  63.9118791  20.5300794  63.7378243  72.8280696  12.8536052  70.6196217
  73.1082450  12.1859241  71.2456644  73.6131303  13.0465147  70.1070881
  70.6314164  32.0295046  62.1821243  70.0588131  32.6485233  61.7291715
  71.2046958  32.5794407  62.7161165  76.6989554  21.2753686  74.3667792
  77.6506977  21.3751783  74.3880016  76.5293005  20.4831954  74.8765877
  74.7203934  18.3609269  74.5527193  74.1253866  18.6414282  73.8573682
  74.4353630  18.8503170  75.3243934  73.8511424  32.3132196  63.3129826
  74.7842097  32.2477757  63.5162701  73.7634637  33.1488462  62.8544358
  79.1777632  24.4959805  73.4810092  79.1453952  23.5575806  73.6669776
  79.7878256  24.5743842  72.7475917  71.0160963  23.3655858  59.5237296
  71.9620067  23.2362066  59.5925714  70.6375208  22.6270520  60.0006724
  79.3272120  21.2870849  73.5268375  78.8111169  20.5029305  73.3398304
  80.2112069  20.9589565  73.6914895  76.9882847  15.0311864  69.4864188
  76.7907668  14.7226952  70.3707520  77.5982553  15.7573503  69.6162118
  84.9954182  25.5575812  72.6216129  85.7257570  25.2961100  73.1823832
  84.3861127  24.8204534  72.6618197  83.0769479  23.6983675  73.2190580
  82.3502642  23.5639640  72.6107072  82.6616766  24.0060503  74.0247298
  70.8999655  27.4173604  80.9837953  71.8202665  27.5952203  81.1777999
  70.8649238  26.4729650  80.8317652  69.2003880  21.2905835  59.4592181
  68.2935335  20.9938947  59.5354895  69.4779861  20.9935653  58.5926467
  60.1181820  22.6112198  69.9091228  59.7984605  21.7577506  69.6165602
  59.5715248  22.8260776  70.6649195  63.8961728  25.3274639  73.6260734
  64.1147738  26.2591747  73.6448768  64.3087502  24.9682613  74.4115538
  70.8165946  15.8342724  65.6136423  70.0066674  15.4889809  65.9891669
  71.5050363  15.5250268  66.2024034  72.7456494  14.9120771  67.2360719
  73.2987533  15.3316225  67.8950742  72.9826580  13.9856519  67.2783675
  68.7689593  20.9007845  83.0163483  68.6686320  21.8502202  82.9475574
  68.5511135  20.5726084  82.1439553  67.9702665  18.1492770  59.6004160
  68.8321829  18.4747668  59.8599978  68.1553009  17.3624266  59.0877226
  59.9870080  26.2315110  71.8784349  59.2933552  25.8169062  71.3654304
  60.7343071  26.2735646  71.2817768  76.1235301  17.0221296  66.7439383
  75.5433970  17.6806100  66.3617436  75.8571234  16.1998641  66.3326801
  74.5738867  16.4226354  68.9460704  75.0738646  16.5342889  68.1375023
  75.2174475  16.1187407  69.5861512  68.6320863  24.3304984  81.8328545
  68.1487945  25.1305344  82.0392434  68.7181802  24.3412929  80.8795989
  61.9006823  26.1633363  69.7550364  61.8777511  26.2621051  68.8032247
  62.2107459  27.0098514  70.0767530  64.5594201  28.2209518  73.8696978
  65.5137454  28.1893461  73.8026910  64.3606724  27.7600142  74.6847204
  65.1493583  26.7910634  76.4367776  65.9686472  27.2854713  76.4602613
  65.4230391  25.8742603  76.4085344  74.9060179  19.1821387  65.7995732
  74.0186034  19.4671037  65.5815926  75.3214168  19.0215150  64.9523009
  78.2574715  19.2067908  69.5150071  79.0335105  19.6964360  69.7874688
  77.5322849  19.6325962  69.9721940  80.6947274  19.9195527  70.5724012
  81.2891765  19.6791263  69.8617320  80.7673857  19.2002657  71.1997548
  62.9144429  33.7629138  70.8867176  62.7798897  33.0029539  70.3205174
  62.4976492  34.4870038  70.4195965  74.8801203  24.6975923  66.0146022
  74.8236404  25.1544474  65.1753654  75.4329545  23.9366607  65.8368865
  78.6906009  20.4865655  66.8396141  78.4342943  20.0862290  67.6704349
  78.0658877  21.2009448  66.7146280  83.0018347  23.2261728  69.3467433
  82.4417905  23.2954917  70.1198995  82.3961850  23.0502712  68.6266929
  66.0713555  34.6598455  71.0985619  65.9545940  35.6043887  70.9964309
  65.2506002  34.3572016  71.4871418  75.9590090  29.3848591  61.9442212
  76.7935694  28.9529789  61.7619686  75.7974433  29.2130604  62.8719106
  75.6135982  25.8880704  63.3098551  75.5584786  25.7224975  62.3686995
  74.9882037  26.5956737  63.4660741  60.4028497  21.1248768  77.1359973
  61.0487361  20.6147722  77.6247198  60.1945648  21.8617450  77.7103398
  72.9281889  28.1929616  82.6352114  73.7973049  28.3670268  82.2738749
  72.4488641  29.0124033  82.5127843  68.9232108  15.3888813  62.8883869
  68.9110777  16.3330653  63.0452140  69.8155529  15.2058958  62.5943331
  67.0968069  35.3126717  74.3141547  67.9995316  35.3450327  74.6308042
  66.8705440  34.3827168  74.3287883  68.8521672  34.0657703  70.9751626
  67.9017303  34.0659565  70.8615998  69.1554158  33.3190438  70.4587661
  72.7384227  11.9831590  67.1429806  71.9716623  11.4290076  67.2886489
  73.1494932  12.0553458  68.0043958  64.7425988  18.2716385  81.2334987
  65.6057450  17.9153190  81.4438312  64.1691399  17.9330280  81.9210392
  81.8783854  41.0080522  77.9345119  81.8672495  40.6133320  77.0625622
  82.0404494  40.2746594  78.5278890  78.5991115  43.7917633  76.8824303
  78.3080981  44.6963264  76.7670969  79.2348100  43.8334161  77.5968372
  89.5424061  37.5644929  70.0183575  90.2749233  36.9944146  70.2521404
  88.7863416  37.1766529  70.4590081  81.1600180  39.9872170  67.2146917
  80.7958388  39.4602791  67.9259839  82.0167296  39.5970639  67.0413403
  87.0649481  31.2766503  74.4778184  86.7332806  32.1461914  74.2539399
  86.4695094  30.9602787  75.1572214  86.9578144  35.9961589  71.5571534
  86.0495022  35.9276997  71.2630295  86.9065740  36.4733534  72.3853359
  74.3702293  39.5726119  70.7454590  74.4994674  39.8260598  71.6594002
  73.6899744  40.1653827  70.4259245  81.0319010  37.4151235  79.5006431
  80.2552344  37.9745155  79.4909296  81.6709573  37.9008018  80.0221301
  88.8239791  34.1978027  73.3349408  88.1814171  34.4910561  72.6889202
  88.3194719  34.0830948  74.1402604  86.4779954  37.9441201  64.0235267
  87.3897810  38.1768587  63.8482964  85.9689601  38.5278245  63.4610345
  79.2865382  40.2236688  79.0624398  80.0280067  40.7621732  78.7859222
  78.5802368  40.8502977  79.2195950  81.1151792  37.3038435  75.0330116
  81.9612987  37.7277849  75.1764765  81.0550430  36.6472060  75.7268679
  84.2651237  34.9642804  76.6911290  84.0212169  35.7184864  76.1545566
  84.5411168  35.3428151  77.5258537  83.8215929  34.1199237  72.2725128
  82.9600408  34.4180490  72.5641865  83.8478364  34.3369635  71.3406160
  78.0226746  37.3776336  79.8639708  77.3925407  38.0592617  80.0975105
  77.9162834  37.2659418  78.9192846  73.3171719  37.0448132  70.7905632
  72.5270773  37.3005661  70.3145743  73.8082966  37.8596470  70.8957673
  71.6009422  37.2978623  73.2220623  71.8517460  38.1825633  73.4878199
  72.1368970  37.1183224  72.4495715  95.4241521  40.7292120  69.8895884
  94.6705230  40.1599518  69.7339889  95.5589062  40.6954784  70.8366519
  77.3007489  31.6797102  82.2264959  76.9074434  31.1263301  82.9012603
  78.1173629  31.9907680  82.6171477  80.2175450  33.0954981  79.8185216
  80.9585163  33.6962134  79.7389678  80.4493373  32.3532619  79.2603258
  75.3616788  38.2811348  78.0963445  75.2470303  37.3796606  78.3970544
  74.5061306  38.5275045  77.7448262  80.9962918  44.0176018  78.5655855
  81.5291255  43.2564306  78.3355163  80.4676999  43.7249670  79.3080010
  84.1632613  29.1236084  74.0949497  83.8196882  30.0137726  74.0188608
  84.5311575  28.9337742  73.2319082  72.2318463  41.4469614  66.9138099
  73.0693685  41.8566623  66.6971807  72.4096731  40.5069057  66.8838293
  84.1282895  39.1144695  62.6021932  83.6129519  39.8849300  62.8410320
  83.8560204  38.4409831  63.2254994  81.7130007  33.9594396  67.6607171
  80.8571603  33.5701246  67.4812809  82.1256958  34.0386357  66.8006956
  83.2429153  31.4940739  72.0598730  82.7393949  31.4570874  71.2466536
  83.5359760  32.4033482  72.1195387  79.4872039  31.5779469  71.0664912
  80.3525036  31.3822278  70.7070802  79.5549548  31.3489821  71.9934269
  89.1017170  41.8677050  64.5375106  88.3246612  41.5288209  64.0930268
  89.7808651  41.8729673  63.8630071  83.9169199  36.9871787  64.4281714
  83.6119334  37.3017936  65.2791857  84.8699641  37.0653207  64.4709046
  79.3957026  30.6822926  67.1656348  78.7421438  30.3671943  66.5412963
  79.3537500  30.0598666  67.8916171  82.6294766  37.1704859  71.4903996
  81.7117328  37.3919806  71.3325684  83.0454910  37.2451170  70.6315703
  83.4129814  38.5696275  66.6206676  84.1601633  39.0817672  66.3113798
  83.6821404  38.2480328  67.4811070  85.8608651  35.6053391  68.6025466
  85.1231408  35.0930777  68.9335708  86.1135425  35.1653773  67.7908742
  85.9620278  28.3829643  69.1967235  86.2679155  27.5227007  68.9093150
  86.6872883  28.9747263  68.9966229  83.7707930  37.7602321  76.2948699
  84.1257317  37.9873794  77.1543164  84.4180061  38.0920697  75.6725954
  89.5005667  40.8820756  66.9998028  89.3623565  41.0722352  66.0719217
  89.1441886  41.6440139  67.4566079  77.6647793  34.8678852  73.0795040
  78.3047172  34.7267611  72.3818003  76.8325323  34.5813365  72.7033642
  74.6676409  34.8379177  67.8568027  74.9283227  35.7524510  67.7477187
  75.4893582  34.3703619  68.0064639  76.1401335  36.2516934  75.0266851
  76.8124388  36.0434296  74.3779500  75.3131121  36.0539020  74.5872083
  82.0426907  32.8778875  77.0432512  81.3954822  33.5768824  76.9496988
  82.8127922  33.3115019  77.4108760  85.4505705  43.1427727  80.1183065
  85.2991211  42.9138279  79.2013149  85.4410384  44.0998328  80.1314410
  76.5428832  39.5259537  75.7869288  76.4048630  38.7939776  76.3880827
  77.4533755  39.4368437  75.5053476  77.8840067  36.2244714  77.0948607
  77.3477424  35.7735452  77.7470204  77.2956775  36.3590623  76.3519072
  73.6179188  35.3600722  74.1801602  73.5337376  34.7526391  73.4452012
  72.7961894  35.8509740  74.1811098  83.7902902  33.8454285  69.5471797
  84.2871601  33.0924247  69.2272867  83.0189883  33.8818602  68.9815006
  91.6432659  39.5494651  71.1890088  91.6322535  40.4319366  70.8184022
  90.7750038  39.1966201  70.9944626  88.2605234  38.4443292  67.6560254
  88.7265686  39.2771283  67.5820557  88.7112734  37.9788273  68.3605513
  86.2321896  30.8123879  71.6951156  85.3184976  31.0428105  71.8633363
  86.6614998  30.8962323  72.5465188  86.0028355  39.0013771  74.1951050
  85.3499805  39.2489678  73.5403503  86.3808735  38.1877909  73.8613527
  82.0515928  39.7433582  80.6817087  81.3756565  39.6427711  81.3519462
  82.8743562  39.5872795  81.1453084  68.3912442  38.5511118  72.0234045
  68.4296541  38.0174709  72.8171163  67.8852735  38.0246324  71.4045023
  75.7703204  33.3975659  75.5196588  75.8344531  34.2590490  75.1073985
  75.7070324  32.7849661  74.7868946  75.2455477  35.4698791  79.1669622
  75.8727515  35.0875869  79.7807146  74.3883395  35.2512993  79.5325314
  85.6449585  45.8761767  80.7723357  86.1889489  46.4891725  80.2778312
  85.0636430  46.4341345  81.2890370  75.5515266  35.3531217  71.0815525
  74.8301852  35.9667185  70.9422999  76.3408522  35.8888982  71.0032171
  78.3541580  32.6885644  77.3556177  78.8775982  32.9347940  78.1182486
  78.1353913  33.5205678  76.9359314  73.7508861  34.9589318  65.2227302
  73.4221567  34.0786697  65.0402408  74.1048232  34.9036987  66.1103691
  79.5594125  33.6299339  75.0405848  79.2190945  32.8307152  75.4426527
  78.8533131  33.9301050  74.4682681  80.2110597  30.7148651  73.4933171
  81.0336666  30.2409129  73.3712061  80.4548660  31.4939135  73.9931857
  82.9949954  34.4482059  64.7254405  83.2113568  35.3306696  64.4243233
  82.5144021  34.0568272  63.9960047  79.5945558  34.3970320  71.3506039
  79.5807127  33.5011413  71.0138337  80.3117986  34.4040984  71.9844325
  81.4471689  34.8307660  73.3959166  81.1889467  35.7524731  73.3943497
  80.9156729  34.4338095  74.0859630  72.2094838  39.9473116  74.2412810
  71.6648306  40.7232924  74.3733085  73.0874187  40.2943921  74.0831932
  78.9982454  33.2784700  66.6193609  79.1198365  32.3501346  66.8184496
  78.7084497  33.2923386  65.7071924  81.8673645  30.9639610  69.7560329
  81.8895341  31.0278944  68.8012308  82.2841704  30.1244119  69.9500835
  92.2457269  40.6994870  67.7939551  92.6888415  39.9502195  67.3958675
  91.3683779  40.6905006  67.4113283  72.9960859  39.0743012  77.1342967
  72.2542596  39.2225648  77.7207598  72.6753604  39.3351278  76.2709717
  89.2784473  44.7024917  64.8033481  89.8035798  45.0412190  64.0782801
  89.1906826  43.7671932  64.6196615  78.4823534  34.7916697  80.8283542
  78.5311689  35.6678820  80.4461311  79.0246048  34.2494090  80.2555185
  88.9678379  45.3357821  80.1084679  88.1773923  45.3181960  79.5689178
  88.7311734  45.8746114  80.8633715  86.3780017  38.1681215  78.7376714
  87.2789880  38.0287680  78.4460712  86.4527991  38.3335670  79.6774891
  80.7122822  35.5448070  77.5829900  79.8426132  35.8381636  77.3112489
  80.9482303  36.1288515  78.3037164  91.7890134  42.1700108  70.1861999
  92.6237025  42.6089912  70.3499559  91.9249262  41.6938762  69.3670245
  88.8381640  39.7279843  76.1339487  89.3135761  39.9207490  75.3258338
  87.9147205  39.7839029  75.8882870  83.4161856  31.7627687  75.0995321
  83.9343800  32.4988714  74.7741809  83.0616989  32.0691680  75.9342080
  83.6674450  28.1827969  70.6196217  83.9476204  27.5151158  71.2456644
  84.4525057  28.3757065  70.1070881  87.5383309  36.6045603  74.3667792
  88.4900731  36.7043701  74.3880016  87.3686759  35.8123872  74.8765877
  85.5597688  33.6901186  74.5527193  84.9647620  33.9706199  73.8573682
  85.2747385  34.1795087  75.3243934  90.0171386  39.8251723  73.4810092
  89.9847706  38.8867724  73.6669776  90.6272010  39.9035760  72.7475917
  90.1665875  36.6162766  73.5268375  89.6504924  35.8321223  73.3398304
  91.0505823  36.2881483  73.6914895  87.8276602  30.3603782  69.4864188
  87.6301423  30.0518870  70.3707520  88.4376307  31.0865421  69.6162118
  95.8347936  40.8867730  72.6216129  96.5651325  40.6253018  73.1823832
  95.2254882  40.1496452  72.6618197  93.9163233  39.0275592  73.2190580
  93.1896397  38.8931557  72.6107072  93.5010520  39.3352421  74.0247298
  81.7393410  42.7465522  80.9837953  82.6596419  42.9244121  81.1777999
  81.7042993  41.8021567  80.8317652  70.9575575  37.9404116  69.9091228
  70.6378359  37.0869424  69.6165602  70.4109003  38.1552694  70.6649195
  81.6559700  31.1634642  65.6136423  80.8460428  30.8181727  65.9891669
  82.3444117  30.8542186  66.2024034  83.5850248  30.2412689  67.2360719
  84.1381287  30.6608142  67.8950742  83.8220335  29.3148437  67.2783675
  79.6083348  36.2299762  83.0163483  79.5080075  37.1794119  82.9475574
  79.3904890  35.9018001  82.1439553  86.9629055  32.3513214  66.7439383
  86.3827725  33.0098018  66.3617436  86.6964988  31.5290559  66.3326801
  85.4132622  31.7518272  68.9460704  85.9132400  31.8634806  68.1375023
  86.0568230  31.4479325  69.5861512  79.4714618  39.6596901  81.8328545
  78.9881699  40.4597261  82.0392434  79.5575557  39.6704846  80.8795989
  72.7400577  41.4925281  69.7550364  72.7171265  41.5912968  68.8032247
  73.0501214  42.3390432  70.0767530  75.9887337  42.1202552  76.4367776
  76.8080226  42.6146631  76.4602613  76.2624145  41.2034520  76.4085344
  85.7453934  34.5113304  65.7995732  84.8579789  34.7962955  65.5815926
  86.1607923  34.3507068  64.9523009  89.0968470  34.5359825  69.5150071
  89.8728860  35.0256278  69.7874688  88.3716604  34.9617880  69.9721940
  91.5341028  35.2487445  70.5724012  92.1285519  35.0083181  69.8617320
  91.6067612  34.5294575  71.1997548  85.7194957  40.0267840  66.0146022
  85.6630159  40.4836392  65.1753654  86.2723300  39.2658525  65.8368865
  89.5299763  35.8157572  66.8396141  89.2736697  35.4154208  67.6704349
  88.9052631  36.5301366  66.7146280  93.8412101  38.5553645  69.3467433
  93.2811659  38.6246835  70.1198995  93.2355604  38.3794630  68.6266929
  86.4529737  41.2172622  63.3098551  86.3978540  41.0516893  62.3686995
  85.8275792  41.9248654  63.4660741  71.2422252  36.4540686  77.1359973
  71.8881115  35.9439640  77.6247198  71.0339403  37.1909368  77.7103398
  83.7675644  43.5221533  82.6352114  84.6366803  43.6962186  82.2738749
  83.2882395  44.3415950  82.5127843  79.7625862  30.7180731  62.8883869
  79.7504532  31.6622570  63.0452140  80.6549284  30.5350876  62.5943331
  83.5777981  27.3123507  67.1429806  82.8110377  26.7581994  67.2886489
  83.9888686  27.3845376  68.0043958  75.5819743  33.6008303  81.2334987
  76.4451204  33.2445108  81.4438312  75.0085153  33.2622198  81.9210392
  92.7177609  56.3372439  77.9345119  92.7066250  55.9425237  77.0625622
  92.8798248  55.6038512  78.5278890  93.6744200  60.7044032  63.2770269
  93.0232180  61.2898112  62.8904283  94.4688563  61.2350227  63.3365306
  89.9366105  53.9525835  61.3075853  90.1891626  53.4307356  60.5459316
  88.9990664  53.7891980  61.4102537  95.1519465  58.3934464  63.8139253
  94.5165298  58.4669090  64.5260158  94.8216872  58.9828062  63.1358333
 100.3817815  52.8936846  70.0183575 101.1142987  52.3236063  70.2521404
  99.6257171  52.5058447  70.4590081  97.9043235  46.6058421  74.4778184
  97.5726560  47.4753832  74.2539399  97.3088849  46.2894705  75.1572214
  91.6399422  50.3453988  62.2108266  91.8073824  51.2134224  62.5778737
  91.4496591  50.5081269  61.2869555  94.3974755  58.8070967  73.8774096
  94.0975478  59.7096005  73.7689904  94.0525814  58.5403150  74.7295249
  89.3795535  65.5715287  66.8445064  89.3019564  66.5223112  66.9233545
  88.7757178  65.2261159  67.5019990  91.8712765  52.7443152  79.5006431
  91.0946099  53.3037072  79.4909296  92.5103328  53.2299935  80.0221301
  99.6633545  49.5269945  73.3349408  99.0207925  49.8202478  72.6889202
  99.1588474  49.4122865  74.1402604  97.3173709  53.2733118  64.0235267
  98.2291565  53.5060505  63.8482964  96.8083356  53.8570163  63.4610345
  90.1259137  55.5528606  79.0624398  90.8673821  56.0913650  78.7859222
  89.4196122  56.1794894  79.2195950  95.6014476  57.6957746  77.6596559
  96.0097833  57.2540157  76.9151192  94.8791738  57.1210374  77.9130752
  95.9243291  58.2558937  71.4148848  95.2952154  58.4204651  70.7124916
  95.5368953  58.6700546  72.1859812  99.8032523  59.1913375  68.7693212
  99.1183561  59.5712276  68.2190245  99.8876372  59.8008701  69.5025160
  97.0583455  56.8373334  75.3688556  97.2700350  57.4805094  74.6922937
  97.0113203  56.0035650  74.9010486  88.8620501  52.7068254  79.8639708
  88.2319161  53.3884535  80.0975105  88.7556588  52.5951335  78.9192846
  98.1729283  59.7145289  73.5410913  98.9946726  59.3125476  73.2593595
  98.1691685  59.6113523  74.4927029 106.2635276  56.0584038  69.8895884
 105.5098984  55.4891436  69.7339889 106.3982817  56.0246702  70.8366519
  91.6533904  60.9297440  65.5650604  91.5179578  61.7748976  65.9935452
  92.1943716  61.1316717  64.8016538  88.1401243  47.0089020  82.2264959
  87.7468189  46.4555218  82.9012603  88.9567384  47.3199598  82.6171477
  91.0569204  48.4246899  79.8185216  91.7978918  49.0254052  79.7389678
  91.2887127  47.6824537  79.2603258  86.2010542  53.6103266  78.0963445
  86.0864057  52.7088523  78.3970544  85.3455060  53.8566963  77.7448262
  95.0026367  44.4528002  74.0949497  94.6590637  45.3429643  74.0188608
  95.3705330  44.2629659  73.2319082  99.9410924  57.1968967  64.5375106
  99.1640367  56.8580127  64.0930268 100.6202405  57.2021591  63.8630071
  98.1802231  56.6702949  71.1941714  97.5225905  57.3602210  71.2821842
  98.9842630  57.0599381  71.5375700  91.3461985  56.2934139  59.0809641
  90.4389047  56.0623392  59.2800789  91.8433017  55.4971758  59.2683622
  94.2530064  65.0031646  62.0006327  93.5791763  65.3063342  62.6091285
  94.6395886  65.8060726  61.6511784  92.5250219  56.3946733  63.6033631
  91.6161438  56.1105766  63.7006100  92.5545302  56.8145812  62.7436937
  97.7569486  60.0053323  67.3724798  97.3031813  59.1644233  67.4289989
  97.1263453  60.6414721  67.7099578  96.2002425  61.8429820  68.3074616
  96.4925400  62.4034877  67.5886982  96.7101046  62.1358381  69.0627775
  96.8014033  43.7121561  69.1967235  97.1072910  42.8518924  68.9093150
  97.5266638  44.3039181  68.9966229  92.2226306  57.9355477  60.9421709
  91.7845736  57.2191336  60.4827347  92.9636747  58.1631592  60.3806801
  91.1636050  62.6210171  69.3968070  91.1212229  62.8471017  68.4676602
  92.0798749  62.3873545  69.5453871 100.3399421  56.2112674  66.9998028
 100.2017320  56.4014270  66.0719217  99.9835640  56.9732057  67.4566079
 100.3668801  58.2789201  72.0109299 100.8005307  58.1864490  72.8592353
 101.0800382  58.2546702  71.3729315 101.2284350  58.3212902  74.5442185
 101.4220240  59.2258712  74.7901460 101.1284969  57.8620321  75.3780770
  92.8820661  48.2070792  77.0432512  92.2348576  48.9060742  76.9496988
  93.6521677  48.6406936  77.4108760  92.4521279  65.1711318  64.2153406
  92.6273035  64.6999361  65.0299029  91.7654067  65.7977084  64.4434667
  87.3822586  54.8551454  75.7869288  87.2442384  54.1231693  76.3880827
  88.2927510  54.7660354  75.5053476  96.3437534  56.7939859  60.5353767
  95.7266705  56.0686687  60.4386819  95.8754022  57.5549219  60.1920841
  88.7233821  51.5536632  77.0948607  88.1871178  51.1027370  77.7470204
  88.1350529  51.6882540  76.3519072  88.1336080  51.0125283  59.6575071
  87.2565546  50.8914084  59.2937318  88.6093833  50.2211361  59.4053960
  98.0009073  59.4678351  76.4273527  97.1135852  59.1304273  76.5499926
  98.5707624  58.7361382  76.6642292  91.3200006  63.3651573  66.9037592
  90.5367528  63.9073254  66.9975816  92.0192751  63.8825553  67.3031833
 102.4826413  54.8786568  71.1890088 102.4716290  55.7611284  70.8184022
 101.6143793  54.5258119  70.9944626  95.7126437  57.9317890  67.1210220
  94.7782716  58.0519352  66.9514925  95.8903105  57.0290357  66.8570230
  99.0998988  53.7735209  67.6560254  99.5659440  54.6063201  67.5820557
  99.5506489  53.3080191  68.3605513  97.1675219  60.1179031  64.6546407
  97.4435063  60.0035625  65.5640281  96.2979718  59.7196515  64.6158580
  97.0715651  46.1415796  71.6951156  96.1578731  46.3720023  71.8633363
  97.5008752  46.2254240  72.5465188  96.8422109  54.3305688  74.1951050
  96.1893560  54.5781596  73.5403503  97.2202489  53.5169826  73.8613527
  94.1371449  63.2933567  65.5594269  94.6659215  62.7826021  64.9464431
  94.3999668  62.9776097  66.4239802  92.8909682  55.0725499  80.6817087
  92.2150319  54.9719629  81.3519462  93.7137316  54.9164713  81.1453084
  86.0849231  50.7990709  79.1669622  86.7121270  50.4167786  79.7807146
  85.2277150  50.5804911  79.5325314  94.7700853  64.3274402  71.9038385
  94.6451992  63.5264142  71.3949331  95.4279944  64.8220596  71.4152355
  96.8335761  62.1283422  73.5317935  95.8866096  62.0088774  73.4596262
  97.1818534  61.2405920  73.6144197  93.8382194  61.9236139  69.7322287
  93.6907157  60.9952846  69.9129857  94.6635688  61.9456229  69.2479363
  97.4416316  62.7464697  70.8187160  98.3662864  62.5407559  70.6811611
  97.2731619  62.4981098  71.7276502  97.2311632  63.2650365  66.1749252
  97.4048510  62.6996787  65.4223104  97.7240524  64.0651260  65.9928742
 103.0851023  56.0286788  67.7939551 103.5282169  55.2794113  67.3958675
 102.2077534  56.0196924  67.4113283  98.2186805  62.5817129  63.2746150
  98.9137709  63.2023822  63.4933465  98.5609955  61.7312480  63.5498528
 100.1178228  60.0316835  64.8033481 100.6429552  60.3704107  64.0782801
 100.0300580  59.0963850  64.6196615  91.8018889  66.0988818  69.1628734
  91.3623879  65.6065197  69.8561591  92.5527006  65.5561786  68.9220809
  89.3217288  50.1208615  80.8283542  89.3705444  50.9970738  80.4461311
  89.8639802  49.5786008  80.2555185  99.8072134  60.6649738  80.1084679
  99.0167678  60.6473877  79.5689178  99.5705489  61.2038032  80.8633715
  99.9270009  57.5142205  77.4217407  99.9768014  57.3492212  78.3632930
  99.8183932  56.6469464  77.0315288  97.2173771  53.4973133  78.7376714
  98.1183634  53.3579598  78.4460712  97.2921746  53.6627588  79.6774891
  91.5516577  50.8739988  77.5829900  90.6819886  51.1673554  77.3112489
  91.7876057  51.4580433  78.3037164 101.4288206  59.9339146  77.6659429
 101.1373014  60.2969127  78.5022890 100.8160337  59.2206155  77.4872761
 102.6283888  57.4992026  70.1861999 103.4630780  57.9381830  70.3499559
 102.7643017  57.0230679  69.3670245  99.6775394  55.0571761  76.1339487
 100.1529516  55.2499407  75.3258338  98.7540959  55.1130947  75.8882870
  94.5068205  43.5119887  70.6196217  94.7869959  42.8443076  71.2456644
  95.2918812  43.7048983  70.1070881  92.3101673  62.6878881  62.1821243
  91.7375640  63.3069068  61.7291715  92.8834467  63.2378243  62.7161165
  98.3777063  51.9337521  74.3667792  99.3294486  52.0335619  74.3880016
  98.2080514  51.1415790  74.8765877  95.5298933  62.9716031  63.3129826
  96.4629606  62.9061593  63.5162701  95.4422146  63.8072298  62.8544358
  98.1586950  62.2881901  60.2733773  98.0800581  61.9541765  61.1669531
  98.9796616  62.7803669  60.2725246 100.8565141  55.1543641  73.4810092
 100.8241461  54.2159641  73.6669776 101.4665765  55.2327677  72.7475917
  92.6948472  54.0239694  59.5237296  93.6407576  53.8945902  59.5925714
  92.3162717  53.2854356  60.0006724 101.0059629  51.9454684  73.5268375
 100.4898678  51.1613141  73.3398304 101.8899578  51.6173401  73.6914895
  98.6670356  45.6895700  69.4864188  98.4695177  45.3810788  70.3707520
  99.2770062  46.4157339  69.6162118 106.6741691  56.2159647  72.6216129
 107.4045079  55.9544936  73.1823832 106.0648636  55.4788369  72.6618197
 104.7556988  54.3567510  73.2190580 104.0290151  54.2223475  72.6107072
 104.3404275  54.6644339  74.0247298  92.5787164  58.0757440  80.9837953
  93.4990174  58.2536039  81.1777999  92.5436747  57.1313485  80.8317652
  90.8791389  51.9489670  59.4592181  89.9722844  51.6522783  59.5354895
  91.1567370  51.6519488  58.5926467  92.4953455  46.4926560  65.6136423
  91.6854183  46.1473645  65.9891669  93.1837872  46.1834103  66.2024034
  94.4244003  45.5704607  67.2360719  94.9775042  45.9900060  67.8950742
  94.6614089  44.6440355  67.2783675  90.4477102  51.5591680  83.0163483
  90.3473829  52.5086037  82.9475574  90.2298644  51.2309919  82.1439553
  97.8022810  47.6805132  66.7439383  97.2221479  48.3389936  66.3617436
  97.5358743  46.8582476  66.3326801  96.2526376  47.0810189  68.9460704
  96.7526155  47.1926724  68.1375023  96.8961984  46.7771242  69.5861512
  90.3108372  54.9888819  81.8328545  89.8275454  55.7889179  82.0392434
  90.3969311  54.9996764  80.8795989  96.5847688  49.8405222  65.7995732
  95.6973543  50.1254873  65.5815926  97.0001677  49.6798985  64.9523009
  99.9362224  49.8651743  69.5150071 100.7122614  50.3548196  69.7874688
  99.2110358  50.2909797  69.9721940 102.3734783  50.5779362  70.5724012
 102.9679274  50.3375098  69.8617320 102.4461366  49.8586493  71.1997548
  95.7290901  59.6049897  59.8943752  96.4326752  59.8099899  60.5101407
  95.0053550  60.1726659  60.1592835 100.3693518  51.1449490  66.8396141
 100.1130452  50.7446126  67.6704349  99.7446386  51.8593284  66.7146280
 104.6805856  53.8845563  69.3467433 104.1205413  53.9538752  70.1198995
 104.0749359  53.7086548  68.6266929  97.6377599  60.0432426  61.9442212
  98.4723203  59.6113624  61.7619686  97.4761942  59.8714440  62.8719106
  97.2923491  56.5464539  63.3098551  97.2372295  56.3808811  62.3686995
  96.6669546  57.2540572  63.4660741  94.4171736  42.6415425  67.1429806
  93.6504132  42.0873912  67.2886489  94.8282441  42.7137294  68.0043958
  86.4213497  48.9300221  81.2334987  87.2844959  48.5737026  81.4438312
  85.8478908  48.5914116  81.9210392 106.2661874  70.5602077  72.0397388
 106.9040284  70.4408824  71.3360729 106.1482717  71.5082921  72.0985341
 103.0751580  70.5129505  71.9758913 102.7370092  70.3970570  71.0879448
 103.9441348  70.1120670  71.9559919  98.9338396  72.3664982  67.9655804
  98.3703261  72.2754919  67.1972092  98.8190791  71.5464886  68.4458297
 103.5571363  71.6664357  77.9345119 103.5460004  71.2717155  77.0625622
 103.7192003  70.9330430  78.5278890  96.4802828  73.8616173  70.8040025
  97.2724120  73.5206998  70.3886324  96.7199478  73.9711148  71.7242178
 104.5137955  76.0335949  63.2770269 103.8625934  76.6190030  62.8904283
 105.3082317  76.5642144  63.3365306  98.4393582  73.1225086  63.6757403
  99.2124458  72.5754074  63.5370279  98.7918981  73.9869336  63.8871865
 100.2778624  74.4501469  76.8824303  99.9868490  75.3547100  76.7670969
 100.9135609  74.4917996  77.5968372 101.2034831  71.8278317  73.4725662
 101.7998403  71.6034340  72.7582625 101.2609803  71.0863063  74.0751110
 100.7759860  69.2817753  61.3075853 101.0285380  68.7599274  60.5459316
  99.8384419  69.1183898  61.4102537 105.8203142  68.2853531  69.1150596
 106.6066232  67.8672954  68.7641014 106.0841847  69.1899623  69.2832245
 105.9913220  73.7226381  63.8139253 105.3559053  73.7961008  64.5260158
 105.6610626  74.3119980  63.1358333 111.2211570  68.2228764  70.0183575
 111.9536742  67.6527981  70.2521404 110.4650925  67.8350365  70.4590081
 100.4956148  71.1845859  63.5100228 100.3792406  70.5090762  64.1781313
 100.6058408  70.6978232  62.6932381 102.8387689  70.6456006  67.2146917
 102.4745897  70.1186627  67.9259839 103.6954805  70.2554475  67.0413403
 108.7436990  61.9350338  74.4778184 108.4120315  62.8045749  74.2539399
 108.1482603  61.6186622  75.1572214 102.4793176  65.6745905  62.2108266
 102.6467579  66.5426142  62.5778737 102.2890345  65.8373187  61.2869555
 105.2368509  74.1362884  73.8774096 104.9369233  75.0387923  73.7689904
 104.8919569  73.8695067  74.7295249  98.6880991  70.5876681  69.9110801
  97.7631487  70.4552895  70.1188493  98.9365404  71.3670900  70.4080743
 108.6365653  66.6545424  71.5571534 107.7282531  66.5860833  71.2630295
 108.5853249  67.1317369  72.3853359 102.4582397  68.1303563  63.1954933
 102.3382022  68.5760614  64.0340413 101.7634986  68.4788880  62.6368471
  96.0489802  70.2309955  70.7454590  96.1782183  70.4844434  71.6594002
  95.3687253  70.8237663  70.4259245 100.2189289  80.9007205  66.8445064
 100.1413319  81.8515030  66.9233545  99.6150933  80.5553077  67.5019990
 102.7106519  68.0735070  79.5006431 101.9339853  68.6328990  79.4909296
 103.3497082  68.5591853  80.0221301 110.5027300  64.8561863  73.3349408
 109.8601680  65.1494396  72.6889202 109.9982228  64.7414783  74.1402604
 108.1567463  68.6025036  64.0235267 109.0685319  68.8352423  63.8482964
 107.6477110  69.1862080  63.4610345 100.9652891  70.8820523  79.0624398
 101.7067576  71.4205567  78.7859222 100.2589877  71.5086812  79.2195950
 106.4408231  73.0249664  77.6596559 106.8491587  72.5832074  76.9151192
 105.7185492  72.4502291  77.9130752 102.7939301  67.9622271  75.0330116
 103.6400496  68.3861684  75.1764765 102.7337939  67.3055895  75.7268679
 106.7637046  73.5850854  71.4148848 106.1345908  73.7496569  70.7124916
 106.3762708  73.9992464  72.1859812 110.6426278  74.5205292  68.7693212
 109.9577316  74.9004194  68.2190245 110.7270127  75.1300619  69.5025160
 105.9438746  65.6226639  76.6911290 105.6999678  66.3768699  76.1545566
 106.2198677  66.0011987  77.5258537 107.8977209  72.1665251  75.3688556
 108.1094104  72.8097011  74.6922937 107.8506957  71.3327568  74.9010486
 105.5003438  64.7783072  72.2725128 104.6387917  65.0764326  72.5641865
 105.5265873  64.9953471  71.3406160 102.3165008  73.3225263  68.6798933
 102.7803353  73.6012966  67.8903556 102.0521806  72.4208707  68.4972024
  99.2089089  72.8696744  71.6178697  99.7790446  73.2984012  70.9796181
  99.7997200  72.5879329  72.3162882 101.2533894  69.4448415  65.4888499
 101.9557937  69.8969459  65.9562425 100.9214522  68.8032234  66.1168392
  99.7014255  68.0360172  79.8639708  99.0712916  68.7176452  80.0975105
  99.5950343  67.9243253  78.9192846  94.9959228  67.7031968  70.7905632
  94.2058282  67.9589496  70.3145743  95.4870475  68.5180305  70.8957673
 109.0123037  75.0437207  73.5410913 109.8340481  74.6417394  73.2593595
 109.0085440  74.9405441  74.4927029  96.9473973  68.0676547  67.7489109
  96.1505136  68.1795241  68.2672604  96.7199565  68.4063199  66.8829999
 102.7779641  74.5921250  75.6971623 102.8424073  75.0541657  76.5329795
 102.0690564  73.9618615  75.8253933 117.1029030  71.3875955  69.8895884
 116.3492739  70.8183353  69.7339889 117.2376571  71.3538620  70.8366519
 102.4927658  76.2589358  65.5650604 102.3573333  77.1040893  65.9935452
 103.0337471  76.4608635  64.8016538  95.9457056  73.7764796  66.1378529
  96.4581576  74.5708046  66.2884094  96.5979768  73.0791086  66.0712130
  97.7551940  76.8930552  68.2201282  97.9318569  77.8148517  68.0322266
  98.5508774  76.5788971  68.6495662 101.8962959  63.7538816  79.8185216
 102.6372672  64.3545970  79.7389678 102.1280882  63.0116454  79.2603258
  97.0404297  68.9395184  78.0963445  96.9257812  68.0380441  78.3970544
  96.1848815  69.1858880  77.7448262 104.1196135  76.8812924  79.6950946
 103.6759989  76.0949303  79.3771850 104.7813348  77.0692075  79.0294837
  98.8783256  78.4108726  74.2211624  99.4290681  78.2825789  73.4488618
  98.0394732  78.7103615  73.8706517 106.2177373  77.1615724  77.7232347
 106.1995848  77.9824605  77.2312616 107.1397293  77.0369799  77.9482488
 102.6750427  74.6759853  78.5655855 103.2078764  73.9148142  78.3355163
 102.1464508  74.3833505  79.3080010 105.8420122  59.7819919  74.0949497
 105.4984391  60.6721561  74.0188608 106.2099084  59.5921577  73.2319082
  93.9105972  72.1053450  66.9138099  94.7481194  72.5150458  66.6971807
  94.0884240  71.1652892  66.8838293 105.8070404  69.7728530  62.6021932
 105.2917028  70.5433135  62.8410320 105.5347713  69.0993667  63.2254994
 103.3917516  64.6178231  67.6607171 102.5359112  64.2285082  67.4812809
 103.8044467  64.6970192  66.8006956 104.9216662  62.1524575  72.0598730
 104.4181458  62.1154710  71.2466536 105.2147269  63.0617317  72.1195387
 101.1659548  62.2363304  71.0664912 102.0312545  62.0406113  70.7070802
 101.2337057  62.0073656  71.9934269 110.7804679  72.5260885  64.5375106
 110.0034121  72.1872045  64.0930268 111.4596160  72.5313508  63.8630071
 105.5956708  67.6455623  64.4281714 105.2906843  67.9601772  65.2791857
 106.5487150  67.7237042  64.4709046 104.0403139  73.8045846  66.0774667
 103.5124501  73.0698605  65.7647905 103.5390642  74.5820522  65.8314636
 109.0195986  71.9994866  71.1941714 108.3619660  72.6894128  71.2821842
 109.8236385  72.3891298  71.5375700  98.7721867  64.4665512  68.4381279
  99.3465619  64.2440694  67.7054472  99.3592850  64.5354207  69.1909880
 107.8301444  70.3539239  69.2445656 108.3433326  70.9869231  69.7467365
 108.4802668  69.7540435  68.8789016  99.0991454  66.4969973  62.4577164
  98.2628766  66.8344660  62.7786439  98.9596224  66.3618953  61.5204301
 101.0744535  61.3406761  67.1656348 100.4208947  61.0255778  66.5412963
 101.0325009  60.7182502  67.8916171 102.1855740  71.6226056  59.0809641
 101.2782801  71.3915310  59.2800789 102.6826772  70.8263675  59.2683622
 105.0923819  80.3323563  62.0006327 104.4185517  80.6355260  62.6091285
 105.4789641  81.1352644  61.6511784 104.3082275  67.8288695  71.4903996
 103.3904837  68.0503642  71.3325684 104.7242419  67.9035005  70.6315703
 105.0917323  69.2280110  66.6206676 105.8389142  69.7401508  66.3113798
 105.3608912  68.9064163  67.4811070 103.3643973  71.7238651  63.6033631
 102.4555192  71.4397684  63.7006100 103.3939057  72.1437730  62.7436937
 108.5963241  75.3345241  67.3724798 108.1425568  74.4936150  67.4289989
 107.9657207  75.9706639  67.7099578 107.5396160  66.2637227  68.6025466
 106.8018917  65.7514613  68.9335708 107.7922934  65.8237608  67.7908742
 107.0396180  77.1721737  68.3074616 107.3319154  77.7326794  67.5886982
 107.5494800  77.4650298  69.0627775 107.6407787  59.0413479  69.1967235
 107.9466664  58.1810842  68.9093150 108.3660392  59.6331099  68.9966229
  93.9332143  69.4444165  67.5848833  93.7356543  68.8513526  66.8599899
  93.3778807  69.1396375  68.3024772 101.9128867  69.3367272  69.7043426
 101.9677477  68.3841108  69.6285903 101.1020069  69.4926711  70.1884724
 103.0620061  73.2647395  60.9421709 102.6239491  72.5483254  60.4827347
 103.8030502  73.4923510  60.3806801  99.8521227  67.9544331  67.4633805
  99.0389093  68.2538502  67.8698997 100.3480221  67.5600020  68.1808287
 102.0029805  77.9502088  69.3968070 101.9605984  78.1762935  68.4676602
 102.9192504  77.7165463  69.5453871 105.4495439  68.4186156  76.2948699
 105.8044826  68.6457629  77.1543164 106.0967570  68.7504533  75.6725954
 111.1793176  71.5404592  66.9998028 111.0411074  71.7306188  66.0719217
 110.8229395  72.3023975  67.4566079  99.3435302  65.5262687  73.0795040
  99.9834681  65.3851446  72.3818003  98.5112832  65.2397200  72.7033642
 111.2062555  73.6081119  72.0109299 111.6399062  73.5156408  72.8592353
 111.9194136  73.5838619  71.3729315 100.1195606  74.8265117  69.1930032
 100.9136204  74.3315437  68.9912607  99.4087298  74.2982980  68.8297738
 104.9390450  77.2083213  73.5442400 104.9927472  77.7774149  74.3120116
 104.0705232  77.3785098  73.1796437  96.4278369  68.9708199  65.2689785
  95.4975957  68.9092655  65.4859747  96.5235841  68.4484152  64.4726426
  96.3463918  65.4963012  67.8568027  96.6070736  66.4108345  67.7477187
  97.1681091  65.0287454  68.0064639  97.8188844  66.9100769  75.0266851
  98.4911897  66.7018131  74.3779500  96.9918630  66.7122855  74.5872083
 112.0678105  73.6504819  74.5442185 112.2613995  74.5550630  74.7901460
 111.9678723  73.1912238  75.3780770 103.7214416  63.5362710  77.0432512
 103.0742331  64.2352660  76.9496988 104.4915431  63.9698854  77.4108760
 107.1293214  73.8011562  80.1183065 106.9778720  73.5722114  79.2013149
 107.1197893  74.7582164  80.1314410 103.8978550  71.3743475  75.1029332
 104.8270610  71.5254635  74.9298299 103.4769580  71.4627496  74.2477978
 102.6966882  75.3994139  72.8727869 102.5577967  75.0312924  73.7453807
 101.9081478  75.9141779  72.7011827 103.2915034  80.5003236  64.2153406
 103.4666789  80.0291279  65.0299029 102.6047822  81.1269002  64.4434667
 104.2472097  74.7775742  70.2616707 103.9121929  74.7376512  71.1574357
 103.7476043  74.1120458  69.7887117  98.2216341  70.1843372  75.7869288
  98.0836139  69.4523611  76.3880827  99.1321264  70.0952272  75.5053476
 107.1831289  72.1231776  60.5353767 106.5660459  71.3978605  60.4386819
 106.7147777  72.8841137  60.1920841 100.8498642  69.8963331  75.2752968
 101.5598260  69.2556524  75.2339586 100.8067950  70.1476226  76.1979149
 108.8385420  76.8330685  78.1959547 108.7797966  76.1489905  77.5290130
 109.2404939  77.5749675  77.7440173  99.5627575  66.8828549  77.0948607
  99.0264933  66.4319288  77.7470204  98.9744284  67.0174458  76.3519072
  97.8576119  83.6492599  70.9893266  98.0972717  84.2811123  71.6672285
  97.0145315  83.2980639  71.2758625  98.9729834  66.3417201  59.6575071
  98.0959301  66.2206001  59.2937318  99.4487588  65.5503279  59.4053960
 108.8402827  74.7970269  76.4273527 107.9529606  74.4596190  76.5499926
 109.4101379  74.0653300  76.6642292  90.4931975  71.1294360  69.7516578
  91.1803014  70.8156090  69.1637594  90.3380103  72.0335725  69.4783830
 102.3703981  79.4571721  73.3934770 102.2974152  80.2626692  73.9054075
 101.9281374  79.6563687  72.5682791 102.1593760  78.6943491  66.9037592
 101.3761282  79.2365171  66.9975816 102.8586506  79.2117471  67.3031833
 105.4690411  64.5038120  69.5471797 105.9659110  63.7508083  69.2272867
 104.6977392  64.5402437  68.9815006 113.3220168  70.2078486  71.1890088
 113.3110044  71.0903201  70.8184022 112.4537547  69.8550037  70.9944626
 104.8302664  79.3558555  75.5492929 105.5430637  79.9906020  75.4768830
 104.3392693  79.4522421  74.7332931 106.5520191  73.2609808  67.1210220
 105.6176470  73.3811270  66.9514925 106.7296860  72.3582274  66.8570230
 102.0525379  66.6455503  69.2743482 101.6823167  66.0926544  69.9624387
 102.5484472  66.0413637  68.7218482 109.9392743  69.1027127  67.6560254
 110.4053195  69.9355119  67.5820557 110.3900243  68.6372109  68.3605513
  99.8814578  77.1052998  76.3698500 100.5824037  77.7389481  76.5227894
  99.4109693  77.4467730  75.6094139 108.0068974  75.4470948  64.6546407
 108.2828818  75.3327543  65.5640281 107.1373472  75.0488433  64.6158580
 107.9109405  61.4707714  71.6951156 106.9972485  61.7011941  71.8633363
 108.3402507  61.5546158  72.5465188 107.6815864  69.6597606  74.1951050
 107.0287314  69.9073513  73.5403503 108.0596244  68.8461744  73.8613527
 104.6423038  79.6957299  68.2979220 104.8245432  78.8778955  68.7606972
 105.4656024  79.9124991  67.8604110 104.9765203  78.6225484  65.5594269
 105.5052970  78.1117939  64.9464431 105.2393423  78.3068014  66.4239802
 103.7303437  70.4017417  80.6817087 103.0544074  70.3011546  81.3519462
 104.5531071  70.2456631  81.1453084  98.3320951  79.6740601  68.3192045
  97.6631326  80.1586729  67.8356085  98.1933821  79.9209821  69.2335423
  90.0699951  69.2094954  72.0234045  90.1084050  68.6758544  72.8171163
  89.5640244  68.6830159  71.4045023 102.4726220  81.7084344  74.9174703
 103.0244528  81.8715966  75.6823788 102.8132413  82.2988782  74.2454728
 107.3237094  76.5345602  80.7723357 107.8676998  77.1475560  80.2778312
 106.7423939  77.0925180  81.2890370  93.7008528  67.9359056  65.0987977
  93.9961969  67.0269734  65.0455030  92.7996564  67.9146795  64.7768979
 105.6094607  79.6566320  71.9038385 105.4845747  78.8556060  71.3949331
 106.2673698  80.1512513  71.4152355  97.2302775  66.0115052  71.0815525
  96.5089361  66.6251020  70.9422999  98.0196031  66.5472817  71.0032171
 107.6729515  77.4575340  73.5317935 106.7259851  77.3380691  73.4596262
 108.0212289  76.5697838  73.6144197 100.0329089  63.3469479  77.3556177
 100.5563491  63.5931776  78.1182486  99.8141422  64.1789514  76.9359314
  95.4296370  65.6173154  65.2227302  95.1009076  64.7370532  65.0402408
  95.7835741  65.5620822  66.1103691 104.6775949  77.2528056  69.7322287
 104.5300911  76.3244764  69.9129857 105.5029442  77.2748147  69.2479363
  98.5438193  65.9046123  65.5902780  98.8834266  66.4332045  64.8681388
  98.9910313  66.2426529  66.3661346 108.2810071  78.0756615  70.8187160
 109.2056618  77.8699476  70.6811611 108.1125374  77.8273016  71.7276502
 101.2381634  64.2883174  75.0405848 100.8978454  63.4890987  75.4426527
 100.5320640  64.5884885  74.4682681 101.8898106  61.3732486  73.4933171
 102.7124175  60.8992965  73.3712061 102.1336169  62.1522970  73.9931857
 100.5306340  64.4020745  63.7896072 101.2514703  64.7801998  63.2859789
  99.9071644  65.1209622  63.8931050 104.6737463  65.1065894  64.7254405
 104.8901077  65.9890532  64.4243233 104.1931530  64.7152107  63.9960047
  99.4136684  68.0651607  71.3025149  99.2681265  68.3791910  72.1949431
  98.9361888  68.6836507  70.7496048 101.2733067  65.0554155  71.3506039
 101.2594636  64.1595248  71.0138337 101.9905495  65.0624819  71.9844325
 103.1259198  65.4891495  73.3959166 102.8676976  66.4108566  73.3943497
 102.5944238  65.0921930  74.0859630 108.0705387  78.5942282  66.1749252
 108.2442264  78.0288705  65.4223104 108.5634278  79.3943177  65.9928742
  93.8882347  70.6056952  74.2412810  93.3435815  71.3816760  74.3733085
  94.7661696  70.9527756  74.0831932 100.6769963  63.9368535  66.6193609
 100.7985874  63.0085182  66.8184496 100.3872006  63.9507221  65.7071924
 103.5461154  61.6223446  69.7560329 103.5682850  61.6862779  68.8012308
 103.9629213  60.7827954  69.9500835 113.9244778  71.3578705  67.7939551
 114.3675924  70.6086031  67.3958675 113.0471288  71.3488842  67.4113283
 109.0580559  77.9109047  63.2746150 109.7531464  78.5315740  63.4933465
 109.4003709  77.0604398  63.5498528 110.9571982  75.3608752  64.8033481
 111.4823306  75.6996025  64.0782801 110.8694335  74.4255768  64.6196615
 102.6192031  79.2742826  76.9323357 102.9279158  79.0291973  77.8046057
 103.4167513  79.4789465  76.4442228 102.6412643  81.4280736  69.1628734
 102.2017633  80.9357114  69.8561591 103.3920760  80.8853703  68.9220809
  95.1204982  77.6192277  69.1653362  95.9463002  77.3196048  68.7852005
  94.7699034  76.8499899  69.6143151 100.0886515  76.9718745  71.2351036
  99.4666525  76.3089450  70.9353263 100.7591382  76.9979877  70.5524683
  93.3213587  75.5378603  70.1242296  92.4845495  75.1100777  69.9426297
  93.2937233  75.7311046  71.0613087 100.1611043  65.4500533  80.8283542
 100.2099198  66.3262656  80.4461311 100.7033557  64.9077926  80.2555185
 110.6465888  75.9941656  80.1084679 109.8561432  75.9765795  79.5689178
 110.4099243  76.5329950  80.8633715 110.7663764  72.8434122  77.4217407
 110.8161768  72.6784130  78.3632930 110.6577687  71.9761381  77.0315288
  99.6500022  75.5222668  64.7109496  99.7988143  76.2058132  64.0576169
 100.4566466  75.5027758  65.2258952 108.0567526  68.8265050  78.7376714
 108.9577389  68.6871515  78.4460712 108.1315500  68.9919505  79.6774891
 102.3910331  66.2031905  77.5829900 101.5213641  66.4965471  77.3112489
 102.6269812  66.7872350  78.3037164 112.2681960  75.2631064  77.6659429
 111.9766769  75.6261044  78.5022890 111.6554092  74.5498072  77.4872761
 113.4677643  72.8283944  70.1861999 114.3024534  73.2673748  70.3499559
 113.6036771  72.3522597  69.3670245 110.5169149  70.3863679  76.1339487
 110.9923270  70.5791325  75.3258338 109.5934714  70.4422864  75.8882870
  97.4052655  71.5487846  65.7170565  97.1598697  70.6450176  65.9150775
  97.5748570  71.5504996  64.7750043 105.0949365  62.4211522  75.0995321
 105.6131309  63.1572549  74.7741809 104.7404498  62.7275515  75.9342080
  96.6748303  67.2816203  63.2156726  95.9817548  67.3560558  62.5596762
  96.4300055  66.5176547  63.7378243 105.3461959  58.8411805  70.6196217
 105.6263713  58.1734994  71.2456644 106.1312566  59.0340900  70.1070881
 103.1495428  78.0170799  62.1821243 102.5769395  78.6360986  61.7291715
 103.7228221  78.5670160  62.7161165 109.2170818  67.2629439  74.3667792
 110.1688240  67.3627536  74.3880016 109.0474268  66.4707707  74.8765877
 107.2385197  64.3485022  74.5527193 106.6435129  64.6290035  73.8573682
 106.9534894  64.8378923  75.3243934 106.3692688  78.3007949  63.3129826
 107.3023361  78.2353510  63.5162701 106.2815900  79.1364216  62.8544358
 108.9980704  77.6173819  60.2733773 108.9194336  77.2833683  61.1669531
 109.8190371  78.1095587  60.2725246 111.6958895  70.4835558  73.4810092
 111.6635215  69.5451559  73.6669776 112.3059519  70.5619595  72.7475917
 103.5342226  69.3531611  59.5237296 104.4801331  69.2237819  59.5925714
 103.1556471  68.6146273  60.0006724 111.8453384  67.2746602  73.5268375
 111.3292432  66.4905058  73.3398304 112.7293332  66.9465318  73.6914895
 109.5064111  61.0187617  69.4864188 109.3088932  60.7102706  70.3707520
 110.1163816  61.7449256  69.6162118 117.5135445  71.5451565  72.6216129
 118.2438834  71.2836853  73.1823832 116.9042391  70.8080287  72.6618197
 115.5950742  69.6859428  73.2190580 114.8683906  69.5515393  72.6107072
 115.1798029  69.9936256  74.0247298 103.4180919  73.4049357  80.9837953
 104.3383928  73.5827956  81.1777999 103.3830502  72.4605403  80.8317652
 101.7185143  67.2781588  59.4592181 100.8116599  66.9814700  59.5354895
 101.9961124  66.9811406  58.5926467  92.6363084  68.5987951  69.9091228
  92.3165868  67.7453259  69.6165602  92.0896512  68.8136529  70.6649195
  96.4142991  71.3150392  73.6260734  96.6329001  72.2467500  73.6448768
  96.8268765  70.9558366  74.4115538 103.3347209  61.8218477  65.6136423
 102.5247937  61.4765562  65.9891669 104.0231626  61.5126021  66.2024034
 105.2637757  60.8996524  67.2360719 105.8168796  61.3191978  67.8950742
 105.5007844  59.9732272  67.2783675 101.2870857  66.8883598  83.0163483
 101.1867584  67.8377955  82.9475574 101.0692399  66.5601837  82.1439553
 100.4883928  64.1368523  59.6004160 101.3503092  64.4623421  59.8599978
 100.6734272  63.3500019  59.0877226  92.5051344  72.2190863  71.8784349
  91.8114815  71.8044815  71.3654304  93.2524335  72.2611399  71.2817768
 108.6416564  63.0097049  66.7439383 108.0615234  63.6681853  66.3617436
 108.3752497  62.1874394  66.3326801 107.0920131  62.4102107  68.9460704
 107.5919909  62.5218642  68.1375023 107.7355739  62.1063160  69.5861512
 101.1502127  70.3180737  81.8328545 100.6669208  71.1181097  82.0392434
 101.2363066  70.3288682  80.8795989  94.4188086  72.1509116  69.7550364
  94.3958774  72.2496804  68.8032247  94.7288723  72.9974267  70.0767530
  97.0775464  74.2085271  73.8696978  98.0318718  74.1769214  73.8026910
  96.8787988  73.7475895  74.6847204  97.6674846  72.7786387  76.4367776
  98.4867735  73.2730466  76.4602613  97.9411654  71.8618356  76.4085344
 107.4241442  65.1697140  65.7995732 106.5367298  65.4546790  65.5815926
 107.8395432  65.0090903  64.9523009 110.7755979  65.1943661  69.5150071
 111.5516369  65.6840113  69.7874688 110.0504113  65.6201715  69.9721940
 113.2128537  65.9071280  70.5724012 113.8073028  65.6667016  69.8617320
 113.2855121  65.1878411  71.1997548 106.5684656  74.9341814  59.8943752
 107.2720506  75.1391817  60.5101407 105.8447305  75.5018576  60.1592835
 107.3982466  70.6851676  66.0146022 107.3417668  71.1420227  65.1753654
 107.9510809  69.9242360  65.8368865 111.2087272  66.4741408  66.8396141
 110.9524206  66.0738043  67.6704349 110.5840140  67.1885201  66.7146280
 115.5199610  69.2137481  69.3467433 114.9599168  69.2830670  70.1198995
 114.9143113  69.0378465  68.6266929  98.5894819  80.6474208  71.0985619
  98.4727203  81.5919640  70.9964309  97.7687265  80.3447769  71.4871418
 108.4771353  75.3724344  61.9442212 109.3116957  74.9405542  61.7619686
 108.3155696  75.2006357  62.8719106 108.1317246  71.8756457  63.3098551
 108.0766049  71.7100728  62.3686995 107.5063301  72.5832490  63.4660741
 105.4463153  74.1805369  82.6352114 106.3154312  74.3546021  82.2738749
 104.9669904  74.9999786  82.5127843 101.4413371  61.3764566  62.8883869
 101.4292041  62.3206406  63.0452140 102.3336793  61.1934711  62.5943331
  99.6149333  81.3002470  74.3141547 100.5176580  81.3326080  74.6308042
  99.3886703  80.3702921  74.3287883 101.3702935  80.0533456  70.9751626
 100.4198566  80.0535318  70.8615998 101.6735421  79.3066191  70.4587661
 105.2565490  57.9707343  67.1429806 104.4897886  57.4165829  67.2886489
 105.6676195  58.0429211  68.0043958 117.1055628  85.8893995  72.0397388
 117.7434038  85.7700742  71.3360729 116.9876471  86.8374839  72.0985341
 113.9145335  85.8421423  71.9758913 113.5763846  85.7262488  71.0879448
 114.7835103  85.4412588  71.9559919 109.7732150  87.6956899  67.9655804
 109.2097016  87.6046836  67.1972092 109.6584545  86.8756804  68.4458297
 114.3965118  86.9956275  77.9345119 114.3853759  86.6009073  77.0625622
 114.5585757  86.2622347  78.5278890 107.3196582  89.1908091  70.8040025
 108.1117874  88.8498915  70.3886324 107.5593233  89.3003066  71.7242178
 115.3531709  91.3627867  63.2770269 114.7019689  91.9481947  62.8904283
 116.1476072  91.8934062  63.3365306 109.2787336  88.4517004  63.6757403
 110.0518212  87.9045991  63.5370279 109.6312735  89.3161253  63.8871865
 111.1172379  89.7793386  76.8824303 110.8262245  90.6839017  76.7670969
 111.7529363  89.8209914  77.5968372 112.0428586  87.1570235  73.4725662
 112.6392158  86.9326257  72.7582625 112.1003557  86.4154980  74.0751110
 111.6153614  84.6109670  61.3075853 111.8679135  84.0891191  60.5459316
 110.6778173  84.4475816  61.4102537 116.6596897  83.6145449  69.1150596
 117.4459986  83.1964872  68.7641014 116.9235601  84.5191541  69.2832245
 116.8306974  89.0518299  63.8139253 116.1952807  89.1252925  64.5260158
 116.5004381  89.6411898  63.1358333 122.0605324  83.5520682  70.0183575
 122.7930496  82.9819899  70.2521404 121.3044680  83.1642282  70.4590081
 111.3349903  86.5137776  63.5100228 111.2186161  85.8382680  64.1781313
 111.4452163  86.0270150  62.6932381 113.6781444  85.9747923  67.2146917
 113.3139651  85.4478544  67.9259839 114.5348560  85.5846392  67.0413403
 119.5830744  77.2642256  74.4778184 119.2514069  78.1337667  74.2539399
 118.9876358  76.9478540  75.1572214 113.3186931  81.0037823  62.2108266
 113.4861333  81.8718059  62.5778737 113.1284100  81.1665105  61.2869555
 116.0762264  89.4654802  73.8774096 115.7762987  90.3679841  73.7689904
 115.7313323  89.1986985  74.7295249 109.5274745  85.9168599  69.9110801
 108.6025242  85.7844813  70.1188493 109.7759159  86.6962818  70.4080743
 119.4759408  81.9837342  71.5571534 118.5676285  81.9152750  71.2630295
 119.4247004  82.4609287  72.3853359 113.2976152  83.4595480  63.1954933
 113.1775777  83.9052531  64.0340413 112.6028740  83.8080798  62.6368471
 106.8883556  85.5601872  70.7454590 107.0175938  85.8136351  71.6594002
 106.2081008  86.1529580  70.4259245 111.0583044  96.2299122  66.8445064
 110.9807073  97.1806947  66.9233545 110.4544687  95.8844995  67.5019990
 113.5500274  83.4026988  79.5006431 112.7733608  83.9620908  79.4909296
 114.1890837  83.8883771  80.0221301 121.3421054  80.1853780  73.3349408
 120.6995434  80.4786314  72.6889202 120.8375983  80.0706701  74.1402604
 118.9961218  83.9316954  64.0235267 119.9079074  84.1644340  63.8482964
 118.4870865  84.5153998  63.4610345 111.8046646  86.2112441  79.0624398
 112.5461330  86.7497485  78.7859222 111.0983631  86.8378730  79.2195950
 117.2801985  88.3541581  77.6596559 117.6885342  87.9123992  76.9151192
 116.5579247  87.7794209  77.9130752 113.6333056  83.2914188  75.0330116
 114.4794251  83.7153602  75.1764765 113.5731693  82.6347813  75.7268679
 117.6030800  88.9142772  71.4148848 116.9739663  89.0788486  70.7124916
 117.2156462  89.3284382  72.1859812 121.4820032  89.8497210  68.7693212
 120.7971070  90.2296111  68.2190245 121.5663881  90.4592537  69.5025160
 116.7832501  80.9518557  76.6911290 116.5393433  81.7060617  76.1545566
 117.0592431  81.3303904  77.5258537 118.7370964  87.4957169  75.3688556
 118.9487859  88.1388929  74.6922937 118.6900712  86.6619486  74.9010486
 116.3397193  80.1074990  72.2725128 115.4781672  80.4056243  72.5641865
 116.3659627  80.3245389  71.3406160 113.1558762  88.6517180  68.6798933
 113.6197108  88.9304883  67.8903556 112.8915560  87.7500625  68.4972024
 110.0482843  88.1988662  71.6178697 110.6184200  88.6275930  70.9796181
 110.6390955  87.9171246  72.3162882 112.0927648  84.7740333  65.4888499
 112.7951691  85.2261376  65.9562425 111.7608277  84.1324151  66.1168392
 110.5408010  83.3652089  79.8639708 109.9106670  84.0468370  80.0975105
 110.4344097  83.2535171  78.9192846 105.8352982  83.0323885  70.7905632
 105.0452036  83.2881414  70.3145743 106.3264229  83.8472223  70.8957673
 119.8516792  90.3729124  73.5410913 120.6734235  89.9709312  73.2593595
 119.8479194  90.2697359  74.4927029 107.7867727  83.3968464  67.7489109
 106.9898891  83.5087159  68.2672604 107.5593320  83.7355117  66.8829999
 113.6173395  89.9213168  75.6971623 113.6817828  90.3833575  76.5329795
 112.9084319  89.2910533  75.8253933 104.1190685  83.2854376  73.2220623
 104.3698723  84.1701386  73.4878199 104.6550233  83.1058977  72.4495715
 127.9422785  86.7167873  69.8895884 127.1886493  86.1475271  69.7339889
 128.0770326  86.6830537  70.8366519 113.3321413  91.5881275  65.5650604
 113.1967087  92.4332811  65.9935452 113.8731225  91.7900553  64.8016538
 109.8188752  77.6672855  82.2264959 109.4255698  77.1139054  82.9012603
 110.6354893  77.9783434  82.6171477 106.7850810  89.1056713  66.1378529
 107.2975331  89.8999963  66.2884094 107.4373523  88.4083004  66.0712130
 108.5945695  92.2222470  68.2201282 108.7712323  93.1440434  68.0322266
 109.3902528  91.9080889  68.6495662 112.7356713  79.0830734  79.8185216
 113.4766427  79.6837887  79.7389678 112.9674636  78.3408372  79.2603258
 107.8798051  84.2687101  78.0963445 107.7651566  83.3672359  78.3970544
 107.0242569  84.5150798  77.7448262 114.9589889  92.2104842  79.6950946
 114.5153743  91.4241220  79.3771850 115.6207103  92.3983992  79.0294837
 109.7177010  93.7400643  74.2211624 110.2684435  93.6117707  73.4488618
 108.8788486  94.0395532  73.8706517 117.0571127  92.4907642  77.7232347
 117.0389602  93.3116523  77.2312616 117.9791047  92.3661717  77.9482488
 113.5144181  90.0051771  78.5655855 114.0472518  89.2440059  78.3355163
 112.9858262  89.7125423  79.3080010 116.6813876  75.1111837  74.0949497
 116.3378146  76.0013479  74.0188608 117.0492839  74.9213495  73.2319082
 104.7499727  87.4345368  66.9138099 105.5874949  87.8442376  66.6971807
 104.9277995  86.4944810  66.8838293 116.6464159  85.1020448  62.6021932
 116.1310782  85.8725053  62.8410320 116.3741467  84.4285584  63.2254994
 114.2311270  79.9470149  67.6607171 113.3752866  79.5576999  67.4812809
 114.6438222  80.0262110  66.8006956 115.7610417  77.4816492  72.0598730
 115.2575212  77.4446627  71.2466536 116.0541023  78.3909235  72.1195387
 112.0053303  77.5655222  71.0664912 112.8706299  77.3698031  70.7070802
 112.0730811  77.3365574  71.9934269 121.6198433  87.8552803  64.5375106
 120.8427876  87.5163962  64.0930268 122.2989914  87.8605426  63.8630071
 116.4350462  82.9747540  64.4281714 116.1300598  83.2893689  65.2791857
 117.3880904  83.0528960  64.4709046 114.8796894  89.1337764  66.0774667
 114.3518256  88.3990523  65.7647905 114.3784397  89.9112440  65.8314636
 119.8589740  87.3286784  71.1941714 119.2013414  88.0186045  71.2821842
 120.6630139  87.7183216  71.5375700 109.6115622  79.7957430  68.4381279
 110.1859373  79.5732611  67.7054472 110.1986604  79.8646124  69.1909880
 118.6695199  85.6831157  69.2445656 119.1827081  86.3161149  69.7467365
 119.3196423  85.0832352  68.8789016 109.9385209  81.8261891  62.4577164
 109.1022521  82.1636577  62.7786439 109.7989978  81.6910871  61.5204301
 111.9138289  76.6698679  67.1656348 111.2602702  76.3547696  66.5412963
 111.8718763  76.0474419  67.8916171 113.0249494  86.9517974  59.0809641
 112.1176556  86.7207227  59.2800789 113.5220526  86.1555593  59.2683622
 115.9317573  95.6615481  62.0006327 115.2579272  95.9647178  62.6091285
 116.3183395  96.4644561  61.6511784 115.1476030  83.1580612  71.4903996
 114.2298591  83.3795559  71.3325684 115.5636173  83.2326923  70.6315703
 115.9311077  84.5572028  66.6206676 116.6782896  85.0693425  66.3113798
 116.2002667  84.2356081  67.4811070 114.2037728  87.0530569  63.6033631
 113.2948947  86.7689602  63.7006100 114.2332811  87.4729647  62.7436937
 119.4356995  90.6637158  67.3724798 118.9819322  89.8228068  67.4289989
 118.8050962  91.2998557  67.7099578 118.3789915  81.5929144  68.6025466
 117.6412671  81.0806530  68.9335708 118.6316688  81.1529526  67.7908742
 117.8789934  92.5013655  68.3074616 118.1712909  93.0618712  67.5886982
 118.3888555  92.7942216  69.0627775 118.4801542  74.3705396  69.1967235
 118.7860419  73.5102760  68.9093150 119.2054147  74.9623016  68.9966229
 104.7725898  84.7736083  67.5848833 104.5750298  84.1805444  66.8599899
 104.2172562  84.4688293  68.3024772 112.7522622  84.6659189  69.7043426
 112.8071231  83.7133026  69.6285903 111.9413824  84.8218628  70.1884724
 113.9013815  88.5939312  60.9421709 113.4633245  87.8775171  60.4827347
 114.6424256  88.8215427  60.3806801 110.6914982  83.2836249  67.4633805
 109.8782847  83.5830420  67.8698997 111.1873976  82.8891938  68.1808287
 112.8423559  93.2794006  69.3968070 112.7999738  93.5054852  68.4676602
 113.7586258  93.0457381  69.5453871 116.2889193  83.7478074  76.2948699
 116.6438581  83.9749547  77.1543164 116.9361324  84.0796450  75.6725954
 122.0186930  86.8696509  66.9998028 121.8804829  87.0598105  66.0719217
 121.6623149  87.6315892  67.4566079 110.1829056  80.8554605  73.0795040
 110.8228436  80.7143364  72.3818003 109.3506587  80.5689118  72.7033642
 122.0456310  88.9373036  72.0109299 122.4792816  88.8448326  72.8592353
 122.7587890  88.9130537  71.3729315 110.9589360  90.1557035  69.1930032
 111.7529959  89.6607355  68.9912607 110.2481053  89.6274898  68.8297738
 115.7784205  92.5375131  73.5442400 115.8321227  93.1066067  74.3120116
 114.9098986  92.7077016  73.1796437 107.2672124  84.3000117  65.2689785
 106.3369712  84.2384572  65.4859747 107.3629596  83.7776070  64.4726426
 107.1857673  80.8254930  67.8568027 107.4464490  81.7400263  67.7477187
 108.0074845  80.3579372  68.0064639 108.6582598  82.2392687  75.0266851
 109.3305651  82.0310049  74.3779500 107.8312385  82.0414773  74.5872083
 122.9071859  88.9796737  74.5442185 123.1007749  89.8842548  74.7901460
 122.8072478  88.5204156  75.3780770 114.5608170  78.8654628  77.0432512
 113.9136085  79.5644577  76.9496988 115.3309185  79.2990772  77.4108760
 117.9686968  89.1303480  80.1183065 117.8172474  88.9014032  79.2013149
 117.9591647  90.0874081  80.1314410 114.7372304  86.7035393  75.1029332
 115.6664364  86.8546552  74.9298299 114.3163334  86.7919413  74.2477978
 113.5360636  90.7286057  72.8727869 113.3971722  90.3604841  73.7453807
 112.7475232  91.2433696  72.7011827 114.1308788  95.8295153  64.2153406
 114.3060544  95.3583197  65.0299029 113.4441576  96.4560920  64.4434667
 115.0865851  90.1067660  70.2616707 114.7515684  90.0668430  71.1574357
 114.5869797  89.4412376  69.7887117 109.0610095  85.5135290  75.7869288
 108.9229893  84.7815529  76.3880827 109.9715019  85.4244190  75.5053476
 118.0225043  87.4523694  60.5353767 117.4054214  86.7270522  60.4386819
 117.5541531  88.2133054  60.1920841 111.6892396  85.2255249  75.2752968
 112.3992015  84.5848441  75.2339586 111.6461704  85.4768144  76.1979149
 119.6779175  92.1622602  78.1959547 119.6191721  91.4781823  77.5290130
 120.0798693  92.9041592  77.7440173 110.4021330  82.2120467  77.0948607
 109.8658687  81.7611205  77.7470204 109.8138038  82.3466376  76.3519072
 108.6969873  98.9784516  70.9893266 108.9366472  99.6103040  71.6672285
 107.8539070  98.6272556  71.2758625 109.8123589  81.6709118  59.6575071
 108.9353055  81.5497919  59.2937318 110.2881342  80.8795197  59.4053960
 119.6796582  90.1262186  76.4273527 118.7923361  89.7888108  76.5499926
 120.2495133  89.3945218  76.6642292 101.3325729  86.4586278  69.7516578
 102.0196769  86.1448008  69.1637594 101.1773858  87.3627643  69.4783830
 106.1360451  81.3476475  74.1801602 106.0518640  80.7402144  73.4452012
 105.3143158  81.8385493  74.1811098 113.2097735  94.7863639  73.3934770
 113.1367907  95.5918610  73.9054075 112.7675128  94.9855604  72.5682791
 112.9987515  94.0235409  66.9037592 112.2155037  94.5657089  66.9975816
 113.6980260  94.5409388  67.3031833 116.3084165  79.8330038  69.5471797
 116.8052865  79.0800000  69.2272867 115.5371147  79.8694355  68.9815006
 124.1613922  85.5370404  71.1890088 124.1503799  86.4195119  70.8184022
 123.2931302  85.1841955  70.9944626 115.6696419  94.6850473  75.5492929
 116.3824391  95.3197938  75.4768830 115.1786447  94.7814339  74.7332931
 117.3913946  88.5901725  67.1210220 116.4570224  88.7103188  66.9514925
 117.5690614  87.6874192  66.8570230 112.8919134  81.9747421  69.2743482
 112.5216921  81.4218462  69.9624387 113.3878226  81.3705555  68.7218482
 120.7786497  84.4319045  67.6560254 121.2446949  85.2647036  67.5820557
 121.2293998  83.9664026  68.3605513 110.7208332  92.4344916  76.3698500
 111.4217792  93.0681399  76.5227894 110.2503447  92.7759648  75.6094139
 118.8462728  90.7762866  64.6546407 119.1222572  90.6619461  65.5640281
 117.9767227  90.3780351  64.6158580 118.7503160  76.7999632  71.6951156
 117.8366240  77.0303858  71.8633363 119.1796261  76.8838076  72.5465188
 118.5209618  84.9889524  74.1951050 117.8681069  85.2365431  73.5403503
 118.8989998  84.1753662  73.8613527 115.4816792  95.0249217  68.2979220
 115.6639187  94.2070873  68.7606972 116.3049778  95.2416909  67.8604110
 115.8158958  93.9517402  65.5594269 116.3446724  93.4409857  64.9464431
 116.0787177  93.6359932  66.4239802 114.5697191  85.7309335  80.6817087
 113.8937828  85.6303464  81.3519462 115.3924825  85.5748548  81.1453084
 106.3176050  91.9681271  73.3029602 106.9029487  91.2224959  73.4357506
 106.1200889  92.2785228  74.1866266 109.1714706  95.0032519  68.3192045
 108.5025081  95.4878646  67.8356085 109.0327575  95.2501739  69.2335423
 100.9093705  84.5386871  72.0234045 100.9477805  84.0050462  72.8171163
 100.4033998  84.0122077  71.4045023 113.3119974  97.0376262  74.9174703
 113.8638282  97.2007884  75.6823788 113.6526168  97.6280700  74.2454728
 108.2884467  79.3851412  75.5196588 108.3525794  80.2466243  75.1073985
 108.2251588  78.7725414  74.7868946 107.7636740  81.4574544  79.1669622
 108.3908779  81.0751622  79.7807146 106.9064659  81.2388746  79.5325314
 118.1630849  91.8637520  80.7723357 118.7070753  92.4767478  80.2778312
 117.5817693  92.4217098  81.2890370 104.5402283  83.2650974  65.0987977
 104.8355724  82.3561652  65.0455030 103.6390319  83.2438713  64.7768979
 116.4488362  94.9858238  71.9038385 116.3239501  94.1847977  71.3949331
 117.1067453  95.4804431  71.4152355 108.0696530  81.3406970  71.0815525
 107.3483116  81.9542938  70.9422999 108.8589786  81.8764735  71.0032171
 118.5123270  92.7867258  73.5317935 117.5653605  92.6672609  73.4596262
 118.8606043  91.8989756  73.6144197 110.8722843  78.6761397  77.3556177
 111.3957245  78.9223693  78.1182486 110.6535177  79.5081431  76.9359314
 106.2690124  80.9465071  65.2227302 105.9402831  80.0662450  65.0402408
 106.6229495  80.8912740  66.1103691 115.5169703  92.5819974  69.7322287
 115.3694666  91.6536681  69.9129857 116.3423197  92.6040065  69.2479363
 109.3831948  81.2338041  65.5902780 109.7228020  81.7623962  64.8681388
 109.8304068  81.5718447  66.3661346 119.1203825  93.4048533  70.8187160
 120.0450373  93.1991394  70.6811611 118.9519128  93.1564934  71.7276502
 112.0775388  79.6175092  75.0405848 111.7372209  78.8182905  75.4426527
 111.3714395  79.9176803  74.4682681 112.7291860  76.7024404  73.4933171
 113.5517929  76.2284882  73.3712061 112.9729924  77.4814888  73.9931857
 111.3700095  79.7312663  63.7896072 112.0908457  80.1093915  63.2859789
 110.7465399  80.4501539  63.8931050 115.5131218  80.4357812  64.7254405
 115.7294832  81.3182449  64.4243233 115.0325285  80.0444025  63.9960047
 110.2530439  83.3943525  71.3025149 110.1075020  83.7083828  72.1949431
 109.7755643  84.0128425  70.7496048 112.1126822  80.3846073  71.3506039
 112.0988391  79.4887166  71.0138337 112.8299250  80.3916737  71.9844325
 113.9652953  80.8183413  73.3959166 113.7070730  81.7400484  73.3943497
 113.4337993  80.4213848  74.0859630 118.9099141  93.9234200  66.1749252
 119.0836019  93.3580623  65.4223104 119.4028033  94.7235095  65.9928742
 104.7276101  85.9348869  74.2412810 104.1829569  86.7108677  74.3733085
 105.6055451  86.2819674  74.0831932 111.5163718  79.2660453  66.6193609
 111.6379629  78.3377099  66.8184496 111.2265760  79.2799139  65.7071924
 114.3854908  76.9515364  69.7560329 114.4076605  77.0154697  68.8012308
 114.8022967  76.1119872  69.9500835 124.7638532  86.6870623  67.7939551
 125.2069678  85.9377948  67.3958675 123.8865043  86.6780759  67.4113283
 119.8974314  93.2400965  63.2746150 120.5925218  93.8607657  63.4933465
 120.2397464  92.3896316  63.5498528 105.5142123  85.0618765  77.1342967
 104.7723859  85.2101401  77.7207598 105.1934867  85.3227031  76.2709717
 121.7965737  90.6900670  64.8033481 122.3217061  91.0287943  64.0782801
 121.7088089  89.7547685  64.6196615 113.4585786  94.6034744  76.9323357
 113.7672912  94.3583890  77.8046057 114.2561268  94.8081382  76.4442228
 113.4806398  96.7572653  69.1628734 113.0411388  96.2649032  69.8561591
 114.2314515  96.2145621  68.9220809 105.9598737  92.9484194  69.1653362
 106.7856757  92.6487966  68.7852005 105.6092789  92.1791817  69.6143151
 110.9280270  92.3010662  71.2351036 110.3060279  91.6381367  70.9353263
 111.5985137  92.3271794  70.5524683 104.1607342  90.8670521  70.1242296
 103.3239250  90.4392695  69.9426297 104.1330987  91.0602964  71.0613087
 111.0004797  80.7792450  80.8283542 111.0492953  81.6554573  80.4461311
 111.5427311  80.2369844  80.2555185 121.4859643  91.3233574  80.1084679
 120.6955187  91.3057713  79.5689178 121.2492998  91.8621867  80.8633715
 121.6057518  88.1726040  77.4217407 121.6555523  88.0076048  78.3632930
 121.4971441  87.3053299  77.0315288 110.4893777  90.8514586  64.7109496
 110.6381897  91.5350050  64.0576169 111.2960220  90.8319676  65.2258952
 118.8961280  84.1556968  78.7376714 119.7971143  84.0163433  78.4460712
 118.9709255  84.3211423  79.6774891 113.2304086  81.5323823  77.5829900
 112.3607395  81.8257389  77.3112489 113.4663566  82.1164268  78.3037164
 123.1075715  90.5922982  77.6659429 122.8160523  90.9552962  78.5022890
 122.4947846  89.8789990  77.4872761 124.3071397  88.1575861  70.1861999
 125.1418289  88.5965665  70.3499559 124.4430526  87.6814515  69.3670245
 121.3562903  85.7155596  76.1339487 121.8317025  85.9083243  75.3258338
 120.4328468  85.7714782  75.8882870 108.2446410  86.8779763  65.7170565
 107.9992452  85.9742093  65.9150775 108.4142324  86.8796914  64.7750043
 115.9343120  77.7503440  75.0995321 116.4525063  78.4864467  74.7741809
 115.5798252  78.0567433  75.9342080 107.5142057  82.6108121  63.2156726
 106.8211302  82.6852476  62.5596762 107.2693809  81.8468465  63.7378243
 116.1855714  74.1703722  70.6196217 116.4657467  73.5026911  71.2456644
 116.9706321  74.3632818  70.1070881 113.9889182  93.3462716  62.1821243
 113.4163149  93.9652903  61.7291715 114.5621976  93.8962078  62.7161165
 120.0564572  82.5921356  74.3667792 121.0081995  82.6919454  74.3880016
 119.8868022  81.7999625  74.8765877 118.0778952  79.6776940  74.5527193
 117.4828884  79.9581952  73.8573682 117.7928648  80.1670840  75.3243934
 117.2086442  93.6299866  63.3129826 118.1417115  93.5645428  63.5162701
 117.1209655  94.4656133  62.8544358 119.8374459  92.9465737  60.2733773
 119.7588090  92.6125600  61.1669531 120.6584125  93.4387505  60.2725246
 122.5352650  85.8127476  73.4810092 122.5028970  84.8743477  73.6669776
 123.1453274  85.8911513  72.7475917 114.3735981  84.6823529  59.5237296
 115.3195085  84.5529737  59.5925714 113.9950226  83.9438191  60.0006724
 122.6847138  82.6038519  73.5268375 122.1686187  81.8196976  73.3398304
 123.5687087  82.2757236  73.6914895 120.3457865  76.3479535  69.4864188
 120.1482686  76.0394623  70.3707520 120.9557571  77.0741174  69.6162118
 128.3529200  86.8743483  72.6216129 129.0832588  86.6128771  73.1823832
 127.7436145  86.1372205  72.6618197 126.4344497  85.0151345  73.2190580
 125.7077660  84.8807310  72.6107072 126.0191784  85.3228174  74.0247298
 114.2574673  88.7341275  80.9837953 115.1777683  88.9119874  81.1777999
 114.2224256  87.7897320  80.8317652 112.5578898  82.6073505  59.4592181
 111.6510353  82.3106618  59.5354895 112.8354879  82.3103323  58.5926467
 103.4756838  83.9279869  69.9091228 103.1559623  83.0745177  69.6165602
 102.9290266  84.1428447  70.6649195 107.2536746  86.6442310  73.6260734
 107.4722756  87.5759418  73.6448768 107.6662520  86.2850284  74.4115538
 114.1740964  77.1510395  65.6136423 113.3641692  76.8057480  65.9891669
 114.8625381  76.8417939  66.2024034 116.1031512  76.2288442  67.2360719
 116.6562550  76.6483895  67.8950742 116.3401598  75.3024190  67.2783675
 112.1264611  82.2175516  83.0163483 112.0261338  83.1669872  82.9475574
 111.9086153  81.8893754  82.1439553 111.3277682  79.4660441  59.6004160
 112.1896846  79.7915339  59.8599978 111.5128027  78.6791936  59.0877226
 103.3445098  87.5482780  71.8784349 102.6508570  87.1336733  71.3654304
 104.0918089  87.5903317  71.2817768 119.4810319  78.3388967  66.7439383
 118.9008988  78.9973771  66.3617436 119.2146252  77.5166312  66.3326801
 117.9313885  77.7394025  68.9460704 118.4313664  77.8510559  68.1375023
 118.5749493  77.4355078  69.5861512 111.9895881  85.6472654  81.8328545
 111.5062963  86.4473014  82.0392434 112.0756820  85.6580599  80.8795989
 105.2581841  87.4801034  69.7550364 105.2352529  87.5788721  68.8032247
 105.5682477  88.3266185  70.0767530 107.9169219  89.5377189  73.8696978
 108.8712472  89.5061131  73.8026910 107.7181742  89.0767813  74.6847204
 108.5068601  88.1078305  76.4367776 109.3261490  88.6022384  76.4602613
 108.7805408  87.1910273  76.4085344 118.2635197  80.4989057  65.7995732
 117.3761052  80.7838708  65.5815926 118.6789186  80.3382821  64.9523009
 121.6149733  80.5235578  69.5150071 122.3910123  81.0132031  69.7874688
 120.8897867  80.9493633  69.9721940 124.0522292  81.2363198  70.5724012
 124.6466783  80.9958934  69.8617320 124.1248875  80.5170328  71.1997548
 106.2719447  95.0796809  70.8867176 106.1373915  94.3197209  70.3205174
 105.8551510  95.8037708  70.4195965 117.4078410  90.2633732  59.8943752
 118.1114261  90.4683735  60.5101407 116.6841059  90.8310494  60.1592835
 118.2376221  86.0143593  66.0146022 118.1811422  86.4712145  65.1753654
 118.7904563  85.2534278  65.8368865 122.0481027  81.8033325  66.8396141
 121.7917961  81.4029961  67.6704349 121.4233895  82.5177119  66.7146280
 126.3593365  84.5429398  69.3467433 125.7992922  84.6122588  70.1198995
 125.7536868  84.3670383  68.6266929 109.4288573  95.9766126  71.0985619
 109.3120957  96.9211558  70.9964309 108.6081020  95.6739687  71.4871418
 119.3165108  90.7016261  61.9442212 120.1510712  90.2697460  61.7619686
 119.1549451  90.5298275  62.8719106 118.9711000  87.2048375  63.3098551
 118.9159804  87.0392646  62.3686995 118.3457055  87.9124408  63.4660741
 103.7603515  82.4416439  77.1359973 104.4062379  81.9315393  77.6247198
 103.5520666  83.1785121  77.7103398 116.2856907  89.5097286  82.6352114
 117.1548067  89.6837939  82.2738749 115.8063659  90.3291703  82.5127843
 112.2807126  76.7056484  62.8883869 112.2685795  77.6498324  63.0452140
 113.1730547  76.5226629  62.5943331 110.4543087  96.6294387  74.3141547
 111.3570334  96.6617998  74.6308042 110.2280458  95.6994838  74.3287883
 112.2096689  95.3825374  70.9751626 111.2592320  95.3827236  70.8615998
 112.5129176  94.6358109  70.4587661 116.0959245  73.2999260  67.1429806
 115.3291641  72.7457747  67.2886489 116.5069950  73.3721129  68.0043958
 108.1001006  79.5884056  81.2334987 108.9632468  79.2320861  81.4438312
 107.5266417  79.2497951  81.9210392 127.9449383 101.2185912  72.0397388
 128.5827793 101.0992660  71.3360729 127.8270226 102.1666756  72.0985341
 124.7539089 101.1713341  71.9758913 124.4157601 101.0554405  71.0879448
 125.6228857 100.7704506  71.9559919 120.6125905 103.0248817  67.9655804
 120.0490770 102.9338754  67.1972092 120.4978300 102.2048721  68.4458297
 125.2358872 102.3248192  77.9345119 125.2247513 101.9300991  77.0625622
 125.3979512 101.5914265  78.5278890 118.1590337 104.5200009  70.8040025
 118.9511629 104.1790833  70.3886324 118.3986987 104.6294984  71.7242178
 126.1925464 106.6919785  63.2770269 125.5413443 107.2773865  62.8904283
 126.9869826 107.2225980  63.3365306 120.1181091 103.7808922  63.6757403
 120.8911967 103.2337909  63.5370279 120.4706490 104.6453171  63.8871865
 121.9566133 105.1085304  76.8824303 121.6655999 106.0130935  76.7670969
 122.5923118 105.1501832  77.5968372 122.8822340 102.4862153  73.4725662
 123.4785912 102.2618175  72.7582625 122.9397312 101.7446898  74.0751110
 122.4547369  99.9401588  61.3075853 122.7072889  99.4183109  60.5459316
 121.5171928  99.7767733  61.4102537 127.4990651  98.9437366  69.1150596
 128.2853741  98.5256789  68.7641014 127.7629356  99.8483458  69.2832245
 127.6700729 104.3810217  63.8139253 127.0346562 104.4544843  64.5260158
 127.3398135 104.9703815  63.1358333 132.8999079  98.8812599  70.0183575
 133.6324251  98.3111816  70.2521404 132.1438434  98.4934200  70.4590081
 122.1743657 101.8429694  63.5100228 122.0579915 101.1674597  64.1781313
 122.2845917 101.3562068  62.6932381 124.5175198 101.3039841  67.2146917
 124.1533406 100.7770462  67.9259839 125.3742314 100.9138310  67.0413403
 130.4224499  92.5934174  74.4778184 130.0907824  93.4629585  74.2539399
 129.8270112  92.2770458  75.1572214 124.1580685  96.3329741  62.2108266
 124.3255088  97.2009977  62.5778737 123.9677854  96.4957022  61.2869555
 126.9156018 104.7946720  73.8774096 126.6156742 105.6971758  73.7689904
 126.5707078 104.5278903  74.7295249 120.3668500 101.2460516  69.9110801
 119.4418996 101.1136731  70.1188493 120.6152913 102.0254736  70.4080743
 130.3153162  97.3129260  71.5571534 129.4070040  97.2444668  71.2630295
 130.2640758  97.7901205  72.3853359 124.1369906  98.7887398  63.1954933
 124.0169531  99.2344449  64.0340413 123.4422495  99.1372716  62.6368471
 117.7277311 100.8893790  70.7454590 117.8569692 101.1428269  71.6594002
 117.0474762 101.4821498  70.4259245 121.8976798 111.5591040  66.8445064
 121.8200828 112.5098865  66.9233545 121.2938442 111.2136912  67.5019990
 124.3894028  98.7318905  79.5006431 123.6127362  99.2912825  79.4909296
 125.0284591  99.2175688  80.0221301 132.1814809  95.5145698  73.3349408
 131.5389189  95.8078231  72.6889202 131.6769737  95.3998618  74.1402604
 129.8354972  99.2608871  64.0235267 130.7472828  99.4936258  63.8482964
 129.3264619  99.8445916  63.4610345 122.6440400 101.5404359  79.0624398
 123.3855085 102.0789403  78.7859222 121.9377386 102.1670647  79.2195950
 128.1195740 103.6833499  77.6596559 128.5279096 103.2415910  76.9151192
 127.3973001 103.1086127  77.9130752 124.4726810  98.6206106  75.0330116
 125.3188005  99.0445519  75.1764765 124.4125448  97.9639730  75.7268679
 128.4424555 104.2434690  71.4148848 127.8133417 104.4080404  70.7124916
 128.0550217 104.6576299  72.1859812 132.3213787 105.1789128  68.7693212
 131.6364825 105.5588029  68.2190245 132.4057636 105.7884454  69.5025160
 127.6226255  96.2810474  76.6911290 127.3787187  97.0352535  76.1545566
 127.8986186  96.6595822  77.5258537 129.5764718 102.8249087  75.3688556
 129.7881613 103.4680847  74.6922937 129.5294466 101.9911403  74.9010486
 127.1790947  95.4366907  72.2725128 126.3175426  95.7348161  72.5641865
 127.2053382  95.6537306  71.3406160 123.9952516 103.9809098  68.6798933
 124.4590862 104.2596801  67.8903556 123.7309315 103.0792542  68.4972024
 120.8876598 103.5280579  71.6178697 121.4577955 103.9567848  70.9796181
 121.4784709 103.2463164  72.3162882 122.9321403 100.1032250  65.4888499
 123.6345446 100.5553294  65.9562425 122.6002031  99.4616069  66.1168392
 121.3801764  98.6944007  79.8639708 120.7500425  99.3760288  80.0975105
 121.2737852  98.5827088  78.9192846 116.6746737  98.3615803  70.7905632
 115.8845790  98.6173331  70.3145743 117.1657984  99.1764141  70.8957673
 130.6910546 105.7021042  73.5410913 131.5127990 105.3001229  73.2593595
 130.6872949 105.5989276  74.4927029 118.6261482  98.7260382  67.7489109
 117.8292645  98.8379076  68.2672604 118.3987074  99.0647034  66.8829999
 124.4567150 105.2505085  75.6971623 124.5211582 105.7125493  76.5329795
 123.7478073 104.6202450  75.8253933 114.9584439  98.6146293  73.2220623
 115.2092478  99.4993303  73.4878199 115.4943988  98.4350895  72.4495715
 138.7816539 102.0459791  69.8895884 138.0280248 101.4767189  69.7339889
 138.9164080 102.0122455  70.8366519 124.1715167 106.9173193  65.5650604
 124.0360842 107.7624729  65.9935452 124.7124980 107.1192471  64.8016538
 120.6582507  92.9964773  82.2264959 120.2649452  92.4430971  82.9012603
 121.4748647  93.3075351  82.6171477 117.6244565 104.4348631  66.1378529
 118.1369085 105.2291881  66.2884094 118.2767277 103.7374921  66.0712130
 119.4339449 107.5514387  68.2201282 119.6106078 108.4732352  68.0322266
 120.2296283 107.2372806  68.6495662 123.5750468  94.4122652  79.8185216
 124.3160181  95.0129805  79.7389678 123.8068391  93.6700290  79.2603258
 118.7191806  99.5979019  78.0963445 118.6045321  98.6964276  78.3970544
 117.8636324  99.8442716  77.7448262 125.7983644 107.5396759  79.6950946
 125.3547498 106.7533138  79.3771850 126.4600857 107.7275910  79.0294837
 120.5570765 109.0692561  74.2211624 121.1078190 108.9409624  73.4488618
 119.7182241 109.3687450  73.8706517 127.8964882 107.8199559  77.7232347
 127.8783357 108.6408440  77.2312616 128.8184802 107.6953635  77.9482488
 124.3537936 105.3343689  78.5655855 124.8866273 104.5731977  78.3355163
 123.8252017 105.0417341  79.3080010 127.5207631  90.4403755  74.0949497
 127.1771900  91.3305396  74.0188608 127.8886593  90.2505412  73.2319082
 115.5893481 102.7637285  66.9138099 116.4268703 103.1734294  66.6971807
 115.7671749 101.8236727  66.8838293 127.4857913 100.4312366  62.6021932
 126.9704537 101.2016970  62.8410320 127.2135222  99.7577502  63.2254994
 125.0705024  95.2762067  67.6607171 124.2146621  94.8868917  67.4812809
 125.4831976  95.3554027  66.8006956 126.6004171  92.8108410  72.0598730
 126.0968967  92.7738545  71.2466536 126.8934778  93.7201153  72.1195387
 122.8447057  92.8947140  71.0664912 123.7100054  92.6989948  70.7070802
 122.9124566  92.6657491  71.9934269 132.4592188 103.1844721  64.5375106
 131.6821630 102.8455880  64.0930268 133.1383669 103.1897344  63.8630071
 127.2744217  98.3039458  64.4281714 126.9694352  98.6185607  65.2791857
 128.2274659  98.3820878  64.4709046 125.7190648 104.4629681  66.0774667
 125.1912010 103.7282441  65.7647905 125.2178151 105.2404358  65.8314636
 130.6983494 102.6578702  71.1941714 130.0407169 103.3477963  71.2821842
 131.5023894 103.0475134  71.5375700 120.4509376  95.1249348  68.4381279
 121.0253128  94.9024529  67.7054472 121.0380359  95.1938042  69.1909880
 129.5088953 101.0123074  69.2445656 130.0220835 101.6453066  69.7467365
 130.1590177 100.4124270  68.8789016 120.7778963  97.1553809  62.4577164
 119.9416275  97.4928495  62.7786439 120.6383733  97.0202788  61.5204301
 122.7532044  91.9990596  67.1656348 122.0996456  91.6839614  66.5412963
 122.7112518  91.3766337  67.8916171 123.8643249 102.2809892  59.0809641
 122.9570310 102.0499145  59.2800789 124.3614281 101.4847511  59.2683622
 126.7711328 110.9907399  62.0006327 126.0973026 111.2939095  62.6091285
 127.1577150 111.7936479  61.6511784 125.9869784  98.4872530  71.4903996
 125.0692346  98.7087477  71.3325684 126.4029928  98.5618840  70.6315703
 126.7704832  99.8863946  66.6206676 127.5176651 100.3985343  66.3113798
 127.0396421  99.5647998  67.4811070 125.0431482 102.3822486  63.6033631
 124.1342701 102.0981519  63.7006100 125.0726566 102.8021565  62.7436937
 130.2750750 105.9929076  67.3724798 129.8213077 105.1519986  67.4289989
 129.6444716 106.6290474  67.7099578 129.2183669  96.9221062  68.6025466
 128.4806426  96.4098448  68.9335708 129.4710443  96.4821444  67.7908742
 128.7183689 107.8305573  68.3074616 129.0106663 108.3910630  67.5886982
 129.2282309 108.1234134  69.0627775 129.3195296  89.6997314  69.1967235
 129.6254173  88.8394677  68.9093150 130.0447901  90.2914934  68.9966229
 115.6119652 100.1028001  67.5848833 115.4144052  99.5097361  66.8599899
 115.0566316  99.7980211  68.3024772 123.5916376  99.9951107  69.7043426
 123.6464986  99.0424943  69.6285903 122.7807578 100.1510546  70.1884724
 124.7407570 103.9231230  60.9421709 124.3027000 103.2067089  60.4827347
 125.4818011 104.1507345  60.3806801 121.5308736  98.6128167  67.4633805
 120.7176602  98.9122337  67.8698997 122.0267730  98.2183856  68.1808287
 123.6817314 108.6085924  69.3968070 123.6393493 108.8346770  68.4676602
 124.5980013 108.3749298  69.5453871 127.1282948  99.0769991  76.2948699
 127.4832335  99.3041464  77.1543164 127.7755079  99.4088368  75.6725954
 132.8580685 102.1988427  66.9998028 132.7198583 102.3890023  66.0719217
 132.5016903 102.9607810  67.4566079 121.0222811  96.1846522  73.0795040
 121.6622190  96.0435281  72.3818003 120.1900341  95.8981036  72.7033642
 132.8850064 104.2664954  72.0109299 133.3186571 104.1740243  72.8592353
 133.5981645 104.2422455  71.3729315 121.7983115 105.4848953  69.1930032
 122.5923713 104.9899273  68.9912607 121.0874807 104.9566816  68.8297738
 126.6177959 107.8667048  73.5442400 126.6714981 108.4357985  74.3120116
 125.7492741 108.0368933  73.1796437 118.1065878  99.6292034  65.2689785
 117.1763466  99.5676490  65.4859747 118.2023350  99.1067987  64.4726426
 118.0251427  96.1546847  67.8568027 118.2858245  97.0692181  67.7477187
 118.8468600  95.6871290  68.0064639 119.4976353  97.5684604  75.0266851
 120.1699406  97.3601967  74.3779500 118.6706139  97.3706690  74.5872083
 133.7465614 104.3088655  74.5442185 133.9401504 105.2134465  74.7901460
 133.6466232 103.8496074  75.3780770 125.4001925  94.1946545  77.0432512
 124.7529840  94.8936495  76.9496988 126.1702940  94.6282689  77.4108760
 128.8080723 104.4595398  80.1183065 128.6566229 104.2305949  79.2013149
 128.7985402 105.4165999  80.1314410 125.5766059 102.0327310  75.1029332
 126.5058119 102.1838470  74.9298299 125.1557089 102.1211331  74.2477978
 124.3754391 106.0577975  72.8727869 124.2365476 105.6896759  73.7453807
 123.5868987 106.5725614  72.7011827 124.9702543 111.1587071  64.2153406
 125.1454298 110.6875114  65.0299029 124.2835331 111.7852837  64.4434667
 125.9259606 105.4359577  70.2616707 125.5909438 105.3960347  71.1574357
 125.4263552 104.7704293  69.7887117 119.9003850 100.8427207  75.7869288
 119.7623648 100.1107446  76.3880827 120.8108773 100.7536108  75.5053476
 128.8618798 102.7815612  60.5353767 128.2447968 102.0562440  60.4386819
 128.3935286 103.5424972  60.1920841 122.5286150 100.5547167  75.2752968
 123.2385769  99.9140359  75.2339586 122.4855459 100.8060062  76.1979149
 130.5172929 107.4914520  78.1959547 130.4585475 106.8073740  77.5290130
 130.9192448 108.2333510  77.7440173 121.2415084  97.5412385  77.0948607
 120.7052441  97.0903123  77.7470204 120.6531793  97.6758293  76.3519072
 119.5363628 114.3076434  70.9893266 119.7760226 114.9394958  71.6672285
 118.6932824 113.9564474  71.2758625 120.6517343  97.0001036  59.6575071
 119.7746810  96.8789837  59.2937318 121.1275096  96.2087114  59.4053960
 130.5190336 105.4554104  76.4273527 129.6317115 105.1180026  76.5499926
 131.0888887 104.7237135  76.6642292 112.1719484 101.7878196  69.7516578
 112.8590523 101.4739926  69.1637594 112.0167612 102.6919560  69.4783830
 116.9754206  96.6768392  74.1801602 116.8912394  96.0694062  73.4452012
 116.1536912  97.1677411  74.1811098 124.0491490 110.1155556  73.3934770
 123.9761661 110.9210528  73.9054075 123.6068883 110.3147522  72.5682791
 123.8381269 109.3527326  66.9037592 123.0548791 109.8949007  66.9975816
 124.5374015 109.8701306  67.3031833 127.1477920  95.1621956  69.5471797
 127.6446619  94.4091918  69.2272867 126.3764901  95.1986272  68.9815006
 135.0007677 100.8662321  71.1890088 134.9897553 101.7487037  70.8184022
 134.1325056 100.5133872  70.9944626 126.5090173 110.0142390  75.5492929
 127.2218146 110.6489855  75.4768830 126.0180202 110.1106256  74.7332931
 128.2307700 103.9193643  67.1210220 127.2963979 104.0395106  66.9514925
 128.4084369 103.0166110  66.8570230 123.7312888  97.3039339  69.2743482
 123.3610676  96.7510379  69.9624387 124.2271981  96.6997472  68.7218482
 131.6180252  99.7610962  67.6560254 132.0840704 100.5938954  67.5820557
 132.0687752  99.2955944  68.3605513 121.5602087 107.7636834  76.3698500
 122.2611546 108.3973317  76.5227894 121.0897202 108.1051565  75.6094139
 129.6856483 106.1054784  64.6546407 129.9616327 105.9911378  65.5640281
 128.8160981 105.7072268  64.6158580 129.5896914  92.1291549  71.6951156
 128.6759994  92.3595776  71.8633363 130.0190016  92.2129993  72.5465188
 129.3603373 100.3181441  74.1951050 128.7074823 100.5657349  73.5403503
 129.7383753  99.5045579  73.8613527 126.3210547 110.3541134  68.2979220
 126.5032941 109.5362790  68.7606972 127.1443533 110.5708827  67.8604110
 126.6552712 109.2809320  65.5594269 127.1840479 108.7701774  64.9464431
 126.9180932 108.9651850  66.4239802 125.4090946 101.0601252  80.6817087
 124.7331583 100.9595382  81.3519462 126.2318580 100.9040466  81.1453084
 117.1569805 107.2973189  73.3029602 117.7423242 106.5516877  73.4357506
 116.9594643 107.6077146  74.1866266 120.0108460 110.3324436  68.3192045
 119.3418835 110.8170564  67.8356085 119.8721330 110.5793657  69.2335423
 111.7487460  99.8678789  72.0234045 111.7871559  99.3342380  72.8171163
 111.2427753  99.3413995  71.4045023 124.1513729 112.3668180  74.9174703
 124.7032037 112.5299801  75.6823788 124.4919922 112.9572618  74.2454728
 119.1278222  94.7143330  75.5196588 119.1919548  95.5758161  75.1073985
 119.0645342  94.1017331  74.7868946 118.6030495  96.7866462  79.1669622
 119.2302533  96.4043539  79.7807146 117.7458413  96.5680664  79.5325314
 129.0024603 107.1929437  80.7723357 129.5464507 107.8059396  80.2778312
 128.4211448 107.7509016  81.2890370 115.3796037  98.5942891  65.0987977
 115.6749478  97.6853570  65.0455030 114.4784073  98.5730631  64.7768979
 127.2882116 110.3150155  71.9038385 127.1633255 109.5139895  71.3949331
 127.9461207 110.8096349  71.4152355 118.9090284  96.6698888  71.0815525
 118.1876870  97.2834856  70.9422999 119.6983540  97.2056653  71.0032171
 129.3517024 108.1159175  73.5317935 128.4047360 107.9964527  73.4596262
 129.6999798 107.2281673  73.6144197 121.7116598  94.0053314  77.3556177
 122.2351000  94.2515611  78.1182486 121.4928931  94.8373349  76.9359314
 117.1083879  96.2756989  65.2227302 116.7796585  95.3954368  65.0402408
 117.4623250  96.2204658  66.1103691 126.3563458 107.9111892  69.7322287
 126.2088420 106.9828599  69.9129857 127.1816951 107.9331982  69.2479363
 120.2225702  96.5629959  65.5902780 120.5621775  97.0915880  64.8681388
 120.6697822  96.9010365  66.3661346 129.9597580 108.7340450  70.8187160
 130.8844127 108.5283312  70.6811611 129.7912883 108.4856852  71.7276502
 122.9169143  94.9467009  75.0405848 122.5765963  94.1474823  75.4426527
 122.2108149  95.2468720  74.4682681 123.5685615  92.0316322  73.4933171
 124.3911684  91.5576800  73.3712061 123.8123678  92.8106806  73.9931857
 122.2093849  95.0604580  63.7896072 122.9302212  95.4385833  63.2859789
 121.5859153  95.7793457  63.8931050 126.3524972  95.7649729  64.7254405
 126.5688586  96.6474367  64.4243233 125.8719039  95.3735943  63.9960047
 121.0924193  98.7235443  71.3025149 120.9468774  99.0375746  72.1949431
 120.6149397  99.3420343  70.7496048 122.9520576  95.7137990  71.3506039
 122.9382145  94.8179084  71.0138337 123.6693004  95.7208654  71.9844325
 124.8046707  96.1475331  73.3959166 124.5464485  97.0692401  73.3943497
 124.2731747  95.7505765  74.0859630 129.7492896 109.2526118  66.1749252
 129.9229773 108.6872540  65.4223104 130.2421787 110.0527013  65.9928742
 115.5669856 101.2640787  74.2412810 115.0223324 102.0400595  74.3733085
 116.4449205 101.6111591  74.0831932 122.3557472  94.5952371  66.6193609
 122.4773383  93.6669017  66.8184496 122.0659515  94.6091057  65.7071924
 125.2248663  92.2807281  69.7560329 125.2470359  92.3446614  68.8012308
 125.6416722  91.4411790  69.9500835 135.6032287 102.0162541  67.7939551
 136.0463433 101.2669866  67.3958675 134.7258797 102.0072677  67.4113283
 130.7368068 108.5692882  63.2746150 131.4318973 109.1899575  63.4933465
 131.0791218 107.7188233  63.5498528 116.3535877 100.3910683  77.1342967
 115.6117613 100.5393319  77.7207598 116.0328622 100.6518949  76.2709717
 132.6359491 106.0192588  64.8033481 133.1610815 106.3579861  64.0782801
 132.5481844 105.0839603  64.6196615 124.2979540 109.9326661  76.9323357
 124.6066667 109.6875808  77.8046057 125.0955022 110.1373300  76.4442228
 124.3200152 112.0864571  69.1628734 123.8805142 111.5940950  69.8561591
 125.0708269 111.5437539  68.9220809 116.7992491 108.2776112  69.1653362
 117.6250511 107.9779884  68.7852005 116.4486543 107.5083734  69.6143151
 121.7674024 107.6302580  71.2351036 121.1454034 106.9673285  70.9353263
 122.4378891 107.6563712  70.5524683 115.0001096 106.1962438  70.1242296
 114.1633004 105.7684613  69.9426297 114.9724742 106.3894882  71.0613087
 121.8398552  96.1084368  80.8283542 121.8886707  96.9846491  80.4461311
 122.3821066  95.5661761  80.2555185 132.3253397 106.6525491  80.1084679
 131.5348941 106.6349630  79.5689178 132.0886752 107.1913785  80.8633715
 132.4451272 103.5017958  77.4217407 132.4949277 103.3367965  78.3632930
 132.3365196 102.6345217  77.0315288 121.3287531 106.1806503  64.7109496
 121.4775652 106.8641968  64.0576169 122.1353975 106.1611594  65.2258952
 129.7355035  99.4848886  78.7376714 130.6364898  99.3455351  78.4460712
 129.8103009  99.6503341  79.6774891 124.0697840  96.8615741  77.5829900
 123.2001150  97.1549307  77.3112489 124.3057321  97.4456186  78.3037164
 133.9469469 105.9214899  77.6659429 133.6554278 106.2844880  78.5022890
 133.3341601 105.2081908  77.4872761 135.1465152 103.4867779  70.1861999
 135.9812043 103.9257583  70.3499559 135.2824280 103.0106432  69.3670245
 132.1956658 101.0447514  76.1339487 132.6710779 101.2375160  75.3258338
 131.2722223 101.1006700  75.8882870 119.0840164 102.2071681  65.7170565
 118.8386206 101.3034011  65.9150775 119.2536079 102.2088832  64.7750043
 126.7736874  93.0795357  75.0995321 127.2918818  93.8156384  74.7741809
 126.4192007  93.3859351  75.9342080 118.3535812  97.9400039  63.2156726
 117.6605057  98.0144394  62.5596762 118.1087564  97.1760382  63.7378243
 127.0249468  89.4995640  70.6196217 127.3051222  88.8318829  71.2456644
 127.8100075  89.6924736  70.1070881 124.8282937 108.6754634  62.1821243
 124.2556904 109.2944821  61.7291715 125.4015730 109.2253996  62.7161165
 130.8958327  97.9213274  74.3667792 131.8475749  98.0211372  74.3880016
 130.7261777  97.1291543  74.8765877 128.9172706  95.0068857  74.5527193
 128.3222638  95.2873870  73.8573682 128.6322403  95.4962758  75.3243934
 128.0480196 108.9591784  63.3129826 128.9810870 108.8937346  63.5162701
 127.9603409 109.7948051  62.8544358 130.6768213 108.2757654  60.2733773
 130.5981845 107.9417518  61.1669531 131.4977880 108.7679422  60.2725246
 133.3746404 101.1419394  73.4810092 133.3422724 100.2035394  73.6669776
 133.9847028 101.2203430  72.7475917 125.2129735 100.0115447  59.5237296
 126.1588840  99.8821655  59.5925714 124.8343980  99.2730109  60.0006724
 133.5240893  97.9330437  73.5268375 133.0079941  97.1488894  73.3398304
 134.4080841  97.6049154  73.6914895 131.1851620  91.6771453  69.4864188
 130.9876441  91.3686541  70.3707520 131.7951325  92.4033092  69.6162118
 139.1922954 102.2035401  72.6216129 139.9226343 101.9420689  73.1823832
 138.5829900 101.4664122  72.6618197 137.2738251 100.3443263  73.2190580
 136.5471415 100.2099228  72.6107072 136.8585538 100.6520092  74.0247298
 125.0968428 104.0633193  80.9837953 126.0171437 104.2411792  81.1777999
 125.0618011 103.1189238  80.8317652 123.3972652  97.9365423  59.4592181
 122.4904108  97.6398536  59.5354895 123.6748633  97.6395241  58.5926467
 114.3150593  99.2571786  69.9091228 113.9953377  98.4037095  69.6165602
 113.7684021  99.4720365  70.6649195 118.0930500 101.9734227  73.6260734
 118.3116510 102.9051335  73.6448768 118.5056274 101.6142202  74.4115538
 125.0134718  92.4802313  65.6136423 124.2035446  92.1349398  65.9891669
 125.7019135  92.1709856  66.2024034 126.9425266  91.5580360  67.2360719
 127.4956305  91.9775813  67.8950742 127.1795353  90.6316108  67.2783675
 122.9658366  97.5467433  83.0163483 122.8655093  98.4961790  82.9475574
 122.7479908  97.2185672  82.1439553 122.1671437  94.7952358  59.6004160
 123.0290601  95.1207257  59.8599978 122.3521781  94.0083854  59.0877226
 114.1838853 102.8774698  71.8784349 113.4902324 102.4628651  71.3654304
 114.9311844 102.9195234  71.2817768 130.3204073  93.6680885  66.7439383
 129.7402743  94.3265689  66.3617436 130.0540006  92.8458229  66.3326801
 128.7707640  93.0685942  68.9460704 129.2707418  93.1802477  68.1375023
 129.4143248  92.7646995  69.5861512 122.8289636 100.9764572  81.8328545
 122.3456717 101.7764932  82.0392434 122.9150575 100.9872517  80.8795989
 116.0975595 102.8092952  69.7550364 116.0746283 102.9080639  68.8032247
 116.4076232 103.6558103  70.0767530 118.7562973 104.8669107  73.8696978
 119.7106227 104.8353049  73.8026910 118.5575497 104.4059730  74.6847204
 119.3462355 103.4370223  76.4367776 120.1655244 103.9314301  76.4602613
 119.6199163 102.5202191  76.4085344 129.1028951  95.8280975  65.7995732
 128.2154807  96.1130626  65.5815926 129.5182941  95.6674738  64.9523009
 132.4543488  95.8527496  69.5150071 133.2303878  96.3423949  69.7874688
 131.7291622  96.2785550  69.9721940 134.8916046  96.5655115  70.5724012
 135.4860537  96.3250851  69.8617320 134.9642630  95.8462246  71.1997548
 117.1113202 110.4088726  70.8867176 116.9767670 109.6489127  70.3205174
 116.6945264 111.1329626  70.4195965 128.2472165 105.5925650  59.8943752
 128.9508015 105.7975652  60.5101407 127.5234814 106.1602412  60.1592835
 129.0769975 101.3435511  66.0146022 129.0205177 101.8004062  65.1753654
 129.6298318 100.5826196  65.8368865 132.8874781  97.1325243  66.8396141
 132.6311715  96.7321879  67.6704349 132.2627649  97.8469037  66.7146280
 137.1987119  99.8721316  69.3467433 136.6386677  99.9414505  70.1198995
 136.5930622  99.6962301  68.6266929 120.2682328 111.3058043  71.0985619
 120.1514712 112.2503476  70.9964309 119.4474774 111.0031605  71.4871418
 130.1558862 106.0308179  61.9442212 130.9904466 105.5989377  61.7619686
 129.9943205 105.8590193  62.8719106 129.8104755 102.5340292  63.3098551
 129.7553558 102.3684564  62.3686995 129.1850810 103.2416325  63.4660741
 114.5997270  97.7708357  77.1359973 115.2456133  97.2607311  77.6247198
 114.3914421  98.5077038  77.7103398 127.1250662 104.8389204  82.6352114
 127.9941821 105.0129856  82.2738749 126.6457413 105.6583621  82.5127843
 123.1200880  92.0348401  62.8883869 123.1079550  92.9790241  63.0452140
 124.0124302  91.8518547  62.5943331 121.2936842 111.9586305  74.3141547
 122.1964089 111.9909915  74.6308042 121.0674212 111.0286756  74.3287883
 123.0490444 110.7117292  70.9751626 122.0986075 110.7119153  70.8615998
 123.3522930 109.9650026  70.4587661 126.9352999  88.6291178  67.1429806
 126.1685395  88.0749665  67.2886489 127.3463704  88.7013047  68.0043958
 118.9394761  94.9175974  81.2334987 119.8026222  94.5612779  81.4438312
 118.3660171  94.5789869  81.9210392 138.7843137 116.5477830  72.0397388
 139.4221547 116.4284577  71.3360729 138.6663980 117.4958674  72.0985341
 135.5932844 116.5005258  71.9758913 135.2551355 116.3846323  71.0879448
 136.4622612 116.0996423  71.9559919 131.4519659 118.3540735  67.9655804
 130.8884525 118.2630672  67.1972092 131.3372054 117.5340639  68.4458297
 136.0752627 117.6540110  77.9345119 136.0641267 117.2592908  77.0625622
 136.2373266 116.9206183  78.5278890 128.9984091 119.8491926  70.8040025
 129.7905383 119.5082751  70.3886324 129.2380742 119.9586901  71.7242178
 137.0319218 122.0211702  63.2770269 136.3807198 122.6065783  62.8904283
 137.8263581 122.5517897  63.3365306 130.9574845 119.1100839  63.6757403
 131.7305721 118.5629827  63.5370279 131.3100244 119.9745089  63.8871865
 132.7959888 120.4377222  76.8824303 132.5049754 121.3422853  76.7670969
 133.4316872 120.4793749  77.5968372 133.7216095 117.8154070  73.4725662
 134.3179667 117.5910093  72.7582625 133.7791066 117.0738816  74.0751110
 133.2941123 115.2693506  61.3075853 133.5466644 114.7475027  60.5459316
 132.3565682 115.1059651  61.4102537 138.3384406 114.2729284  69.1150596
 139.1247495 113.8548707  68.7641014 138.6023110 115.1775376  69.2832245
 138.5094483 119.7102134  63.8139253 137.8740316 119.7836761  64.5260158
 138.1791890 120.2995733  63.1358333 133.0137412 117.1721612  63.5100228
 132.8973670 116.4966515  64.1781313 133.1239672 116.6853985  62.6932381
 135.3568953 116.6331759  67.2146917 134.9927160 116.1062380  67.9259839
 136.2136069 116.2430228  67.0413403 134.9974440 111.6621658  62.2108266
 135.1648842 112.5301895  62.5778737 134.8071609 111.8248940  61.2869555
 137.7549773 120.1238637  73.8774096 137.4550496 121.0263676  73.7689904
 137.4100832 119.8570820  74.7295249 131.2062254 116.5752434  69.9110801
 130.2812751 116.4428648  70.1188493 131.4546668 117.3546653  70.4080743
 141.1546917 112.6421177  71.5571534 140.2463794 112.5736586  71.2630295
 141.1034513 113.1193122  72.3853359 134.9763661 114.1179316  63.1954933
 134.8563286 114.5636367  64.0340413 134.2816249 114.4664634  62.6368471
 128.5671065 116.2185708  70.7454590 128.6963447 116.4720187  71.6594002
 127.8868517 116.8113416  70.4259245 135.2287783 114.0610823  79.5006431
 134.4521117 114.6204743  79.4909296 135.8678346 114.5467606  80.0221301
 133.4834155 116.8696276  79.0624398 134.2248839 117.4081320  78.7859222
 132.7771140 117.4962565  79.2195950 138.9589494 119.0125417  77.6596559
 139.3672850 118.5707827  76.9151192 138.2366756 118.4378044  77.9130752
 135.3120565 113.9498024  75.0330116 136.1581760 114.3737437  75.1764765
 135.2519202 113.2931648  75.7268679 139.2818309 119.5726607  71.4148848
 138.6527172 119.7372322  70.7124916 138.8943971 119.9868217  72.1859812
 138.4620010 111.6102392  76.6911290 138.2180942 112.3644452  76.1545566
 138.7379940 111.9887740  77.5258537 140.4158473 118.1541004  75.3688556
 140.6275368 118.7972764  74.6922937 140.3688221 117.3203321  74.9010486
 138.0184702 110.7658825  72.2725128 137.1569181 111.0640079  72.5641865
 138.0447136 110.9829224  71.3406160 134.8346271 119.3101016  68.6798933
 135.2984617 119.5888719  67.8903556 134.5703069 118.4084460  68.4972024
 131.7270352 118.8572497  71.6178697 132.2971709 119.2859765  70.9796181
 132.3178464 118.5755082  72.3162882 133.7715157 115.4324168  65.4888499
 134.4739200 115.8845212  65.9562425 133.4395786 114.7907987  66.1168392
 132.2195519 114.0235925  79.8639708 131.5894179 114.7052205  80.0975105
 132.1131606 113.9119006  78.9192846 127.5140491 113.6907721  70.7905632
 126.7239545 113.9465249  70.3145743 128.0051738 114.5056058  70.8957673
 129.4655236 114.0552300  67.7489109 128.6686400 114.1670994  68.2672604
 129.2380829 114.3938952  66.8829999 135.2960904 120.5797003  75.6971623
 135.3605337 121.0417410  76.5329795 134.5871828 119.9494368  75.8253933
 125.7978194 113.9438211  73.2220623 126.0486232 114.8285221  73.4878199
 126.3337742 113.7642813  72.4495715 135.0108922 122.2465111  65.5650604
 134.8754596 123.0916646  65.9935452 135.5518734 122.4484388  64.8016538
 131.4976261 108.3256690  82.2264959 131.1043207 107.7722889  82.9012603
 132.3142402 108.6367269  82.6171477 128.4638319 119.7640549  66.1378529
 128.9762840 120.5583799  66.2884094 129.1161032 119.0666839  66.0712130
 130.2733204 122.8806305  68.2201282 130.4499832 123.8024270  68.0322266
 131.0690037 122.5664724  68.6495662 134.4144222 109.7414569  79.8185216
 135.1553936 110.3421723  79.7389678 134.6462145 108.9992207  79.2603258
 129.5585560 114.9270937  78.0963445 129.4439075 114.0256194  78.3970544
 128.7030078 115.1734634  77.7448262 136.6377398 122.8688677  79.6950946
 136.1941252 122.0825056  79.3771850 137.2994612 123.0567828  79.0294837
 131.3964519 124.3984479  74.2211624 131.9471944 124.2701542  73.4488618
 130.5575995 124.6979368  73.8706517 135.1931690 120.6635606  78.5655855
 135.7260027 119.9023895  78.3355163 134.6645771 120.3709258  79.3080010
 138.3601385 105.7695672  74.0949497 138.0165655 106.6597314  74.0188608
 138.7280348 105.5797330  73.2319082 126.4287236 118.0929203  66.9138099
 127.2662458 118.5026211  66.6971807 126.6065504 117.1528645  66.8838293
 138.3251668 115.7604284  62.6021932 137.8098291 116.5308888  62.8410320
 138.0528976 115.0869420  63.2254994 135.9098779 110.6053984  67.6607171
 135.0540375 110.2160835  67.4812809 136.3225731 110.6845945  66.8006956
 137.4397926 108.1400328  72.0598730 136.9362721 108.1030463  71.2466536
 137.7328532 109.0493070  72.1195387 133.6840811 108.2239057  71.0664912
 134.5493808 108.0281866  70.7070802 133.7518320 107.9949409  71.9934269
 138.1137971 113.6331376  64.4281714 137.8088107 113.9477525  65.2791857
 139.0668413 113.7112796  64.4709046 136.5584403 119.7921599  66.0774667
 136.0305765 119.0574359  65.7647905 136.0571906 120.5696275  65.8314636
 131.2903131 110.4541265  68.4381279 131.8646882 110.2316447  67.7054472
 131.8774113 110.5229960  69.1909880 140.3482708 116.3414992  69.2445656
 140.8614590 116.9744984  69.7467365 140.9983932 115.7416188  68.8789016
 131.6172718 112.4845726  62.4577164 130.7810030 112.8220413  62.7786439
 131.4777487 112.3494706  61.5204301 133.5925798 107.3282514  67.1656348
 132.9390211 107.0131531  66.5412963 133.5506272 106.7058255  67.8916171
 134.7037003 117.6101809  59.0809641 133.7964065 117.3791063  59.2800789
 135.2008035 116.8139428  59.2683622 136.8263539 113.8164448  71.4903996
 135.9086100 114.0379395  71.3325684 137.2423682 113.8910758  70.6315703
 137.6098586 115.2155863  66.6206676 138.3570405 115.7277261  66.3113798
 137.8790176 114.8939916  67.4811070 135.8825237 117.7114404  63.6033631
 134.9736456 117.4273437  63.7006100 135.9120320 118.1313483  62.7436937
 140.0577424 112.2512980  68.6025466 139.3200180 111.7390366  68.9335708
 140.3104197 111.8113361  67.7908742 140.1589051 105.0289232  69.1967235
 140.4647928 104.1686595  68.9093150 140.8841656 105.6206852  68.9966229
 126.4513407 115.4319918  67.5848833 126.2537807 114.8389279  66.8599899
 125.8960071 115.1272128  68.3024772 134.4310131 115.3243025  69.7043426
 134.4858740 114.3716861  69.6285903 133.6201333 115.4802464  70.1884724
 135.5801324 119.2523148  60.9421709 135.1420754 118.5359007  60.4827347
 136.3211765 119.4799263  60.3806801 132.3702491 113.9420084  67.4633805
 131.5570356 114.2414255  67.8698997 132.8661485 113.5475773  68.1808287
 134.5211068 123.9377841  69.3968070 134.4787247 124.1638688  68.4676602
 135.4373767 123.7041216  69.5453871 137.9676702 114.4061909  76.2948699
 138.3226090 114.6333382  77.1543164 138.6148833 114.7380286  75.6725954
 131.8616565 111.5138440  73.0795040 132.5015945 111.3727199  72.3818003
 131.0294096 111.2272953  72.7033642 132.6376869 120.8140870  69.1930032
 133.4317468 120.3191191  68.9912607 131.9268562 120.2858733  68.8297738
 128.9459633 114.9583952  65.2689785 128.0157221 114.8968408  65.4859747
 129.0417105 114.4359905  64.4726426 128.8645182 111.4838765  67.8568027
 129.1251999 112.3984098  67.7477187 129.6862354 111.0163208  68.0064639
 130.3370107 112.8976522  75.0266851 131.0093160 112.6893884  74.3779500
 129.5099894 112.6998608  74.5872083 136.2395679 109.5238463  77.0432512
 135.5923594 110.2228413  76.9496988 137.0096694 109.9574607  77.4108760
 139.6474477 119.7887315  80.1183065 139.4959983 119.5597867  79.2013149
 139.6379156 120.7457917  80.1314410 136.4159813 117.3619228  75.1029332
 137.3451873 117.5130388  74.9298299 135.9950843 117.4503249  74.2477978
 135.2148145 121.3869892  72.8727869 135.0759231 121.0188677  73.7453807
 134.4262741 121.9017532  72.7011827 136.7653360 120.7651495  70.2616707
 136.4303193 120.7252265  71.1574357 136.2657306 120.0996211  69.7887117
 130.7397604 116.1719125  75.7869288 130.6017402 115.4399364  76.3880827
 131.6502528 116.0828025  75.5053476 139.7012552 118.1107529  60.5353767
 139.0841723 117.3854358  60.4386819 139.2329040 118.8716890  60.1920841
 133.3679905 115.8839084  75.2752968 134.0779524 115.2432277  75.2339586
 133.3249213 116.1351979  76.1979149 132.0808839 112.8704302  77.0948607
 131.5446196 112.4195041  77.7470204 131.4925547 113.0050211  76.3519072
 131.4911098 112.3292954  59.6575071 130.6140564 112.2081754  59.2937318
 131.9668851 111.5379032  59.4053960 123.0113238 117.1170113  69.7516578
 123.6984278 116.8031843  69.1637594 122.8561367 118.0211478  69.4783830
 127.8147960 112.0060310  74.1801602 127.7306149 111.3985980  73.4452012
 126.9930667 112.4969328  74.1811098 137.9871674 110.4913874  69.5471797
 138.4840374 109.7383836  69.2272867 137.2158656 110.5278190  68.9815006
 139.0701455 119.2485561  67.1210220 138.1357733 119.3687023  66.9514925
 139.2478123 118.3458028  66.8570230 134.5706643 112.6331257  69.2743482
 134.2004430 112.0802297  69.9624387 135.0665735 112.0289390  68.7218482
 132.3995841 123.0928752  76.3698500 133.1005301 123.7265234  76.5227894
 131.9290956 123.4343483  75.6094139 140.4290669 107.4583467  71.6951156
 139.5153749 107.6887694  71.8633363 140.8583770 107.5421911  72.5465188
 140.1997127 115.6473359  74.1951050 139.5468578 115.8949266  73.5403503
 140.5777507 114.8337497  73.8613527 136.2484700 116.3893170  80.6817087
 135.5725337 116.2887299  81.3519462 137.0712334 116.2332384  81.1453084
 127.9963559 122.6265107  73.3029602 128.5816996 121.8808794  73.4357506
 127.7988398 122.9369063  74.1866266 130.8502215 125.6616354  68.3192045
 130.1812590 126.1462482  67.8356085 130.7115084 125.9085574  69.2335423
 122.5881214 115.1970707  72.0234045 122.6265314 114.6634297  72.8171163
 122.0821507 114.6705912  71.4045023 129.9671976 110.0435247  75.5196588
 130.0313303 110.9050078  75.1073985 129.9039097 109.4309249  74.7868946
 129.4424249 112.1158380  79.1669622 130.0696288 111.7335457  79.7807146
 128.5852168 111.8972582  79.5325314 126.2189792 113.9234809  65.0987977
 126.5143233 113.0145487  65.0455030 125.3177828 113.9022548  64.7768979
 129.7484039 111.9990806  71.0815525 129.0270625 112.6126773  70.9422999
 130.5377295 112.5348570  71.0032171 132.5510352 109.3345232  77.3556177
 133.0744754 109.5807529  78.1182486 132.3322686 110.1665267  76.9359314
 127.9477633 111.6048907  65.2227302 127.6190339 110.7246286  65.0402408
 128.3017004 111.5496575  66.1103691 131.0619456 111.8921876  65.5902780
 131.4015529 112.4207798  64.8681388 131.5091577 112.2302283  66.3661346
 133.7562897 110.2758927  75.0405848 133.4159718 109.4766740  75.4426527
 133.0501904 110.5760638  74.4682681 134.4079369 107.3608240  73.4933171
 135.2305438 106.8868718  73.3712061 134.6517433 108.1398723  73.9931857
 133.0487604 110.3896498  63.7896072 133.7695966 110.7677751  63.2859789
 132.4252908 111.1085375  63.8931050 137.1918727 111.0941647  64.7254405
 137.4082341 111.9766285  64.4243233 136.7112794 110.7027860  63.9960047
 131.9317948 114.0527360  71.3025149 131.7862529 114.3667663  72.1949431
 131.4543152 114.6712261  70.7496048 133.7914331 111.0429908  71.3506039
 133.7775900 110.1471001  71.0138337 134.5086759 111.0500572  71.9844325
 135.6440461 111.4767248  73.3959166 135.3858239 112.3984319  73.3943497
 135.1125502 111.0797683  74.0859630 126.4063610 116.5932705  74.2412810
 125.8617078 117.3692513  74.3733085 127.2842960 116.9403509  74.0831932
 133.1951227 109.9244288  66.6193609 133.3167138 108.9960935  66.8184496
 132.9053269 109.9382974  65.7071924 136.0642417 107.6099199  69.7560329
 136.0864114 107.6738532  68.8012308 136.4810476 106.7703708  69.9500835
 127.1929632 115.7202601  77.1342967 126.4511368 115.8685236  77.7207598
 126.8722376 115.9810866  76.2709717 127.6386246 123.6068030  69.1653362
 128.4644266 123.3071801  68.7852005 127.2880298 122.8375652  69.6143151
 132.6067779 122.9594498  71.2351036 131.9847788 122.2965203  70.9353263
 133.2772646 122.9855630  70.5524683 125.8394851 121.5254356  70.1242296
 125.0026759 121.0976530  69.9426297 125.8118496 121.7186799  71.0613087
 132.6792306 111.4376286  80.8283542 132.7280462 112.3138409  80.4461311
 133.2214820 110.8953679  80.2555185 132.1681286 121.5098421  64.7109496
 132.3169406 122.1933886  64.0576169 132.9747729 121.4903511  65.2258952
 134.9091595 112.1907658  77.5829900 134.0394904 112.4841224  77.3112489
 135.1451075 112.7748103  78.3037164 129.9233919 117.5363599  65.7170565
 129.6779961 116.6325929  65.9150775 130.0929833 117.5380749  64.7750043
 137.6130629 108.4087275  75.0995321 138.1312572 109.1448302  74.7741809
 137.2585761 108.7151268  75.9342080 129.1929566 113.2691956  63.2156726
 128.4998811 113.3436311  62.5596762 128.9481318 112.5052300  63.7378243
 137.8643223 104.8287558  70.6196217 138.1444976 104.1610747  71.2456644
 138.6493830 105.0216653  70.1070881 139.7566461 110.3360775  74.5527193
 139.1616393 110.6165788  73.8573682 139.4716157 110.8254676  75.3243934
 136.0523490 115.3407364  59.5237296 136.9982594 115.2113572  59.5925714
 135.6737735 114.6022026  60.0006724 135.9362182 119.3925110  80.9837953
 136.8565192 119.5703709  81.1777999 135.9011765 118.4481156  80.8317652
 134.2366407 113.2657341  59.4592181 133.3297862 112.9690453  59.5354895
 134.5142388 112.9687159  58.5926467 125.1544347 114.5863704  69.9091228
 124.8347132 113.7329012  69.6165602 124.6077775 114.8012282  70.6649195
 128.9324255 117.3026145  73.6260734 129.1510265 118.2343253  73.6448768
 129.3450029 116.9434120  74.4115538 135.8528473 107.8094230  65.6136423
 135.0429201 107.4641315  65.9891669 136.5412890 107.5001774  66.2024034
 137.7819021 106.8872277  67.2360719 138.3350059 107.3067731  67.8950742
 138.0189107 105.9608025  67.2783675 133.8052120 112.8759351  83.0163483
 133.7048847 113.8253708  82.9475574 133.5873662 112.5477590  82.1439553
 133.0065191 110.1244276  59.6004160 133.8684355 110.4499174  59.8599978
 133.1915536 109.3375772  59.0877226 125.0232607 118.2066616  71.8784349
 124.3296079 117.7920568  71.3654304 125.7705598 118.2487152  71.2817768
 139.6101394 108.3977860  68.9460704 140.1101173 108.5094395  68.1375023
 140.2537002 108.0938913  69.5861512 133.6683390 116.3056490  81.8328545
 133.1850472 117.1056850  82.0392434 133.7544329 116.3164435  80.8795989
 126.9369350 118.1384869  69.7550364 126.9140038 118.2372557  68.8032247
 127.2469986 118.9850020  70.0767530 129.5956728 120.1961024  73.8696978
 130.5499981 120.1644967  73.8026910 129.3969251 119.7351648  74.6847204
 130.1856110 118.7662140  76.4367776 131.0048999 119.2606219  76.4602613
 130.4592917 117.8494109  76.4085344 139.9422706 111.1572893  65.7995732
 139.0548561 111.4422543  65.5815926 140.3576695 110.9966656  64.9523009
 127.9506956 125.7380644  70.8867176 127.8161424 124.9781045  70.3205174
 127.5339019 126.4621544  70.4195965 139.0865919 120.9217567  59.8943752
 139.7901770 121.1267570  60.5101407 138.3628568 121.4894329  60.1592835
 139.9163730 116.6727429  66.0146022 139.8598931 117.1295980  65.1753654
 140.4692072 115.9118113  65.8368865 131.1076082 126.6349961  71.0985619
 130.9908466 127.5795393  70.9964309 130.2868529 126.3323522  71.4871418
 140.6498509 117.8632210  63.3098551 140.5947313 117.6976481  62.3686995
 140.0244564 118.5708243  63.4660741 125.4391024 113.1000274  77.1359973
 126.0849888 112.5899228  77.6247198 125.2308175 113.8368956  77.7103398
 137.9644416 120.1681122  82.6352114 138.8335576 120.3421774  82.2738749
 137.4851168 120.9875539  82.5127843 133.9594634 107.3640319  62.8883869
 133.9473304 108.3082159  63.0452140 134.8518056 107.1810464  62.5943331
 137.7746754 103.9583096  67.1429806 137.0079150 103.4041582  67.2886489
 138.1857459 104.0304964  68.0043958 129.7788515 110.2467891  81.2334987
 130.6419977 109.8904696  81.4438312 129.2053926 109.9081786  81.9210392
  56.8614273  -3.4098344  53.5690371  56.7838302  -2.4590518  53.6478851
  56.2575916  -3.7552471  54.2265297  59.1352641  -8.0516191  52.2895910
  58.9998316  -7.2064655  52.7180758  59.6762454  -7.8496913  51.5261844
  54.3976924  -7.4174996  54.9446589  54.5743552  -6.4957032  54.7567573
  55.1933757  -7.7316577  55.3740968  55.5208239  -5.8996823  60.9456931
  56.0715664  -6.0279759  60.1733925  54.6819715  -5.6001933  60.5951824
  61.7348802  -3.9781985  48.7251633  61.0610501  -3.6750288  49.3336591
  62.1214624  -3.1752904  48.3757090  58.6454788  -6.3603460  56.1213376
  58.6030967  -6.1342613  55.1921908  59.5617487  -6.5940085  56.2699177
  61.5815434  -7.1022335  60.2687706  61.6352456  -6.5331399  61.0365422
  60.7130215  -6.9320450  59.9041744  59.9340017  -3.8102312  50.9398713
  60.1091773  -4.2814269  51.7544335  59.2472805  -3.1836546  51.1679973
  54.5001102  -0.6612950  57.7138573  54.7397701  -0.0294425  58.3917591
  53.6570299  -1.0124910  58.0003932  59.0128964  -4.8533827  60.1180077
  58.9399136  -4.0478856  60.6299381  58.5706357  -4.6541861  59.2928098
  58.8018744  -5.6162057  53.6282898  58.0186266  -5.0740377  53.7221123
  59.5011489  -5.0988077  54.0277139  61.4727648  -4.9546993  62.2738235
  62.1855620  -4.3199528  62.2014137  60.9817676  -4.8583127  61.4578237
  56.5239561  -7.2052550  63.0943806  57.2249021  -6.5716067  63.2473200
  56.0534676  -6.8637818  62.3339445  61.2848021  -4.6148249  55.0224527
  61.4670416  -5.4326593  55.4852279  62.1081007  -4.3980557  54.5849417
  61.6190187  -5.6880064  52.2839575  62.1477953  -6.1987609  51.6709737
  61.8818406  -6.0037534  53.1485108  52.1207279  -7.6716195  60.0274909
  52.7060716  -8.4172507  60.1602813  51.9232118  -7.3612238  60.9111573
  54.9745934  -4.6364947  55.0437351  54.3056310  -4.1518820  54.5601391
  54.8358804  -4.3895727  55.9580730  59.1151203  -2.6021204  61.6420010
  59.6669511  -2.4389582  62.4069095  59.4557397  -2.0116766  60.9700034
  62.2519590  -4.6539228  58.6283692  62.1270730  -5.4549488  58.1194637
  62.9098681  -4.1593035  58.1397662  59.2617014  -5.0362722  63.6568664
  59.5704141  -5.2813575  64.5291364  60.0592496  -4.8316084  63.1687534
  59.2837626  -2.8824812  55.8874040  58.8442617  -3.3748434  56.5806897
  60.0345743  -3.4251845  55.6466116  51.7629965  -6.6913272  55.8898669
  52.5887985  -6.9909500  55.5097312  51.4124017  -7.4605649  56.3388457
  56.7311499  -7.3386803  57.9596342  56.1091508  -8.0016098  57.6598570
  57.4016365  -7.3125671  57.2769990  49.9638570  -8.7726945  56.8487602
  49.1270479  -9.2004771  56.6671603  49.9362216  -8.5794502  57.7858393
  59.7920411  -6.2934750  48.9066550  59.2194378  -5.6744562  48.4537022
  60.3653205  -5.7435388  49.4406472  63.0117671  -6.0097599  50.0375132
  63.9448344  -6.0752038  50.2408008  62.9240884  -5.1741333  49.5789665
  52.0750676  -4.5600657  57.6112483  51.9405144  -5.3200256  57.0450481
  51.6582739  -3.8359757  57.1441272  55.2319802  -3.6631340  57.8230926
  55.1152186  -2.7185908  57.7209616  54.4112248  -3.9657779  58.2116725
  56.2574316  -3.0103078  61.0386854  57.1601563  -2.9779468  61.3553349
  56.0311686  -3.9402627  61.0533190  58.0127918  -4.2572092  57.6996933
  57.0623549  -4.2570230  57.5861305  58.3160404  -5.0039357  57.1832967
  73.7480612   1.5788447  58.7642695  74.3859022   1.4595194  58.0606035
  73.6301455   2.5269291  58.8230647  70.5570318   1.5315875  58.7004220
  70.2188830   1.4156939  57.8124755  71.4260086   1.1307040  58.6805226
  66.4157134   3.3851351  54.6901111  65.8521999   3.2941288  53.9217398
  66.3009529   2.5651256  55.1703603  71.0390101   2.6850726  64.6590425
  71.0278742   2.2903525  63.7870929  71.2010741   1.9516799  65.2524197
  63.9621566   4.8802543  57.5285331  64.7542858   4.5393367  57.1131630
  64.2018216   4.9897518  58.4487484  71.9956692   7.0522319  50.0015576
  71.3444672   7.6376399  49.6149589  72.7901055   7.5828514  50.0610613
  65.9212320   4.1411456  50.4002710  66.6943196   3.5940443  50.2615586
  66.2737718   5.0055705  50.6117171  67.7597362   5.4687838  63.6069609
  67.4687228   6.3733469  63.4916276  68.3954347   5.5104366  64.3213679
  68.6853569   2.8464687  60.1970969  69.2817141   2.6220709  59.4827932
  68.7428541   2.1049432  60.7996417  68.2578597   0.3004122  48.0321160
  68.5104118  -0.2214357  47.2704623  67.3203157   0.1370268  48.1347843
  73.3021880  -0.6960100  55.8395903  74.0884969  -1.1140676  55.4886320
  73.5660585   0.2085993  56.0077552  73.4731958   4.7412751  50.5384560
  72.8377791   4.8147377  51.2505465  73.1429364   5.3306350  49.8603639
  67.9774886   2.2032228  50.2345535  67.8611144   1.5277131  50.9026619
  68.0877146   1.7164602  49.4177688  70.3206427   1.6642375  53.9392224
  69.9564634   1.1372996  54.6505146  71.1773543   1.2740844  53.7658709
  69.9611914  -3.3067725  48.9353573  70.1286316  -2.4387489  49.3024044
  69.7709083  -3.1440443  48.0114862  72.7187247   5.1549254  60.6019403
  72.4187970   6.0574293  60.4935210  72.3738307   4.8881437  61.4540556
  66.1699729   1.6063051  56.6356107  65.2450225   1.4739265  56.8433799
  66.4184142   2.3857270  57.1326050  69.9401135  -0.8510068  49.9200239
  69.8200760  -0.4053017  50.7585720  69.2453723  -0.5024750  49.3613778
  63.5308540   1.2496324  57.4699896  63.6600921   1.5030803  58.3839308
  62.8505991   1.8424032  57.1504552  67.7008027  11.9193574  53.5690371
  67.6232057  12.8701399  53.6478851  67.0969671  11.5739447  54.2265297
  70.1925257  -0.9078560  66.2251738  69.4158591  -0.3484640  66.2154602
  70.8315820  -0.4221777  66.7466608  75.6386201  -0.3788594  50.7480573
  76.5504057  -0.1461208  50.5728271  75.1295848   0.2048450  50.1855652
  68.4471629   1.9006893  65.7869705  69.1886314   2.4391937  65.5104528
  67.7408615   2.5273182  65.9441256  73.9226969   4.0436033  64.3841866
  74.3310325   3.6018444  63.6396498  73.2004230   3.4688661  64.6376059
  70.2758039  -1.0191360  61.7575423  71.1219234  -0.5951946  61.9010072
  70.2156676  -1.6757736  62.4513986  74.2455783   4.6037224  58.1394155
  73.6164646   4.7682938  57.4370223  73.8581446   5.0178834  58.9105119
  78.1245015   5.5391662  55.4938519  77.4396053   5.9190563  54.9435552
  78.2088865   6.1486989  56.2270466  75.3795947   3.1851621  62.0933862
  75.5912842   3.8283381  61.4168243  75.3325695   2.3513937  61.6255792
  69.7983745   4.3411632  55.4044240  70.2622091   4.6199335  54.6148863
  69.5340543   3.4395077  55.2217331  66.6907826   3.8883114  58.3424003
  67.2609183   4.3170382  57.7041488  67.2815938   3.6065698  59.0408189
  68.7352631   0.4634784  52.2133805  69.4376675   0.9155828  52.6807732
  68.4033260  -0.1781397  52.8413698  67.1832993  -0.9453459  66.5885015
  66.5531653  -0.2637178  66.8220411  67.0769081  -1.0570377  65.6438153
  62.4777965  -1.2781663  57.5150939  61.6877019  -1.0224134  57.0391049
  62.9689213  -0.4633325  57.6202979  76.4941775   6.0623576  60.2656220
  77.3159219   5.6603764  59.9838901  76.4904178   5.9591810  61.2172335
  64.4292711  -0.9137084  54.4734415  63.6323874  -0.8018389  54.9917911
  64.2018303  -0.5750431  53.6075306  70.2598378   5.6107620  62.4216930
  70.3242811   6.0728027  63.2575102  69.5509302   4.9804985  62.5499240
  60.7615668  -1.0251172  59.9465930  61.0123707  -0.1404163  60.2123505
  61.2975217  -1.2046571  59.1741021  84.5847768   2.4062325  56.6141191
  83.8311476   1.8369723  56.4585195  84.7195309   2.3724989  57.5611826
  69.9746396   7.2775727  52.2895910  69.8392071   8.1227263  52.7180758
  70.5156208   7.4795005  51.5261844  63.4275793   4.7951165  52.8623835
  63.9400314   5.5894415  53.0129400  64.0798506   4.0977456  52.7957437
  65.2370678   7.9116921  54.9446589  65.4137306   8.8334886  54.7567573
  66.0327512   7.5975341  55.3740968  64.5223035  -0.0418447  64.8208752
  64.4076550  -0.9433189  65.1215851  63.6667552   0.2045250  64.4693568
  71.6014872   7.8999294  66.4196252  71.1578727   7.1135672  66.1017157
  72.2632086   8.0878444  65.7540143  66.3601994   9.4295095  60.9456931
  66.9109419   9.3012159  60.1733925  65.5213469   9.7289984  60.5951824
  73.6996110   8.1802094  64.4477654  73.6814586   9.0010975  63.9557923
  74.6216030   8.0556169  64.6727795  70.1569165   5.6946223  65.2901162
  70.6897501   4.9334511  65.0600470  69.6283246   5.4019875  66.0325317
  61.3924710   3.1239819  53.6383406  62.2299932   3.5336828  53.4217114
  61.5702978   2.1839262  53.6083600  73.2889142   0.7914900  49.3267239
  72.7735766   1.5619505  49.5655626  73.0166451   0.1180036  49.9500300
  78.2623416   3.5447255  51.2620412  77.4852859   3.2058414  50.8175575
  78.9414897   3.5499878  50.5875377  73.0775445  -1.3358008  51.1527020
  72.7725581  -1.0211859  52.0037163  74.0305888  -1.2576588  51.1954353
  71.5221877   4.8232215  52.8019974  70.9943239   4.0884975  52.4893212
  71.0209380   5.6006892  52.5559942  76.5014723   3.0181236  57.9187020
  75.8438398   3.7080497  58.0067149  77.3055123   3.4077668  58.2621007
  66.2540605  -4.5148118  55.1626586  66.8284357  -4.7372937  54.4299779
  66.8411587  -4.4459424  55.9155187  75.3120182   1.3725609  55.9690962
  75.8252064   2.0055600  56.4712672  75.9621406   0.7726804  55.6034322
  66.5810192  -2.4843657  49.1822471  65.7447504  -2.1468971  49.5031746
  66.4414962  -2.6194677  48.2449608  69.6674477   2.6412426  45.8054947
  68.7601539   2.4101679  46.0046096  70.1645509   1.8450045  45.9928929
  72.5742556  11.3509933  48.7251633  71.9004255  11.6541630  49.3336591
  72.9608378  12.1539013  48.3757090  71.7901013  -1.1524936  58.2149303
  70.8723574  -0.9309989  58.0570991  72.2061157  -1.0778625  57.3561010
  72.5736061   0.2466480  53.3451983  73.3207880   0.7587877  53.0359105
  72.8427650  -0.0749467  54.2056377  70.8462711   2.7425021  50.3278937
  69.9373930   2.4584053  50.4251407  70.8757795   3.1624099  49.4682244
  76.0781978   6.3531610  54.0970105  75.6244305   5.5122520  54.1535295
  75.4475945   6.9893008  54.4344885  74.5214918   8.1908107  55.0319923
  74.8137892   8.7513164  54.3132289  75.0313538   8.4836668  55.7873082
  61.4150881   0.4630535  54.3094139  61.2175281  -0.1300105  53.5845206
  60.8597545   0.1582745  55.0270078  69.3947605   0.3553641  56.4288733
  69.4496215  -0.5972522  56.3531209  68.5838807   0.5113080  56.9130031
  70.5438799   4.2833764  47.6667016  70.1058229   3.5669623  47.2072653
  71.2849240   4.5109879  47.1052107  67.3339965  -1.0269299  54.1879111
  66.5207830  -0.7275128  54.5944304  67.8298959  -1.4213610  54.9053594
  69.4848543   8.9688458  56.1213376  69.4424722   9.1949304  55.1921908
  70.4011242   8.7351832  56.2699177  72.9314177  -0.5627475  63.0194005
  73.2863564  -0.3356001  63.8788471  73.5786308  -0.2309098  62.3971261
  78.6611913   2.5590961  53.7243334  78.5229812   2.7492557  52.7964524
  78.3048132   3.3210344  54.1811386  66.8254040  -3.4550944  59.8040346
  67.4653419  -3.5962184  59.1063310  65.9931570  -3.7416430  59.4278948
  78.6881293   4.6267488  58.7354606  79.1217800   4.5342777  59.5837660
  79.4012874   4.6024989  58.0974622  67.6014344   5.8451487  55.9175339
  68.3954942   5.3501807  55.7157914  66.8906036   5.3169350  55.5543044
  72.4209188   8.2269582  60.2687706  72.4746210   8.7960519  61.0365422
  71.5523969   8.3971467  59.9041744  63.9097107  -0.0105431  51.9935092
  62.9794695  -0.0720976  52.2105054  64.0054579  -0.5329479  51.1971733
  63.8282656  -3.4850619  54.5813333  64.0889473  -2.5705285  54.4722494
  64.6499828  -3.9526176  54.7309946  65.3007581  -2.0712861  61.7512158
  65.9730635  -2.2795499  61.1024807  64.4737368  -2.2690775  61.3117390
  79.5496843   4.6691189  61.2687491  79.7432733   5.5736999  61.5146766
  79.4497461   4.2098608  62.1026076  74.6111951   4.8197932  66.8428372
  74.4597458   4.5908483  65.9258456  74.6016631   5.7768533  66.8559717
  71.3797288   2.3929844  61.8274638  72.3089348   2.5441004  61.6543606
  70.9588318   2.4813865  60.9723285  70.1785620   6.4180509  59.5973176
  70.0396705   6.0499293  60.4699114  69.3900216   6.9328148  59.4257134
  70.7733771  11.5189605  50.9398713  70.9485527  11.0477649  51.7544335
  70.0866560  12.1455372  51.1679973  71.7290835   5.7962112  56.9862014
  71.3940667   5.7562882  57.8819664  71.2294780   5.1306828  56.5132424
  65.7035079   1.2029742  62.5114595  65.5654877   0.4709980  63.1126134
  66.6140002   1.1138642  62.2298783  74.6650026   3.1418146  47.2599073
  74.0479197   2.4164974  47.1632126  74.1966515   3.9027506  46.9166148
  68.3317379   0.9149701  61.9998275  69.0416998   0.2742893  61.9584893
  68.2886687   1.1662596  62.9224455  76.3204158   7.8517054  64.9204854
  76.2616704   7.1676274  64.2535437  76.7223676   8.5936044  64.4685480
  67.0446313  -2.0985081  63.8193914  66.5083670  -2.5494343  64.4715510
  66.4563022  -1.9639172  63.0764378  65.3394857  14.6678968  57.7138573
  65.5791455  15.2997492  58.3917591  64.4964053  14.3167008  58.0003932
  66.4548572  -2.6396430  46.3820378  65.5778039  -2.7607629  46.0182624
  66.9306325  -3.4310351  46.1299266  76.3221565   5.8156638  63.1518833
  75.4348344   5.4782560  63.2745232  76.8920116   5.0839669  63.3887599
  57.9750712   2.1480730  56.4761885  58.6621752   1.8342460  55.8882900
  57.8198841   3.0522095  56.2029136  62.7785435  -2.9629073  60.9046909
  62.6943623  -3.5703404  60.1697318  61.9568141  -2.4720055  60.9056405
  69.8522719  10.4758091  60.1180077  69.7792890  11.2813062  60.6299381
  69.4100112  10.6750056  59.2928098  69.6412498   9.7129861  53.6282898
  68.8580020  10.2551541  53.7221123  70.3405243  10.2303840  54.0277139
  80.8038906   1.2264856  57.9135395  80.7928782   2.1089571  57.5429328
  79.9356285   0.8736406  57.7189932  72.3121402  10.3744925  62.2738235
  73.0249374  11.0092389  62.2014137  71.8211431  10.4708791  61.4578237
  74.0338929   4.2796177  53.8455527  73.0995208   4.3997640  53.6760231
  74.2115598   3.3768644  53.5815537  69.5344117  -2.3358127  55.9988788
  69.1641905  -2.8887087  56.6869694  70.0303210  -2.9399993  55.4463788
  77.4211480   0.1213497  54.3805561  77.8871933   0.9541488  54.3065864
  77.8718981  -0.3441522  55.0850820  67.3633316   8.1239368  63.0943806
  68.0642775   8.7575851  63.2473200  66.8928431   8.4654100  62.3339445
  75.4887712   6.4657318  51.3791713  75.7647555   6.3513912  52.2885587
  74.6192210   6.0674803  51.3403886  75.1634602   0.6783976  60.9196356
  74.5106052   0.9259883  60.2648809  75.5414982  -0.1351886  60.5858834
  72.1241776  10.7143669  55.0224527  72.3064170   9.8965325  55.4852279
  72.9474762  10.9311361  54.5849417  72.4583941   9.6411854  52.2839575
  72.9871707   9.1304308  51.6709737  72.7212161   9.3254384  53.1485108
  71.2122175   1.4203787  67.4062394  70.5362812   1.3197916  68.0764769
  72.0349809   1.2643000  67.8698391  62.9601034   7.6575723  60.0274909
  63.5454471   6.9119411  60.1602813  62.7625872   7.9679680  60.9111573
  65.8139689  10.6926970  55.0437351  65.1450064  11.1773098  54.5601391
  65.6752559  10.9396191  55.9580730  57.5518688   0.2281323  58.7479352
  57.5902788  -0.3055086  59.5416470  57.0458981  -0.2983471  58.1290329
  69.9544958  12.7270714  61.6420010  70.5063266  12.8902336  62.4069095
  70.2951151  13.3175152  60.9700034  64.9309451  -4.9254136  62.2441894
  64.9950777  -4.0639305  61.8319292  64.8676571  -5.5380135  61.5114253
  64.4061723  -2.8531004  65.8914929  65.0333762  -3.2353926  66.5052453
  63.5489642  -3.0716802  66.2570621  74.8055832   7.5531972  67.4968664
  75.3495736   8.1661930  67.0023619  74.2242677   8.1111550  68.0135677
  61.1827266  -1.0454575  51.8233283  61.4780707  -1.9543896  51.7700337
  60.2815302  -1.0666835  51.5014286  73.0913345  10.6752690  58.6283692
  72.9664484   9.8742429  58.1194637  73.7492436  11.1698883  58.1397662
  64.7121513  -2.9698578  57.8060832  63.9908099  -2.3562610  57.6668305
  65.5014769  -2.4340813  57.7277478  75.1548253   8.4761710  60.2563242
  74.2078589   8.3567061  60.1841569  75.5031026   7.5884208  60.3389503
  62.9115108  -3.3640477  51.9472609  62.5827814  -4.2443098  51.7647714
  63.2654478  -3.4192808  52.8348998  72.1594687   8.2714426  56.4567594
  72.0119649   7.3431133  56.6375164  72.9848180   8.2934517  55.9724669
  66.0256931  -3.0767507  52.3148086  66.3653003  -2.5481586  51.5926695
  66.4729051  -2.7387101  53.0906653  75.7628808   9.0942985  57.5432467
  76.6875356   8.8885846  57.4056918  75.5944112   8.8459386  58.4521808
  68.0125078  -4.5792885  50.5141379  68.7333440  -4.2011633  50.0105096
  67.3890382  -3.8604009  50.6176357  66.8955422  -0.9162023  58.0270456
  66.7500003  -0.6021720  58.9194737  66.4180626  -0.2977123  57.4741355
  70.6077936  -3.4922135  60.1204473  70.3495714  -2.5705064  60.1188803
  70.0762976  -3.8891701  60.8104937  75.5524125   9.6128652  52.8994558
  75.7261002   9.0475075  52.1468411  76.0453016  10.4129547  52.7174048
  61.3701084   1.6243321  60.9658117  60.8254552   2.4003129  61.0978391
  62.2480434   1.9714126  60.8077238  81.4063516   2.3765075  54.5184858
  81.8494662   1.6272400  54.1203981  80.5290026   2.3675211  54.1358590
  76.5399297   8.9295416  49.9991457  77.2350202   9.5502109  50.2178771
  76.8822447   8.0790768  50.2743834  62.1567106   0.7513217  63.8588274
  61.4148842   0.8995853  64.4452904  61.8359851   1.0121483  62.9955023
  78.4390720   6.3795122  51.5278787  78.9642044   6.7182395  50.8028107
  78.3513073   5.4442137  51.3441922  70.1010769  10.2929196  63.6568664
  70.4097895  10.0478342  64.5291364  70.8986251  10.4975834  63.1687534
  70.1231381  12.4467105  55.8874040  69.6836371  11.9543484  56.5806897
  70.8739498  11.9040073  55.6466116  62.6023720   8.6378646  55.8898669
  63.4281740   8.3382418  55.5097312  62.2517772   7.8686269  56.3388457
  67.5705253   7.9905114  57.9596342  66.9485262   7.3275819  57.6598570
  68.2410120   8.0166246  57.2769990  60.8032325   6.5564973  56.8487602
  59.9664233   6.1287147  56.6671603  60.7755970   6.7497416  57.7858393
  67.6429781  -3.5313098  67.5528848  67.6917936  -2.6550975  67.1706618
  68.1852295  -4.0735705  66.9800491  78.1284626   7.0128026  66.8329985
  77.3380170   6.9952164  66.2934485  77.8917981   7.5516319  67.5879022
  78.2482501   3.8620492  64.1462714  78.2980506   3.6970499  65.0878237
  78.1396425   2.9947751  63.7560595  67.1318760   6.5409038  51.4354803
  67.2806880   7.2244502  50.7821475  67.9385203   6.5214128  51.9504258
  75.5386264  -0.1548580  65.4622020  76.4396126  -0.2942115  65.1706018
  75.6134238   0.0105875  66.4020198  69.8729069  -2.7781725  64.3075207
  69.0032378  -2.4848159  64.0357795  70.1088549  -2.1941280  65.0282470
  79.7500698   6.2817433  64.3904735  79.4585506   6.6447414  65.2268196
  79.1372829   5.5684442  64.2118067  80.9496380   3.8470313  56.9107306
  81.7843272   4.2860117  57.0744866  81.0855509   3.3708966  56.0915551
  77.9987886   1.4050048  62.8584793  78.4742008   1.5977694  62.0503645
  77.0753452   1.4609234  62.6128177  64.8871393   2.5674215  52.4415872
  64.6417435   1.6636545  52.6396082  65.0567308   2.5691366  51.4995350
  64.1567040  -1.6997427  49.9402033  63.4636285  -1.6253072  49.2842069
  63.9118792  -2.4637083  50.4623550  70.6314166   9.0357168  48.9066550
  70.0588133   9.6547355  48.4537022  71.2046959   9.5856530  49.4406472
  73.8511425   9.3194318  50.0375132  74.7842098   9.2539880  50.2408008
  73.7634638  10.1550585  49.5789665  76.4799442   8.6360189  46.9979080
  76.4013073   8.3020052  47.8914838  77.3009109   9.1281956  46.9970552
  79.1777633   1.5021928  60.2055399  79.1453953   0.5637929  60.3915082
  79.7878257   1.5805965  59.4721223  71.0160964   0.3717981  46.2482603
  71.9620069   0.2424189  46.3171021  70.6375209  -0.3667357  46.7252031
  84.9954183   2.5637935  59.3461435  85.7257571   2.3023223  59.9069139
  84.3861128   1.8266657  59.3863503  83.0769480   0.7045797  59.9435887
  82.3502644   0.5701762  59.3352378  82.6616767   1.0122626  60.7492605
  70.8999657   4.4235727  67.7083260  71.8202666   4.6014326  67.9023306
  70.8649240   3.4791772  67.5562959  69.2003881  -1.7032043  46.1837488
  68.2935337  -1.9998930  46.2600201  69.4779862  -2.0002225  45.3171774
  60.1181822  -0.3825679  56.6336534  59.7984606  -1.2360371  56.3410908
  59.5715250  -0.1677101  57.3894502  63.8961729   2.3336762  60.3506041
  64.1147739   3.2653869  60.3694075  64.3087503   1.9744736  61.1360845
  68.7689594  -2.0930033  69.7408790  68.6686321  -1.1435676  69.6720881
  68.5511136  -2.4211794  68.8684860  59.9870082   3.2377232  58.6029656
  59.2933553   2.8231185  58.0899610  60.7343073   3.2797769  58.0063075
  68.6320864   1.3367106  68.5573851  68.1487946   2.1367466  68.7637740
  68.7181804   1.3475051  67.6041295  61.9006824   3.1695486  56.4795671
  61.8777512   3.2683173  55.5277554  62.2107461   4.0160637  56.8012837
  64.5594202   5.2271641  60.5942285  65.5137456   5.1955583  60.5272217
  64.3606726   4.7662265  61.4092511  65.1493584   3.7972757  63.1613083
  65.9686473   4.2916836  63.1847920  65.4230392   2.8804725  63.1330650
  62.9144431  10.7691260  57.6112483  62.7798899  10.0091661  57.0450481
  62.4976493  11.4932160  57.1441272  74.0503394   5.9528184  46.6189058
  74.7539244   6.1578186  47.2346714  73.3266043   6.5204946  46.8838142
  74.8801204   1.7038045  52.7391328  74.8236405   2.1606597  51.8998961
  75.4329546   0.9428730  52.5614171  66.0713557  11.6660577  57.8230926
  65.9545941  12.6106010  57.7209616  65.2506003  11.3634139  58.2116725
  75.9590091   6.3910713  48.6687518  76.7935695   5.9591912  48.4864993
  75.7974434   6.2192727  49.5964413  75.6135983   2.8942826  50.0343858
  75.5584787   2.7287098  49.0932302  74.9882039   3.6018859  50.1906047
  60.4028498  -1.8689109  63.8605280  61.0487362  -2.3790155  64.3492505
  60.1945649  -1.1320427  64.4348705  72.9281891   5.1991738  69.3597420
  73.7973050   5.3732391  68.9984055  72.4488642   6.0186155  69.2373150
  67.0968071  12.3188839  61.0386854  67.9995317  12.3512450  61.3553349
  66.8705441  11.3889290  61.0533190  68.8521673  11.0719826  57.6996933
  67.9017304  11.0721688  57.5861305  69.1554159  10.3252560  57.1832967
  64.7425989  -4.7221492  67.9580294  65.6057451  -5.0784687  68.1683619
  64.1691400  -5.0607597  68.6455698  84.5874366  16.9080364  58.7642695
  85.2252776  16.7887112  58.0606035  84.4695209  17.8561208  58.8230647
  81.3964073  16.8607792  58.7004220  81.0582584  16.7448857  57.8124755
  82.2653841  16.4598957  58.6805226  77.2550888  18.7143269  54.6901111
  76.6915753  18.6233206  53.9217398  77.1403283  17.8943173  55.1703603
  81.8783856  18.0142644  64.6590425  81.8672496  17.6195442  63.7870929
  82.0404495  17.2808717  65.2524197  74.8015320  20.2094460  57.5285331
  75.5936612  19.8685285  57.1131630  75.0411970  20.3189435  58.4487484
  82.8350447  22.3814237  50.0015576  82.1838427  22.9668317  49.6149589
  83.6294810  22.9120431  50.0610613  76.7606074  19.4703374  50.4002710
  77.5336950  18.9232361  50.2615586  77.1131473  20.3347623  50.6117171
  78.5991117  20.7979756  63.6069609  78.3080983  21.7025387  63.4916276
  79.2348101  20.8396284  64.3213679  79.5247324  18.1756604  60.1970969
  80.1210896  17.9512627  59.4827932  79.5822295  17.4341350  60.7996417
  79.0972352  15.6296040  48.0321160  79.3497873  15.1077561  47.2704623
  78.1596911  15.4662185  48.1347843  84.1415635  14.6331818  55.8395903
  84.9278724  14.2151241  55.4886320  84.4054339  15.5377910  56.0077552
  84.3125712  20.0704668  50.5384560  83.6771545  20.1439295  51.2505465
  83.9823119  20.6598267  49.8603639  89.5424062  14.5707051  56.7428882
  90.2749234  14.0006268  56.9766711  88.7863418  14.1828652  57.1835387
  78.8168641  17.5324146  50.2345535  78.7004899  16.8569049  50.9026619
  78.9270901  17.0456520  49.4177688  81.1600182  16.9934293  53.9392224
  80.7958389  16.4664914  54.6505146  82.0167298  16.6032762  53.7658709
  87.0649482   8.2828625  61.2023490  86.7332807   9.1524036  60.9784705
  86.4695096   7.9664909  61.8817521  80.8005669  12.0224193  48.9353573
  80.9680071  12.8904429  49.3024044  80.6102838  12.1851474  48.0114862
  83.5581002  20.4841171  60.6019403  83.2581725  21.3866210  60.4935210
  83.2132061  20.2173355  61.4540556  77.0093483  16.9354968  56.6356107
  76.0843980  16.8031182  56.8433799  77.2577896  17.7149188  57.1326050
  86.9578146  13.0023712  58.2816840  86.0495023  12.9339120  57.9875601
  86.9065741  13.4795657  59.1098666  80.7794889  14.4781850  49.9200239
  80.6594515  14.9238901  50.7585720  80.0847478  14.8267168  49.3613778
  74.3702294  16.5788242  57.4699896  74.4994675  16.8322721  58.3839308
  73.6899746  17.1715950  57.1504552  81.0319011  14.4213357  66.2251738
  80.2552345  14.9807277  66.2154602  81.6709574  14.9070140  66.7466608
  88.8239792  11.2040150  60.0594714  88.1814172  11.4972683  59.4134509
  88.3194720  11.0893070  60.8647911  86.4779956  14.9503323  50.7480573
  87.3897812  15.1830710  50.5728271  85.9689603  15.5340367  50.1855652
  79.2865384  17.2298811  65.7869705  80.0280068  17.7683855  65.5104528
  78.5802369  17.8565099  65.9441256  84.7620723  19.3727951  64.3841866
  85.1704079  18.9310362  63.6396498  84.0397985  18.7980579  64.6376059
  81.1151793  14.3100558  61.7575423  81.9612989  14.7339971  61.9010072
  81.0550431  13.6534182  62.4513986  85.0849538  19.9329142  58.1394155
  84.4558400  20.0974856  57.4370223  84.6975200  20.3470751  58.9105119
  88.9638770  20.8683580  55.4938519  88.2789808  21.2482481  54.9435552
  89.0482619  21.4778906  56.2270466  84.2651239  11.9704926  63.4156597
  84.0212171  12.7246987  62.8790872  84.5411169  12.3490274  64.2503844
  86.2189701  18.5143539  62.0933862  86.4306597  19.1575298  61.4168243
  86.1719450  17.6805855  61.6255792  83.8215930  11.1261359  58.9970434
  82.9600409  11.4242613  59.2887172  83.8478365  11.3431758  58.0651467
  80.6377500  19.6703550  55.4044240  81.1015845  19.9491253  54.6148863
  80.3734298  18.7686994  55.2217331  77.5301581  19.2175031  58.3424003
  78.1002938  19.6462300  57.7041488  78.1209693  18.9357616  59.0408189
  79.5746386  15.7926702  52.2133805  80.2770429  16.2447746  52.6807732
  79.2427014  15.1510521  52.8413698  78.0226747  14.3838459  66.5885015
  77.3925408  15.0654740  66.8220411  77.9162835  14.2721540  65.6438153
  73.3171720  14.0510255  57.5150939  72.5270774  14.3067783  57.0391049
  73.8082967  14.8658593  57.6202979  87.3335529  21.3915494  60.2656220
  88.1552973  20.9895681  59.9838901  87.3297932  21.2883728  61.2172335
  75.2686465  14.4154834  54.4734415  74.4717628  14.5273528  54.9917911
  75.0412057  14.7541486  53.6075306  81.0992133  20.9399537  62.4216930
  81.1636565  21.4019945  63.2575102  80.3903057  20.3096902  62.5499240
  71.6009423  14.3040745  59.9465930  71.8517461  15.1887755  60.2123505
  72.1368971  14.1245347  59.1741021  95.4241522  17.7354242  56.6141191
  94.6705231  17.1661641  56.4585195  95.5589064  17.7016907  57.5611826
  80.8140150  22.6067645  52.2895910  80.6785825  23.4519180  52.7180758
  81.3549963  22.8086922  51.5261844  77.3007490   8.6859225  68.9510266
  76.9074436   8.1325423  69.6257910  78.1173630   8.9969803  69.3416783
  74.2669548  20.1243083  52.8623835  74.7794068  20.9186333  53.0129400
  74.9192261  19.4269373  52.7957437  76.0764433  23.2408839  54.9446589
  76.2531061  24.1626804  54.7567573  76.8721266  22.9267258  55.3740968
  80.2175451  10.1017104  66.5430522  80.9585164  10.7024257  66.4634985
  80.4493374   9.3594741  65.9848565  75.3616789  15.2873471  64.8208752
  75.2470304  14.3858728  65.1215851  74.5061307  15.5337168  64.4693568
  82.4408627  23.2291211  66.4196252  81.9972481  22.4427590  66.1017157
  83.1025840  23.4170362  65.7540143  77.1995748  24.7587013  60.9456931
  77.7503173  24.6304076  60.1733925  76.3607224  25.0581902  60.5951824
  84.5389865  23.5094011  64.4477654  84.5208340  24.3302892  63.9557923
  85.4609785  23.3848086  64.6727795  80.9962919  21.0238141  65.2901162
  81.5291256  20.2626429  65.0600470  80.4677000  20.7311792  66.0325317
  84.1632614   6.1298207  60.8194804  83.8196883   7.0199848  60.7433914
  84.5311577   5.9399864  59.9564389  72.2318465  18.4531737  53.6383406
  73.0693687  18.8628745  53.4217114  72.4096732  17.5131179  53.6083600
  84.1282897  16.1206818  49.3267239  83.6129520  16.8911422  49.5655626
  83.8560205  15.4471954  49.9500300  81.7130008  10.9656519  54.3852477
  80.8571604  10.5763369  54.2058116  82.1256960  11.0448479  53.5252263
  83.2429154   8.5002862  58.7844037  82.7393950   8.4632997  57.9711842
  83.5359761   9.4095605  58.8440694  79.4872040   8.5841592  57.7910219
  80.3525037   8.3884400  57.4316108  79.5549549   8.3551943  58.7179576
  89.1017171  18.8739172  51.2620412  88.3246614  18.5350332  50.8175575
  89.7808652  18.8791796  50.5875377  83.9169200  13.9933910  51.1527020
  83.6119335  14.3080059  52.0037163  84.8699642  14.0715330  51.1954353
  82.3615632  20.1524133  52.8019974  81.8336993  19.4176893  52.4893212
  81.8603134  20.9298810  52.5559942  87.3408478  18.3473154  57.9187020
  86.6832152  19.0372415  58.0067149  88.1448877  18.7369586  58.2621007
  77.0934359  10.8143799  55.1626586  77.6678111  10.5918981  54.4299779
  77.6805342  10.8832494  55.9155187  86.1513937  16.7017526  55.9690962
  86.6645818  17.3347518  56.4712672  86.8015160  16.1018722  55.6034322
  77.4203946  12.8448260  49.1822471  76.5841259  13.1822947  49.5031746
  77.2808716  12.7097240  48.2449608  79.3957027   7.6885048  53.8901655
  78.7421439   7.3734066  53.2658270  79.3537501   7.0660789  54.6161478
  80.5068232  17.9704343  45.8054947  79.5995294  17.7393597  46.0046096
  81.0039264  17.1741963  45.9928929  82.6294767  14.1766982  58.2149303
  81.7117329  14.3981929  58.0570991  83.0454911  14.2513292  57.3561010
  83.4129815  15.5758398  53.3451983  84.1601634  16.0879795  53.0359105
  83.6821405  15.2542450  54.2056377  81.6856465  18.0716938  50.3278937
  80.7767685  17.7875971  50.4251407  81.7151549  18.4916017  49.4682244
  86.9175733  21.6823528  54.0970105  86.4638060  20.8414438  54.1535295
  86.2869700  22.3184926  54.4344885  85.8608652  12.6115514  55.3270772
  85.1231409  12.0992900  55.6581015  86.1135426  12.1715895  54.5154049
  85.3608672  23.5200024  55.0319923  85.6531646  24.0805082  54.3132289
  85.8707293  23.8128585  55.7873082  85.9620280   5.3891766  55.9212542
  86.2679156   4.5289129  55.6338457  86.6872885   5.9809386  55.7211535
  72.2544636  15.7922452  54.3094139  72.0569036  15.1991813  53.5845206
  71.6991300  15.4874663  55.0270078  80.2341359  15.6845559  56.4288733
  80.2889969  14.7319395  56.3531209  79.4232561  15.8404998  56.9130031
  81.3832553  19.6125682  47.6667016  80.9451983  18.8961541  47.2072653
  82.1242994  19.8401797  47.1052107  78.1733719  14.3022619  54.1879111
  77.3601585  14.6016789  54.5944304  78.6692714  13.9078307  54.9053594
  80.3242297  24.2980376  56.1213376  80.2818476  24.5241222  55.1921908
  81.2404996  24.0643750  56.2699177  83.7707931  14.7664443  63.0194005
  84.1257319  14.9935916  63.8788471  84.4180062  15.0982820  62.3971261
  89.5005668  17.8882879  53.7243334  89.3623567  18.0784475  52.7964524
  89.1441887  18.6502262  54.1811386  77.6647794  11.8740974  59.8040346
  78.3047173  11.7329733  59.1063310  76.8325325  11.5875488  59.4278948
  89.5275048  19.9559406  58.7354606  89.9611554  19.8634695  59.5837660
  90.2406628  19.9316906  58.0974622  78.4408098  21.1743405  55.9175339
  79.2348697  20.6793725  55.7157914  77.7299790  20.6461268  55.5543044
  83.2602942  23.5561500  60.2687706  83.3139965  24.1252436  61.0365422
  82.3917724  23.7263385  59.9041744  74.7490861  15.3186486  51.9935092
  73.8188450  15.2570942  52.2105054  74.8448333  14.7962439  51.1971733
  74.6676411  11.8441299  54.5813333  74.9283228  12.7586632  54.4722494
  75.4893583  11.3765742  54.7309946  76.1401336  13.2579056  61.7512158
  76.8124389  13.0496418  61.1024807  75.3131122  13.0601142  61.3117390
  90.3890597  19.9983107  61.2687491  90.5826487  20.9028917  61.5146766
  90.2891215  19.5390526  62.1026076  82.0426908   9.8840997  63.7677819
  81.3954823  10.5830947  63.6742295  82.8127923  10.3177141  64.1354067
  85.4505706  20.1489849  66.8428372  85.2991212  19.9200401  65.9258456
  85.4410385  21.1060451  66.8559717  82.2191042  17.7221762  61.8274638
  83.1483102  17.8732922  61.6543606  81.7982072  17.8105783  60.9723285
  81.0179374  21.7472427  59.5973176  80.8790460  21.3791211  60.4699114
  80.2293970  22.2620066  59.4257134  82.5684589  21.1254029  56.9862014
  82.2334422  21.0854799  57.8819664  82.0688535  20.4598745  56.5132424
  76.5428833  16.5321659  62.5114595  76.4048631  15.8001898  63.1126134
  77.4533757  16.4430559  62.2298783  85.5043781  18.4710064  47.2599073
  84.8872951  17.7456892  47.1632126  85.0360269  19.2319424  46.9166148
  79.1711134  16.2441619  61.9998275  79.8810752  15.6034811  61.9584893
  79.1280442  16.4954513  62.9224455  87.1597912  23.1808972  64.9204854
  87.1010459  22.4968192  64.2535437  87.5617431  23.9227962  64.4685480
  77.8840068  13.2306836  63.8193914  77.3477425  12.7797575  64.4715510
  77.2956776  13.3652745  63.0764378  77.2942327  12.6895488  46.3820378
  76.4171793  12.5684289  46.0182624  77.7700080  11.8981566  46.1299266
  87.1615320  21.1448556  63.1518833  86.2742098  20.8074478  63.2745232
  87.7313871  20.4131587  63.3887599  68.8144467  17.4772648  56.4761885
  69.5015507  17.1634378  55.8882900  68.6592596  18.3814012  56.2029136
  73.6179189  12.3662844  60.9046909  73.5337378  11.7588514  60.1697318
  72.7961895  12.8571863  60.9056405  80.6916473  25.8050008  60.1180077
  80.6186645  26.6104980  60.6299381  80.2493866  26.0041974  59.2928098
  80.4806253  25.0421778  53.6282898  79.6973775  25.5843458  53.7221123
  81.1798998  25.5595758  54.0277139  83.7902903  10.8516408  56.2717104
  84.2871602  10.0986370  55.9518174  83.0189884  10.8880724  55.7060313
  91.6432660  16.5556773  57.9135395  91.6322537  17.4381489  57.5429328
  90.7750040  16.2028324  57.7189932  83.1515157  25.7036842  62.2738235
  83.8643129  26.3384307  62.2014137  82.6605185  25.8000708  61.4578237
  84.8732684  19.6088095  53.8455527  83.9388962  19.7289557  53.6760231
  85.0509352  18.7060562  53.5815537  80.3737872  12.9933791  55.9988788
  80.0035659  12.4404831  56.6869694  80.8696964  12.3891924  55.4463788
  88.2605235  15.4505414  54.3805561  88.7265687  16.2833406  54.3065864
  88.7112735  14.9850396  55.0850820  78.2027070  23.4531286  63.0943806
  78.9036530  24.0867769  63.2473200  77.7322185  23.7946017  62.3339445
  86.3281466  21.7949236  51.3791713  86.6041310  21.6805830  52.2885587
  85.4585965  21.3966720  51.3403886  86.2321898   7.8186001  58.4196462
  85.3184977   8.0490228  58.5878669  86.6614999   7.9024445  59.2710495
  86.0028356  16.0075893  60.9196356  85.3499806  16.2551801  60.2648809
  86.3808736  15.1940031  60.5858834  82.9635530  26.0435586  55.0224527
  83.1457925  25.2257242  55.4852279  83.7868516  26.2603279  54.5849417
  83.2977696  24.9703771  52.2839575  83.8265462  24.4596226  51.6709737
  83.5605915  24.6546302  53.1485108  82.0515929  16.7495704  67.4062394
  81.3756566  16.6489834  68.0764769  82.8743563  16.5934918  67.8698391
  73.7994788  22.9867641  60.0274909  74.3848225  22.2411329  60.1602813
  73.6019627  23.2971597  60.9111573  76.6533443  26.0218888  55.0437351
  75.9843819  26.5065016  54.5601391  76.5146313  26.2688109  55.9580730
  68.3912443  15.5573241  58.7479352  68.4296542  15.0236832  59.5416470
  67.8852736  15.0308447  58.1290329  80.7938712  28.0562632  61.6420010
  81.3457020  28.2194253  62.4069095  81.1344906  28.6467070  60.9700034
  75.7703205  10.4037781  62.2441894  75.8344532  11.2652612  61.8319292
  75.7070326   9.7911783  61.5114253  75.2455478  12.4760914  65.8914929
  75.8727517  12.0937991  66.5052453  74.3883397  12.2575116  66.2570621
  85.6449586  22.8823889  67.4968664  86.1889490  23.4953847  67.0023619
  85.0636431  23.4403468  68.0135677  72.0221021  14.2837343  51.8233283
  72.3174462  13.3748022  51.7700337  71.1209056  14.2625083  51.5014286
  83.9307099  26.0044607  58.6283692  83.8058239  25.2034347  58.1194637
  84.5886190  26.4990801  58.1397662  75.5515268  12.3593340  57.8060832
  74.8301853  12.9729307  57.6668305  76.3408523  12.8951105  57.7277478
  85.9942008  23.8053627  60.2563242  85.0472343  23.6858978  60.1841569
  86.3424781  22.9176125  60.3389503  78.3541581   9.6947766  64.0801484
  78.8775983   9.9410063  64.8427793  78.1353914  10.5267801  63.6604621
  73.7508862  11.9651441  51.9472609  73.4221568  11.0848820  51.7647714
  74.1048233  11.9099110  52.8348998  82.9988441  23.6006344  56.4567594
  82.8513403  22.6723051  56.6375164  83.8241935  23.6226434  55.9724669
  76.8650685  12.2524411  52.3148086  77.2046758  12.7810332  51.5926695
  77.3122806  12.5904817  53.0906653  86.6022563  24.4234902  57.5432467
  87.5269110  24.2177764  57.4056918  86.4337866  24.1751303  58.4521808
  79.5594126  10.6361461  61.7651154  79.2190946   9.8369274  62.1671834
  78.8533132  10.9363172  61.1927987  80.2110598   7.7210774  60.2178477
  81.0336667   7.2471252  60.0957368  80.4548661   8.5001258  60.7177164
  78.8518832  10.7499032  50.5141379  79.5727195  11.1280285  50.0105096
  78.2284137  11.4687909  50.6176357  82.9949955  11.4544181  51.4499711
  83.2113570  12.3368819  51.1488539  82.5144022  11.0630395  50.7205353
  77.7349177  14.4129894  58.0270456  77.5893757  14.7270197  58.9194737
  77.2574380  15.0314795  57.4741355  79.5945560  11.4032442  58.0751345
  79.5807128  10.5073536  57.7383643  80.3117988  11.4103106  58.7089631
  81.4471690  11.8369783  60.1204473  81.1889468  12.7586853  60.1188803
  80.9156731  11.4400217  60.8104937  86.3917879  24.9420570  52.8994558
  86.5654757  24.3766992  52.1468411  86.8846770  25.7421465  52.7174048
  72.2094839  16.9535239  60.9658117  71.6648307  17.7295047  61.0978391
  73.0874189  17.3006043  60.8077238  78.9982456  10.2846823  53.3438916
  79.1198367   9.3563469  53.5429803  78.7084498  10.2985509  52.4317231
  81.8673646   7.9701733  56.4805635  81.8895343   8.0341066  55.5257615
  82.2841705   7.1306242  56.6746142  92.2457270  17.7056993  54.5184858
  92.6888416  16.9564318  54.1203981  91.3683781  17.6967129  54.1358590
  87.3793052  24.2587334  49.9991457  88.0743956  24.8794027  50.2178771
  87.7216202  23.4082685  50.2743834  72.9960861  16.0805135  63.8588274
  72.2542597  16.2287770  64.4452904  72.6753605  16.3413401  62.9955023
  89.2784475  21.7087040  51.5278787  89.8035799  22.0474312  50.8028107
  89.1906827  20.7734055  51.3441922  80.9404523  25.6221113  63.6568664
  81.2491650  25.3770260  64.5291364  81.7380005  25.8267752  63.1687534
  80.9625135  27.7759023  55.8874040  80.5230126  27.2835402  56.5806897
  81.7133252  27.2331991  55.6466116  73.4417474  23.9670564  55.8898669
  74.2675494  23.6674336  55.5097312  73.0911526  23.1978186  56.3388457
  78.4099008  23.3197032  57.9596342  77.7879017  22.6567737  57.6598570
  79.0803874  23.3458164  57.2769990  71.6426079  21.8856890  56.8487602
  70.8057988  21.4579065  56.6671603  71.6149725  22.0789334  57.7858393
  78.4823535  11.7978820  67.5528848  78.5311691  12.6740943  67.1706618
  79.0246049  11.2556213  66.9800491  88.9678381  22.3419943  66.8329985
  88.1773924  22.3244082  66.2934485  88.7311735  22.8808237  67.5879022
  89.0876256  19.1912410  64.1462714  89.1374261  19.0262417  65.0878237
  88.9790179  18.3239669  63.7560595  77.9712514  21.8700955  51.4354803
  78.1200635  22.5536420  50.7821475  78.7778958  21.8506045  51.9504258
  86.3780018  15.1743338  65.4622020  87.2789881  15.0349803  65.1706018
  86.4527993  15.3397793  66.4020198  80.7122823  12.5510192  64.3075207
  79.8426133  12.8443758  64.0357795  80.9482304  13.1350637  65.0282470
  90.5894453  21.6109351  64.3904735  90.2979261  21.9739332  65.2268196
  89.9766584  20.8976359  64.2118067  91.7890135  19.1762231  56.9107306
  92.6237026  19.6152035  57.0744866  91.9249264  18.7000884  56.0915551
  88.8381641  16.7341966  62.8584793  89.3135762  16.9269612  62.0503645
  87.9147206  16.7901152  62.6128177  75.7265147  17.8966133  52.4415872
  75.4811189  16.9928463  52.6396082  75.8961062  17.8983283  51.4995350
  83.4161857   8.7689809  61.8240627  83.9343801   9.5050836  61.4987116
  83.0616990   9.0753803  62.6587386  74.9960795  13.6294491  49.9402033
  74.3030040  13.7038846  49.2842069  74.7512547  12.8654834  50.4623550
  83.6674451   5.1890092  57.3441524  83.9476205   4.5213281  57.9701950
  84.4525058   5.3819188  56.8316188  87.5383310  13.6107726  61.0913099
  88.4900733  13.7105824  61.1125323  87.3686760  12.8185994  61.6011183
  85.5597689  10.6963309  61.2772500  84.9647621  10.9768322  60.5818988
  85.2747386  11.1857210  62.0489241  84.6905180  24.6486236  50.0375132
  85.6235853  24.5831798  50.2408008  84.6028393  25.4842503  49.5789665
  87.3193196  23.9652106  46.9979080  87.2406828  23.6311970  47.8914838
  88.1402863  24.4573874  46.9970552  90.0171388  16.8313846  60.2055399
  89.9847708  15.8929846  60.3915082  90.6272011  16.9097882  59.4721223
  81.8554718  15.7009899  46.2482603  82.8013823  15.5716107  46.3171021
  81.4768963  14.9624560  46.7252031  90.1665876  13.6224889  60.2513682
  89.6504925  12.8383346  60.0643611  91.0505825  13.2943606  60.4160201
  87.8276603   7.3665905  56.2109494  87.6301424   7.0580993  57.0952826
  88.4376309   8.0927543  56.3407424  95.8347937  17.8929852  59.3461435
  96.5651326  17.6315141  59.9069139  95.2254883  17.1558574  59.3863503
  93.9163235  16.0337715  59.9435887  93.1896398  15.8993680  59.3352378
  93.5010521  16.3414544  60.7492605  81.7393411  19.7527645  67.7083260
  82.6596420  19.9306244  67.9023306  81.7042994  18.8083690  67.5562959
  80.0397636  13.6259875  46.1837488  79.1329091  13.3292988  46.2600201
  80.3173617  13.3289693  45.3171774  70.9575576  14.9466238  56.6336534
  70.6378360  14.0931547  56.3410908  70.4109004  15.1614816  57.3894502
  74.7355484  17.6628679  60.3506041  74.9541493  18.5945787  60.3694075
  75.1481257  17.3036654  61.1360845  81.6559701   8.1696765  52.3381729
  80.8460430   7.8243850  52.7136975  82.3444118   7.8604308  52.9269341
  83.5850250   7.2474811  53.9606026  84.1381288   7.6670265  54.6196049
  83.8220336   6.3210560  54.0028982  79.6083349  13.2361885  69.7408790
  79.5080076  14.1856242  69.6720881  79.3904891  12.9080124  68.8684860
  78.8096420  10.4846810  46.3249467  79.6715584  10.8101708  46.5845284
  78.9946764   9.6978306  45.8122533  70.8263836  18.5669150  58.6029656
  70.1327307  18.1523103  58.0899610  71.5736827  18.6089686  58.0063075
  86.9629057   9.3575337  53.4684690  86.3827726  10.0160141  53.0862742
  86.6964989   8.5352681  53.0572108  85.4132623   8.7580394  55.6706010
  85.9132401   8.8696929  54.8620329  86.0568231   8.4541447  56.3106819
  79.4714619  16.6659024  68.5573851  78.9881701  17.4659384  68.7637740
  79.5575558  16.6766969  67.6041295  72.7400579  18.4987404  56.4795671
  72.7171267  18.5975091  55.5277554  73.0501215  19.3452554  56.8012837
  75.3987956  20.5563559  60.5942285  76.3531210  20.5247501  60.5272217
  75.2000480  20.0954182  61.4092511  75.9887339  19.1264675  63.1613083
  76.8080228  19.6208753  63.1847920  76.2624146  18.2096643  63.1330650
  85.7453935  11.5175427  52.5241038  84.8579790  11.8025078  52.3061233
  86.1607924  11.3569190  51.6768315  89.0968471  11.5421948  56.2395378
  89.8728861  12.0318400  56.5119994  88.3716605  11.9680002  56.6967247
  91.5341030  12.2549567  57.2969318  92.1285520  12.0145303  56.5862626
  91.6067613  11.5356698  57.9242854  73.7538185  26.0983178  57.6112483
  73.6192653  25.3383579  57.0450481  73.3370247  26.8224078  57.1441272
  84.8897148  21.2820102  46.6189058  85.5932998  21.4870104  47.2346714
  84.1659797  21.8496864  46.8838142  85.7194959  17.0329963  52.7391328
  85.6630160  17.4898514  51.8998961  86.2723301  16.2720648  52.5614171
  89.5299764  12.8219695  53.5641448  89.2736699  12.4216330  54.3949656
  88.9052632  13.5363489  53.4391587  93.8412102  15.5615768  56.0712739
  93.2811660  15.6308957  56.8444301  93.2355606  15.3856753  55.3512236
  76.9107311  26.9952495  57.8230926  76.7939695  27.9397928  57.7209616
  76.0899757  26.6926057  58.2116725  86.7983846  21.7202631  48.6687518
  87.6329450  21.2883829  48.4864993  86.6368189  21.5484645  49.5964413
  86.4529738  18.2234744  50.0343858  86.3978542  18.0579016  49.0932302
  85.8275793  18.9310777  50.1906047  71.2422253  13.4602809  63.8605280
  71.8881116  12.9501763  64.3492505  71.0339404  14.1971490  64.4348705
  83.7675645  20.5283656  69.3597420  84.6366805  20.7024308  68.9984055
  83.2882396  21.3478073  69.2373150  79.7625863   7.7242853  49.6129176
  79.7504533   8.6684693  49.7697447  80.6549285   7.5412999  49.3188637
  77.9361825  27.6480757  61.0386854  78.8389072  27.6804367  61.3553349
  77.7099195  26.7181208  61.0533190  79.6915427  26.4011744  57.6996933
  78.7411058  26.4013605  57.5861305  79.9947913  25.6544478  57.1832967
  83.5777983   4.3185630  53.8675113  82.8110379   3.7644117  54.0131795
  83.9888688   4.3907499  54.7289264  75.5819744  10.6070426  67.9580294
  76.4451205  10.2507230  68.1683619  75.0085154  10.2684320  68.6455698
  95.4268121  32.2372282  58.7642695  96.0646531  32.1179029  58.0606035
  95.3088964  33.1853126  58.8230647  92.2357827  32.1899710  58.7004220
  91.8976339  32.0740775  57.8124755  93.1047595  31.7890875  58.6805226
  92.7177610  33.3434562  64.6590425  92.7066251  32.9487360  63.7870929
  92.8798249  32.6100634  65.2524197  89.4384871  36.1271674  63.6069609
  89.1474737  37.0317304  63.4916276  90.0741856  36.1688201  64.3213679
  90.3641078  33.5048522  60.1970969  90.9604650  33.2804545  59.4827932
  90.4216050  32.7633268  60.7996417  89.9366106  30.9587957  48.0321160
  90.1891627  30.4369479  47.2704623  88.9990665  30.7954103  48.1347843
  94.9809389  29.9623736  55.8395903  95.7672478  29.5443159  55.4886320
  95.2448094  30.8669828  56.0077552 100.3817816  29.8998969  56.7428882
 101.1142988  29.3298186  56.9766711  99.6257172  29.5120569  57.1835387
  97.9043237  23.6120543  61.2023490  97.5726561  24.4815954  60.9784705
  97.3088850  23.2956827  61.8817521  91.6399423  27.3516110  48.9353573
  91.8073825  28.2196347  49.3024044  91.4496592  27.5143392  48.0114862
  94.3974756  35.8133089  60.6019403  94.0975479  36.7158128  60.4935210
  94.0525816  35.5465272  61.4540556  87.8487238  32.2646886  56.6356107
  86.9237734  32.1323100  56.8433799  88.0971651  33.0441105  57.1326050
  97.7971900  28.3315629  58.2816840  96.8888777  28.2631038  57.9875601
  97.7459496  28.8087574  59.1098666  91.6188644  29.8073768  49.9200239
  91.4988269  30.2530818  50.7585720  90.9241232  30.1559085  49.3613778
  85.2096049  31.9080160  57.4699896  85.3388430  32.1614638  58.3839308
  84.5293500  32.5007868  57.1504552  91.8712766  29.7505275  66.2251738
  91.0946100  30.3099195  66.2154602  92.5103329  30.2362058  66.7466608
  99.6633546  26.5332068  60.0594714  99.0207927  26.8264601  59.4134509
  99.1588475  26.4184988  60.8647911  90.1259138  32.5590728  65.7869705
  90.8673822  33.0975772  65.5104528  89.4196124  33.1857017  65.9441256
  95.6014478  34.7019869  64.3841866  96.0097834  34.2602279  63.6396498
  94.8791739  34.1272496  64.6376059  91.9545548  29.6392475  61.7575423
  92.8006743  30.0631889  61.9010072  91.8944185  28.9826100  62.4513986
  95.9243292  35.2621059  58.1394155  95.2952155  35.4266773  57.4370223
  95.5368954  35.6762669  58.9105119  95.1044993  27.2996844  63.4156597
  94.8605925  28.0538904  62.8790872  95.3804924  27.6782191  64.2503844
  97.0583456  33.8435456  62.0933862  97.2700351  34.4867216  61.4168243
  97.0113204  33.0097773  61.6255792  94.6609685  26.4553277  58.9970434
  93.7994164  26.7534530  59.2887172  94.6872120  26.6723676  58.0651467
  88.3695335  34.5466949  58.3424003  88.9396692  34.9754217  57.7041488
  88.9603447  34.2649534  59.0408189  88.8620502  29.7130376  66.5885015
  88.2319162  30.3946657  66.8220411  88.7556590  29.6013458  65.6438153
  84.1565474  29.3802172  57.5150939  83.3664528  29.6359701  57.0391049
  84.6476722  30.1950510  57.6202979  98.1729284  36.7207412  60.2656220
  98.9946728  36.3187599  59.9838901  98.1691687  36.6175646  61.2172335
  86.1080220  29.7446752  54.4734415  85.3111383  29.8565446  54.9917911
  85.8805812  30.0833404  53.6075306  91.9385887  36.2691455  62.4216930
  92.0030320  36.7311862  63.2575102  91.2296811  35.6388820  62.5499240
  82.4403177  29.6332663  59.9465930  82.6911216  30.5179673  60.2123505
  82.9762726  29.4537264  59.1741021 106.2635277  33.0646160  56.6141191
 105.5098985  32.4953558  56.4585195 106.3982818  33.0308825  57.5611826
  88.1401245  24.0151142  68.9510266  87.7468190  23.4617341  69.6257910
  88.9567385  24.3261721  69.3416783  91.0569206  25.4309021  66.5430522
  91.7978919  26.0316175  66.4634985  91.2887128  24.6886659  65.9848565
  86.2010544  30.6165389  64.8208752  86.0864059  29.7150646  65.1215851
  85.3455061  30.8629085  64.4693568  93.2802381  38.5583129  66.4196252
  92.8366236  37.7719508  66.1017157  93.9419595  38.7462279  65.7540143
  95.3783619  38.8385929  64.4477654  95.3602095  39.6594810  63.9557923
  96.3003539  38.7140004  64.6727795  91.8356674  36.3530058  65.2901162
  92.3685010  35.5918347  65.0600470  91.3070755  36.0603710  66.0325317
  95.0026369  21.4590124  60.8194804  94.6590638  22.3491766  60.7433914
  95.3705331  21.2691782  59.9564389  92.5523762  26.2948436  54.3852477
  91.6965359  25.9055287  54.2058116  92.9650714  26.3740397  53.5252263
  94.0822909  23.8294779  58.7844037  93.5787704  23.7924915  57.9711842
  94.3753516  24.7387522  58.8440694  90.3265795  23.9133509  57.7910219
  91.1918792  23.7176318  57.4316108  90.3943304  23.6843861  58.7179576
  98.1802232  33.6765071  57.9187020  97.5225907  34.3664333  58.0067149
  98.9842631  34.0661503  58.2621007  87.9328114  26.1435717  55.1626586
  88.5071866  25.9210899  54.4299779  88.5199096  26.2124412  55.9155187
  96.9907691  32.0309444  55.9690962  97.5039573  32.6639436  56.4712672
  97.6408915  31.4310640  55.6034322  88.2597701  28.1740178  49.1822471
  87.4235013  28.5114865  49.5031746  88.1202471  28.0389158  48.2449608
  90.2350782  23.0176966  53.8901655  89.5815194  22.7025983  53.2658270
  90.1931256  22.3952706  54.6161478  93.4688522  29.5058900  58.2149303
  92.5511083  29.7273847  58.0570991  93.8848666  29.5805210  57.3561010
  96.7002407  27.9407431  55.3270772  95.9625164  27.4284818  55.6581015
  96.9529180  27.5007813  54.5154049  96.8014034  20.7183683  55.9212542
  97.1072911  19.8581047  55.6338457  97.5266639  21.3101304  55.7211535
  91.0735114  31.0137477  56.4288733  91.1283724  30.0611313  56.3531209
  90.2626316  31.1696916  56.9130031  89.0127474  29.6314536  54.1879111
  88.1995339  29.9308707  54.5944304  89.5086468  29.2370225  54.9053594
  94.6101686  30.0956361  63.0194005  94.9651073  30.3227834  63.8788471
  95.2573817  30.4274738  62.3971261  88.5041549  27.2032892  59.8040346
  89.1440928  27.0621651  59.1063310  87.6719079  26.9167405  59.4278948
 100.3668802  35.2851324  58.7354606 100.8005309  35.1926613  59.5837660
 101.0800383  35.2608824  58.0974622  94.0996697  38.8853418  60.2687706
  94.1533719  39.4544354  61.0365422  93.2311478  39.0555303  59.9041744
  85.5884616  30.6478404  51.9935092  84.6582204  30.5862859  52.2105054
  85.6842088  30.1254357  51.1971733  85.5070165  27.1733217  54.5813333
  85.7676982  28.0878550  54.4722494  86.3287337  26.7057659  54.7309946
  86.9795090  28.5870974  61.7512158  87.6518144  28.3788336  61.1024807
  86.1524877  28.3893060  61.3117390 101.2284352  35.3275024  61.2687491
 101.4220242  36.2320835  61.5146766 101.1284970  34.8682443  62.1026076
  92.8820662  25.2132915  63.7677819  92.2348577  25.9122865  63.6742295
  93.6521678  25.6469059  64.1354067  96.2899460  35.4781767  66.8428372
  96.1384967  35.2492319  65.9258456  96.2804140  36.4352368  66.8559717
  93.0584797  33.0513680  61.8274638  93.9876857  33.2024839  61.6543606
  92.6375827  33.1397701  60.9723285  91.8573128  37.0764344  59.5973176
  91.7184214  36.7083129  60.4699114  91.0687725  37.5911984  59.4257134
  87.3822588  31.8613577  62.5114595  87.2442386  31.1293816  63.1126134
  88.2927511  31.7722477  62.2298783  90.0104888  31.5733536  61.9998275
  90.7204507  30.9326728  61.9584893  89.9674196  31.8246431  62.9224455
  97.9991667  38.5100890  64.9204854  97.9404213  37.8260110  64.2535437
  98.4011185  39.2519880  64.4685480  88.7233822  28.5598754  63.8193914
  88.1871179  28.1089493  64.4715510  88.1350531  28.6944663  63.0764378
  88.1336081  28.0187406  46.3820378  87.2565548  27.8976206  46.0182624
  88.6093834  27.2273484  46.1299266  98.0009074  36.4740474  63.1518833
  97.1135853  36.1366395  63.2745232  98.5707625  35.7423505  63.3887599
  84.4572943  27.6954762  60.9046909  84.3731132  27.0880431  60.1697318
  83.6355650  28.1863780  60.9056405  91.5310228  41.1341926  60.1180077
  91.4580399  41.9396897  60.6299381  91.0887621  41.3333892  59.2928098
  94.6296657  26.1808325  56.2717104  95.1265357  25.4278288  55.9518174
  93.8583639  26.2172642  55.7060313 102.4826415  31.8848691  57.9135395
 102.4716291  32.7673406  57.5429328 101.6143794  31.5320242  57.7189932
  93.9908911  41.0328760  62.2738235  94.7036883  41.6676225  62.2014137
  93.4998940  41.1292626  61.4578237  91.2131626  28.3225708  55.9988788
  90.8429414  27.7696749  56.6869694  91.7090719  27.7183842  55.4463788
  89.0420825  38.7823203  63.0943806  89.7430284  39.4159686  63.2473200
  88.5715940  39.1237935  62.3339445  97.0715652  23.1477919  58.4196462
  96.1578732  23.3782146  58.5878669  97.5008754  23.2316363  59.2710495
  96.8422111  31.3367811  60.9196356  96.1893561  31.5843718  60.2648809
  97.2202491  30.5231949  60.5858834  92.8909684  32.0787622  67.4062394
  92.2150321  31.9781751  68.0764769  93.7137318  31.9226836  67.8698391
  79.2306197  30.8865159  58.7479352  79.2690297  30.3528749  59.5416470
  78.7246490  30.3600364  58.1290329  91.6332467  43.3854549  61.6420010
  92.1850775  43.5486171  62.4069095  91.9738660  43.9758987  60.9700034
  86.6096960  25.7329699  62.2441894  86.6738286  26.5944530  61.8319292
  86.5464080  25.1203701  61.5114253  86.0849232  27.8052832  65.8914929
  86.7121271  27.4229909  66.5052453  85.2277151  27.5867034  66.2570621
  96.4843341  38.2115807  67.4968664  97.0283245  38.8245765  67.0023619
  95.9030186  38.7695385  68.0135677  94.7700854  41.3336525  58.6283692
  94.6451993  40.5326265  58.1194637  95.4279945  41.8282718  58.1397662
  86.3909022  27.6885257  57.8060832  85.6695608  28.3021225  57.6668305
  87.1802278  28.2243022  57.7277478  96.8335762  39.1345545  60.2563242
  95.8866098  39.0150896  60.1841569  97.1818535  38.2468043  60.3389503
  89.1935336  25.0239684  64.0801484  89.7169737  25.2701980  64.8427793
  88.9747669  25.8559719  63.6604621  84.5902617  27.2943358  51.9472609
  84.2615323  26.4140737  51.7647714  84.9441987  27.2391027  52.8348998
  87.7044440  27.5816328  52.3148086  88.0440512  28.1102250  51.5926695
  88.1516560  27.9196734  53.0906653  90.3987881  25.9653379  61.7651154
  90.0584701  25.1661192  62.1671834  89.6926887  26.2655090  61.1927987
  91.0504352  23.0502691  60.2178477  91.8730422  22.5763170  60.0957368
  91.2942416  23.8293175  60.7177164  89.6912587  26.0790950  50.5141379
  90.4120949  26.4572203  50.0105096  89.0677891  26.7979827  50.6176357
  93.8343710  26.7836099  51.4499711  94.0507324  27.6660737  51.1488539
  93.3537777  26.3922312  50.7205353  88.5742931  29.7421812  58.0270456
  88.4287512  30.0562115  58.9194737  88.0968135  30.3606712  57.4741355
  90.4339314  26.7324360  58.0751345  90.4200883  25.8365453  57.7383643
  91.1511742  26.7395024  58.7089631  92.2865445  27.1661700  60.1204473
  92.0283223  28.0878771  60.1188803  91.7550485  26.7692135  60.8104937
  83.0488593  32.2827156  60.9658117  82.5042061  33.0586964  61.0978391
  83.9267943  32.6297961  60.8077238  89.8376210  25.6138740  53.3438916
  89.9592121  24.6855387  53.5429803  89.5478252  25.6277426  52.4317231
  92.7067400  23.2993651  56.4805635  92.7289097  23.3632984  55.5257615
  93.1235459  22.4598159  56.6746142  83.8354615  31.4097053  63.8588274
  83.0936351  31.5579688  64.4452904  83.5147360  31.6705318  62.9955023
  91.7798278  40.9513031  63.6568664  92.0885404  40.7062178  64.5291364
  92.5773760  41.1559669  63.1687534  89.3217290  27.1270738  67.5528848
  89.3705445  28.0032861  67.1706618  89.8639804  26.5848131  66.9800491
  99.8072135  37.6711861  66.8329985  99.0167679  37.6536000  66.2934485
  99.5705490  38.2100155  67.5879022  99.9270010  34.5204327  64.1462714
  99.9768015  34.3554335  65.0878237  99.8183934  33.6531586  63.7560595
  97.2173773  30.5035255  65.4622020  98.1183635  30.3641720  65.1706018
  97.2921747  30.6689710  66.4020198  91.5516578  27.8802110  64.3075207
  90.6819887  28.1735676  64.0357795  91.7876058  28.4642555  65.0282470
 101.4288207  36.9401269  64.3904735 101.1373015  37.3031249  65.2268196
 100.8160338  36.2268277  64.2118067 102.6283889  34.5054149  56.9107306
 103.4630781  34.9443953  57.0744866 102.7643018  34.0292802  56.0915551
  99.6775395  32.0633883  62.8584793 100.1529517  32.2561530  62.0503645
  98.7540961  32.1193069  62.6128177  94.2555612  24.0981727  61.8240627
  94.7737556  24.8342754  61.4987116  93.9010745  24.4045720  62.6587386
  94.5068206  20.5182010  57.3441524  94.7869960  19.8505199  57.9701950
  95.2918813  20.7111105  56.8316188  98.3777064  28.9399644  61.0913099
  99.3294487  29.0397741  61.1125323  98.2080515  28.1477912  61.6011183
  96.3991444  26.0255227  61.2772500  95.8041376  26.3060239  60.5818988
  96.1141141  26.5149128  62.0489241 100.8565142  32.1605763  60.2055399
 100.8241462  31.2221764  60.3915082 101.4665766  32.2389800  59.4721223
 101.0059631  28.9516807  60.2513682 100.4898679  28.1675263  60.0643611
 101.8899579  28.6235523  60.4160201  98.6670358  22.6957822  56.2109494
  98.4695179  22.3872910  57.0952826  99.2770063  23.4219461  56.3407424
 106.6741692  33.2221770  59.3461435 107.4045080  32.9607058  59.9069139
 106.0648637  32.4850492  59.3863503 104.7556989  31.3629633  59.9435887
 104.0290153  31.2285598  59.3352378 104.3404276  31.6706461  60.7492605
  92.5787166  35.0819562  67.7083260  93.4990175  35.2598161  67.9023306
  92.5436749  34.1375608  67.5562959  90.8791390  28.9551793  46.1837488
  89.9722846  28.6584905  46.2600201  91.1567371  28.6581611  45.3171774
  81.7969331  30.2758156  56.6336534  81.4772115  29.4223464  56.3410908
  81.2502759  30.4906734  57.3894502  85.5749238  32.9920597  60.3506041
  85.7935248  33.9237705  60.3694075  85.9875012  32.6328571  61.1360845
  92.4953456  23.4988682  52.3381729  91.6854184  23.1535767  52.7136975
  93.1837873  23.1896226  52.9269341  94.4244004  22.5766729  53.9606026
  94.9775043  22.9962183  54.6196049  94.6614091  21.6502477  54.0028982
  90.4477103  28.5653803  69.7408790  90.3473830  29.5148160  69.6720881
  90.2298645  28.2372042  68.8684860  89.6490175  25.8138728  46.3249467
  90.5109339  26.1393626  46.5845284  89.8340519  25.0270224  45.8122533
  81.6657591  33.8961068  58.6029656  80.9721062  33.4815020  58.0899610
  82.4130582  33.9381604  58.0063075  97.8022811  24.6867254  53.4684690
  97.2221480  25.3452058  53.0862742  97.5358744  23.8644599  53.0572108
  96.2526378  24.0872312  55.6706010  96.7526156  24.1988847  54.8620329
  96.8961986  23.7833365  56.3106819  90.3108373  31.9950942  68.5573851
  89.8275455  32.7951302  68.7637740  90.3969312  32.0058886  67.6041295
  86.2381711  35.8855476  60.5942285  87.1924964  35.8539419  60.5272217
  86.0394235  35.4246100  61.4092511  86.8281093  34.4556592  63.1613083
  87.6473982  34.9500671  63.1847920  87.1017901  33.5388560  63.1330650
  99.9362225  26.8713866  56.2395378 100.7122616  27.3610318  56.5119994
  99.2110360  27.2971920  56.6967247 102.3734784  27.5841485  57.2969318
 102.9679275  27.3437221  56.5862626 102.4461368  26.8648615  57.9242854
 104.6805857  30.8907686  56.0712739 104.1205415  30.9600875  56.8444301
 104.0749360  30.7148670  55.3512236  82.0816007  28.7894726  63.8605280
  82.7274871  28.2793680  64.3492505  81.8733158  29.5263408  64.4348705
  94.6069399  35.8575574  69.3597420  95.4760559  36.0316226  68.9984055
  94.1276151  36.6769991  69.2373150  90.6019618  23.0534771  49.6129176
  90.5898288  23.9976611  49.7697447  91.4943040  22.8704916  49.3188637
  94.4171737  19.6477547  53.8675113  93.6504133  19.0936034  54.0131795
  94.8282442  19.7199416  54.7289264  86.4213498  25.9362343  67.9580294
  87.2844960  25.5799148  68.1683619  85.8478909  25.5976238  68.6455698
 106.2661875  47.5664200  58.7642695 106.9040285  47.4470947  58.0606035
 106.1482718  48.5145044  58.8230647 103.0751582  47.5191628  58.7004220
 102.7370093  47.4032692  57.8124755 103.9441350  47.1182793  58.6805226
  98.9338397  49.3727104  54.6901111  98.3703262  49.2817041  53.9217398
  98.8190792  48.5527009  55.1703603 103.5571365  48.6726479  64.6590425
 103.5460005  48.2779278  63.7870929 103.7192004  47.9392552  65.2524197
  96.4802829  50.8678296  57.5285331  97.2724121  50.5269120  57.1131630
  96.7199479  50.9773271  58.4487484 104.5137956  53.0398072  50.0015576
 103.8625936  53.6252152  49.6149589 105.3082319  53.5704267  50.0610613
 100.2778626  51.4563591  63.6069609  99.9868492  52.3609222  63.4916276
 100.9135610  51.4980119  64.3213679 101.2034833  48.8340440  60.1970969
 101.7998405  48.6096462  59.4827932 101.2609804  48.0925185  60.7996417
 105.8203144  45.2915653  55.8395903 106.6066233  44.8735077  55.4886320
 106.0841848  46.1961746  56.0077552 105.9913221  50.7288504  50.5384560
 105.3559054  50.8023130  51.2505465 105.6610627  51.3182103  49.8603639
 111.2211571  45.2290887  56.7428882 111.9536743  44.6590104  56.9766711
 110.4650927  44.8412487  57.1835387 102.8387691  47.6518128  53.9392224
 102.4745898  47.1248749  54.6505146 103.6954806  47.2616597  53.7658709
 108.7436991  38.9412461  61.2023490 108.4120316  39.8107872  60.9784705
 108.1482605  38.6248745  61.8817521 102.4793178  42.6808028  48.9353573
 102.6467580  43.5488264  49.3024044 102.2890347  42.8435310  48.0114862
 105.2368511  51.1425007  60.6019403 104.9369234  52.0450046  60.4935210
 104.8919570  50.8757190  61.4540556  98.6880992  47.5938804  56.6356107
  97.7631489  47.4615018  56.8433799  98.9365405  48.3733023  57.1326050
 108.6365655  43.6607547  58.2816840 107.7282532  43.5922955  57.9875601
 108.5853250  44.1379492  59.1098666 102.4582398  45.1365685  49.9200239
 102.3382024  45.5822736  50.7585720 101.7634987  45.4851003  49.3613778
  96.0489803  47.2372077  57.4699896  96.1782184  47.4906556  58.3839308
  95.3687255  47.8299785  57.1504552 100.2189291  57.9069327  53.5690371
 100.1413320  58.8577152  53.6478851  99.6150934  57.5615200  54.2265297
 102.7106520  45.0797193  66.2251738 101.9339854  45.6391113  66.2154602
 103.3497083  45.5653976  66.7466608 110.5027301  41.8623985  60.0594714
 109.8601681  42.1556519  59.4134509 109.9982229  41.7476906  60.8647911
 108.1567465  45.6087159  50.7480573 109.0685321  45.8414545  50.5728271
 107.6477112  46.1924203  50.1855652 100.9652893  47.8882646  65.7869705
 101.7067577  48.4267690  65.5104528 100.2589878  48.5148935  65.9441256
 106.4408232  50.0311786  64.3841866 106.8491588  49.5894197  63.6396498
 105.7185494  49.4564414  64.6376059 102.7939302  44.9684393  61.7575423
 103.6400497  45.3923807  61.9010072 102.7337940  44.3118017  62.4513986
 106.7637047  50.5912977  58.1394155 106.1345909  50.7558691  57.4370223
 106.3762709  51.0054587  58.9105119 110.6426279  51.5267415  55.4938519
 109.9577317  51.9066316  54.9435552 110.7270128  52.1362742  56.2270466
 105.9438748  42.6288762  63.4156597 105.6999680  43.3830822  62.8790872
 106.2198678  43.0074109  64.2503844 107.8977210  49.1727374  62.0933862
 108.1094106  49.8159134  61.4168243 107.8506959  48.3389690  61.6255792
 105.5003439  41.7845195  58.9970434 104.6387918  42.0826448  59.2887172
 105.5265874  42.0015593  58.0651467 102.3165009  50.3287385  55.4044240
 102.7803354  50.6075088  54.6148863 102.0521807  49.4270830  55.2217331
  99.2089090  49.8758867  58.3424003  99.7790447  50.3046135  57.7041488
  99.7997202  49.5941451  59.0408189  99.7014256  45.0422294  66.5885015
  99.0712917  45.7238575  66.8220411  99.5950344  44.9305376  65.6438153
  94.9959229  44.7094090  57.5150939  94.2058283  44.9651619  57.0391049
  95.4870476  45.5242428  57.6202979 109.0123038  52.0499329  60.2656220
 109.8340482  51.6479517  59.9838901 109.0085441  51.9467563  61.2172335
 102.7779642  51.5983373  62.4216930 102.8424074  52.0603780  63.2575102
 102.0690566  50.9680738  62.5499240  93.2796932  44.9624581  59.9465930
  93.5304970  45.8471591  60.2123505  93.8156480  44.7829182  59.1741021
 117.1029031  48.3938078  56.6141191 116.3492740  47.8245476  56.4585195
 117.2376573  48.3600742  57.5611826 102.4927659  53.2651480  52.2895910
 102.3573334  54.1103016  52.7180758 103.0337472  53.4670758  51.5261844
  98.9794999  39.3443060  68.9510266  98.5861945  38.7909259  69.6257910
  99.7961139  39.6553638  69.3416783  97.7551942  53.8992674  54.9446589
  97.9318570  54.8210639  54.7567573  98.5508775  53.5851094  55.3740968
 101.8962960  40.7600939  66.5430522 102.6372673  41.3608092  66.4634985
 102.1280883  40.0178577  65.9848565  97.0404298  45.9457306  64.8208752
  96.9257813  45.0442564  65.1215851  96.1848816  46.1921003  64.4693568
 104.1196136  53.8875047  66.4196252 103.6759990  53.1011425  66.1017157
 104.7813349  54.0754197  65.7540143  98.8783257  55.4170848  60.9456931
  99.4290682  55.2887912  60.1733925  98.0394733  55.7165737  60.5951824
 106.2177374  54.1677847  64.4477654 106.1995849  54.9886728  63.9557923
 107.1397294  54.0431922  64.6727795 102.6750428  51.6821976  65.2901162
 103.2078765  50.9210264  65.0600470 102.1464509  51.3895628  66.0325317
 105.8420123  36.7882042  60.8194804 105.4984392  37.6783684  60.7433914
 106.2099086  36.5983700  59.9564389 105.8070406  46.7790653  49.3267239
 105.2917029  47.5495258  49.5655626 105.5347714  46.1055789  49.9500300
 104.9216663  39.1586697  58.7844037 104.4181459  39.1216832  57.9711842
 105.2147270  40.0679440  58.8440694 101.1659549  39.2425427  57.7910219
 102.0312546  39.0468236  57.4316108 101.2337058  39.0135779  58.7179576
 110.7804680  49.5323008  51.2620412 110.0034123  49.1934167  50.8175575
 111.4596161  49.5375631  50.5875377 105.5956709  44.6517745  51.1527020
 105.2906844  44.9663894  52.0037163 106.5487151  44.7299165  51.1954353
 104.0403141  50.8107969  52.8019974 103.5124502  50.0760728  52.4893212
 103.5390643  51.5882645  52.5559942 109.0195987  49.0056989  57.9187020
 108.3619661  49.6956250  58.0067149 109.8236386  49.3953421  58.2621007
 107.8301446  47.3601362  55.9690962 108.3433327  47.9931354  56.4712672
 108.4802669  46.7602557  55.6034322 105.0923820  57.3385686  48.7251633
 104.4185519  57.6417383  49.3336591 105.4789642  58.1414766  48.3757090
 104.3082276  44.8350817  58.2149303 103.3904838  45.0565764  58.0570991
 104.7242420  44.9097128  57.3561010 105.0917324  46.2342233  53.3451983
 105.8389143  46.7463630  53.0359105 105.3608914  45.9126286  54.2056377
 103.3643974  48.7300774  50.3278937 102.4555194  48.4459806  50.4251407
 103.3939058  49.1499852  49.4682244 108.5963242  52.3407363  54.0970105
 108.1425569  51.4998273  54.1535295 107.9657208  52.9768762  54.4344885
 107.5396161  43.2699349  55.3270772 106.8018918  42.7576735  55.6581015
 107.7922935  42.8299731  54.5154049 107.0396181  54.1783860  55.0319923
 107.3319155  54.7388917  54.3132289 107.5494802  54.4712421  55.7873082
 107.6407789  36.0475601  55.9212542 107.9466665  35.1872965  55.6338457
 108.3660393  36.6393221  55.7211535 101.9128868  46.3429394  56.4288733
 101.9677478  45.3903231  56.3531209 101.1020070  46.4988833  56.9130031
 103.0620062  50.2709517  47.6667016 102.6239492  49.5545376  47.2072653
 103.8030503  50.4985632  47.1052107 102.0029806  54.9564211  56.1213376
 101.9605985  55.1825057  55.1921908 102.9192505  54.7227586  56.2699177
 105.4495440  45.4248278  63.0194005 105.8044828  45.6519752  63.8788471
 106.0967571  45.7566655  62.3971261 111.1793177  48.5466714  53.7243334
 111.0411076  48.7368310  52.7964524 110.8229396  49.3086097  54.1811386
  99.3435303  42.5324810  59.8040346  99.9834682  42.3913569  59.1063310
  98.5112834  42.2459323  59.4278948 111.2062557  50.6143241  58.7354606
 111.6399063  50.5218530  59.5837660 111.9194137  50.5900742  58.0974622
 100.1195607  51.8327240  55.9175339 100.9136205  51.3377560  55.7157914
  99.4087299  51.3045103  55.5543044 104.9390451  54.2145335  60.2687706
 104.9927474  54.7836272  61.0365422 104.0705233  54.3847221  59.9041744
  97.8188845  43.9162892  61.7512158  98.4911898  43.7080254  61.1024807
  96.9918631  43.7184978  61.3117390 112.0678106  50.6566942  61.2687491
 112.2613996  51.5612753  61.5146766 111.9678724  50.1974361  62.1026076
 103.7214417  40.5424833  63.7677819 103.0742332  41.2414782  63.6742295
 104.4915432  40.9760977  64.1354067 107.1293215  50.8073685  66.8428372
 106.9778721  50.5784236  65.9258456 107.1197894  51.7644286  66.8559717
 103.8978551  48.3805597  61.8274638 104.8270611  48.5316757  61.6543606
 103.4769581  48.4689618  60.9723285 102.6966883  52.4056262  59.5973176
 102.5577969  52.0375046  60.4699114 101.9081479  52.9203901  59.4257134
 103.2915035  57.5065358  50.9398713 103.4666791  57.0353402  51.7544335
 102.6047823  58.1331125  51.1679973 104.2472098  51.7837865  56.9862014
 103.9121931  51.7438635  57.8819664 103.7476044  51.1182581  56.5132424
  98.2216342  47.1905495  62.5114595  98.0836140  46.4585733  63.1126134
  99.1321266  47.1014395  62.2298783 107.1831290  49.1293899  47.2599073
 106.5660460  48.4040727  47.1632126 106.7147778  49.8903259  46.9166148
 100.8498643  46.9025454  61.9998275 101.5598261  46.2618646  61.9584893
 100.8067951  47.1538349  62.9224455 108.8385421  53.8392807  64.9204854
 108.7797968  53.1552027  64.2535437 109.2404940  54.5811797  64.4685480
  99.5627577  43.8890672  63.8193914  99.0264934  43.4381410  64.4715510
  98.9744285  44.0236581  63.0764378  97.8576120  60.6554721  57.7138573
  98.0972718  61.2873245  58.3917591  97.0145317  60.3042761  58.0003932
 108.8402829  51.8032391  63.1518833 107.9529607  51.4658313  63.2745232
 109.4101380  51.0715422  63.3887599  95.2966698  43.0246680  60.9046909
  95.2124887  42.4172349  60.1697318  94.4749404  43.5155698  60.9056405
 102.3703982  56.4633844  60.1180077 102.2974154  57.2688815  60.6299381
 101.9281375  56.6625809  59.2928098 102.1593762  55.7005614  53.6282898
 101.3761284  56.2427294  53.7221123 102.8586507  56.2179593  54.0277139
 105.4690412  41.5100243  56.2717104 105.9659111  40.7570205  55.9518174
 104.6977393  41.5464560  55.7060313 113.3220169  47.2140609  57.9135395
 113.3110045  48.0965324  57.5429328 112.4537549  46.8612159  57.7189932
 104.8302666  56.3620678  62.2738235 105.5430638  56.9968142  62.2014137
 104.3392694  56.4584544  61.4578237 106.5520193  50.2671930  53.8455527
 105.6176471  50.3873393  53.6760231 106.7296861  49.3644397  53.5815537
 109.9392744  46.1089250  54.3805561 110.4053196  46.9417241  54.3065864
 110.3900244  45.6434231  55.0850820  99.8814579  54.1115121  63.0943806
 100.5824039  54.7451604  63.2473200  99.4109694  54.4529853  62.3339445
 108.0068975  52.4533071  51.3791713 108.2828819  52.3389665  52.2885587
 107.1373474  52.0550556  51.3403886 107.9109407  38.4769837  58.4196462
 106.9972486  38.7074063  58.5878669 108.3402508  38.5608281  59.2710495
 107.6815865  46.6659729  60.9196356 107.0287315  46.9135636  60.2648809
 108.0596245  45.8523867  60.5858834 104.6423039  56.7019422  55.0224527
 104.8245434  55.8841078  55.4852279 105.4656025  56.9187114  54.5849417
 104.9765205  55.6287607  52.2839575 105.5052971  55.1180061  51.6709737
 105.2393424  55.3130137  53.1485108 103.7303438  47.4079540  67.4062394
 103.0544075  47.3073669  68.0764769 104.5531072  47.2518753  67.8698391
  95.4782297  53.6451476  60.0274909  96.0635734  52.8995164  60.1602813
  95.2807136  53.9555433  60.9111573  98.3320952  56.6802724  55.0437351
  97.6631328  57.1648851  54.5601391  98.1933822  56.9271944  55.9580730
 102.4726221  58.7146467  61.6420010 103.0244529  58.8778089  62.4069095
 102.8132414  59.3050905  60.9700034  97.4490714  41.0621617  62.2441894
  97.5132041  41.9236448  61.8319292  97.3857835  40.4495619  61.5114253
  96.9242987  43.1344749  65.8914929  97.5515026  42.7521827  66.5052453
  96.0670906  42.9158951  66.2570621 107.3237095  53.5407725  67.4968664
 107.8676999  54.1537683  67.0023619 106.7423940  54.0987303  68.0135677
 105.6094608  56.6628443  58.6283692 105.4845748  55.8618182  58.1194637
 106.2673699  57.1574636  58.1397662  97.2302777  43.0177175  57.8060832
  96.5089362  43.6313143  57.6668305  98.0196032  43.5534940  57.7277478
 107.6729517  54.4637463  60.2563242 106.7259852  54.3442814  60.1841569
 108.0212290  53.5759961  60.3389503 100.0329090  40.3531602  64.0801484
 100.5563492  40.5993898  64.8427793  99.8141423  41.1851636  63.6604621
 104.6775950  54.2590179  56.4567594 104.5300912  53.3306886  56.6375164
 105.5029443  54.2810270  55.9724669 108.2810072  55.0818738  57.5432467
 109.2056619  54.8761599  57.4056918 108.1125375  54.8335139  58.4521808
 101.2381635  41.2945297  61.7651154 100.8978455  40.4953110  62.1671834
 100.5320641  41.5947008  61.1927987 101.8898107  38.3794609  60.2178477
 102.7124176  37.9055087  60.0957368 102.1336170  39.1585093  60.7177164
 104.6737464  42.1128017  51.4499711 104.8901079  42.9952654  51.1488539
 104.1931531  41.7214230  50.7205353  99.4136686  45.0713730  58.0270456
  99.2681266  45.3854033  58.9194737  98.9361889  45.6898630  57.4741355
 101.2733069  42.0616278  58.0751345 101.2594637  41.1657371  57.7383643
 101.9905497  42.0686941  58.7089631 103.1259199  42.4953618  60.1204473
 102.8676977  43.4170689  60.1188803 102.5944240  42.0984052  60.8104937
 108.0705388  55.6004405  52.8994558 108.2442266  55.0350828  52.1468411
 108.5634279  56.4005300  52.7174048  93.8882348  47.6119074  60.9658117
  93.3435816  48.3878882  61.0978391  94.7661698  47.9589879  60.8077238
 103.5461155  38.6285568  56.4805635 103.5682852  38.6924902  55.5257615
 103.9629214  37.7890077  56.6746142 113.9244779  48.3640828  54.5184858
 114.3675925  47.6148153  54.1203981 113.0471290  48.3550964  54.1358590
 109.0580561  54.9171169  49.9991457 109.7531465  55.5377862  50.2178771
 109.4003711  54.0666521  50.2743834  94.6748370  46.7388970  63.8588274
  93.9330106  46.8871606  64.4452904  94.3541114  46.9997236  62.9955023
 110.9571984  52.3670875  51.5278787 111.4823308  52.7058148  50.8028107
 110.8694336  51.4317890  51.3441922 102.6192032  56.2804949  63.6568664
 102.9279159  56.0354095  64.5291364 103.4167514  56.4851587  63.1687534
 102.6412644  58.4342858  55.8874040 102.2017635  57.9419237  56.5806897
 103.3920761  57.8915826  55.6466116  95.1204983  54.6254399  55.8898669
  95.9463003  54.3258171  55.5097312  94.7699035  53.8562022  56.3388457
 100.0886517  53.9780867  57.9596342  99.4666526  53.3151572  57.6598570
 100.7591383  54.0041999  57.2769990  93.3213588  52.5440726  56.8487602
  92.4845497  52.1162900  56.6671603  93.2937234  52.7373169  57.7858393
 100.1611044  42.4562655  67.5528848 100.2099200  43.3324778  67.1706618
 100.7033558  41.9140048  66.9800491 110.6465890  53.0003779  66.8329985
 109.8561433  52.9827917  66.2934485 110.4099244  53.5392072  67.5879022
 110.7663765  49.8496245  64.1462714 110.8161770  49.6846252  65.0878237
 110.6577688  48.9823504  63.7560595 108.0567527  45.8327173  65.4622020
 108.9577390  45.6933638  65.1706018 108.1315502  45.9981628  66.4020198
 102.3910332  43.2094028  64.3075207 101.5213642  43.5027594  64.0357795
 102.6269813  43.7934473  65.0282470 112.2681962  52.2693187  64.3904735
 111.9766770  52.6323167  65.2268196 111.6554093  51.5560195  64.2118067
 113.4677644  49.8346066  56.9107306 114.3024535  50.2735870  57.0744866
 113.6036773  49.3584720  56.0915551 110.5169150  47.3925801  62.8584793
 110.9923271  47.5853447  62.0503645 109.5934715  47.4484987  62.6128177
 105.0949366  39.4273645  61.8240627 105.6131310  40.1634672  61.4987116
 104.7404499  39.7337638  62.6587386 105.3461960  35.8473927  57.3441524
 105.6263714  35.1797116  57.9701950 106.1312567  36.0403023  56.8316188
 103.1495429  55.0232921  48.9066550 102.5769396  55.6423108  48.4537022
 103.7228223  55.5732283  49.4406472 109.2170819  44.2691561  61.0913099
 110.1688242  44.3689659  61.1125323 109.0474269  43.4769830  61.6011183
 107.2385198  41.3547144  61.2772500 106.6435130  41.6352157  60.5818988
 106.9534895  41.8441045  62.0489241 106.3692689  55.3070071  50.0375132
 107.3023362  55.2415633  50.2408008 106.2815902  56.1426338  49.5789665
 108.9980705  54.6235942  46.9979080 108.9194337  54.2895805  47.8914838
 109.8190372  55.1157710  46.9970552 111.6958897  47.4897681  60.2055399
 111.6635217  46.5513682  60.3915082 112.3059520  47.5681718  59.4721223
 103.5342227  46.3593734  46.2482603 104.4801332  46.2299942  46.3171021
 103.1556472  45.6208396  46.7252031 111.8453385  44.2808724  60.2513682
 111.3292434  43.4967181  60.0643611 112.7293334  43.9527441  60.4160201
 109.5064112  38.0249740  56.2109494 109.3088933  37.7164828  57.0952826
 110.1163818  38.7511379  56.3407424 117.5135446  48.5513688  59.3461435
 118.2438835  48.2898976  59.9069139 116.9042392  47.8142410  59.3863503
 115.5950744  46.6921550  59.9435887 114.8683907  46.5577515  59.3352378
 115.1798030  46.9998379  60.7492605 103.4180920  50.4111480  67.7083260
 104.3383929  50.5890079  67.9023306 103.3830503  49.4667525  67.5562959
  96.4142993  48.3212515  60.3506041  96.6329002  49.2529623  60.3694075
  96.8268766  47.9620489  61.1360845 101.2870858  43.8945720  69.7408790
 101.1867585  44.8440077  69.6720881 101.0692400  43.5663959  68.8684860
  92.5051345  49.2252985  58.6029656  91.8114816  48.8106938  58.0899610
  93.2524336  49.2673522  58.0063075 108.6416566  40.0159172  53.4684690
 108.0615235  40.6743976  53.0862742 108.3752498  39.1936517  53.0572108
 107.0920132  39.4164230  55.6706010 107.5919910  39.5280764  54.8620329
 107.7355740  39.1125283  56.3106819 101.1502128  47.3242859  68.5573851
 100.6669210  48.1243219  68.7637740 101.2363067  47.3350804  67.6041295
  94.4188088  49.1571239  56.4795671  94.3958776  49.2558926  55.5277554
  94.7288724  50.0036390  56.8012837  97.0775465  51.2147394  60.5942285
  98.0318719  51.1831336  60.5272217  96.8787989  50.7538018  61.4092511
  97.6674848  49.7848510  63.1613083  98.4867737  50.2792589  63.1847920
  97.9411655  48.8680478  63.1330650 107.4241444  42.1759262  52.5241038
 106.5367299  42.4608913  52.3061233 107.8395433  42.0153026  51.6768315
 110.7755980  42.2005783  56.2395378 111.5516370  42.6902236  56.5119994
 110.0504114  42.6263838  56.6967247 113.2128539  42.9133403  57.2969318
 113.8073029  42.6729139  56.5862626 113.2855122  42.1940533  57.9242854
  95.4325694  56.7567013  57.6112483  95.2980162  55.9967414  57.0450481
  95.0157756  57.4807913  57.1441272 106.5684657  51.9403937  46.6189058
 107.2720507  52.1453940  47.2346714 105.8447306  52.5080699  46.8838142
 107.3982467  47.6913798  52.7391328 107.3417669  48.1482350  51.8998961
 107.9510810  46.9304483  52.5614171 111.2087273  43.4803530  53.5641448
 110.9524208  43.0800166  54.3949656 110.5840141  44.1947324  53.4391587
 115.5199611  46.2199603  56.0712739 114.9599169  46.2892793  56.8444301
 114.9143115  46.0440588  55.3512236  98.5894820  57.6536331  57.8230926
  98.4727204  58.5981763  57.7209616  97.7687266  57.3509892  58.2116725
 108.4771355  52.3786466  48.6687518 109.3116959  51.9467665  48.4864993
 108.3155698  52.2068480  49.5964413 108.1317247  48.8818580  50.0343858
 108.0766051  48.7162851  49.0932302 107.5063302  49.5894612  50.1906047
  92.9209762  44.1186644  63.8605280  93.5668625  43.6085598  64.3492505
  92.7126913  44.8555326  64.4348705 105.4463154  51.1867491  69.3597420
 106.3154314  51.3608144  68.9984055 104.9669905  52.0061908  69.2373150
  99.6149334  58.3064592  61.0386854 100.5176581  58.3388203  61.3553349
  99.3886704  57.3765043  61.0533190 101.3702936  57.0595579  57.6996933
 100.4198567  57.0597441  57.5861305 101.6735422  56.3128314  57.1832967
  97.2607253  41.2654261  67.9580294  98.1238714  40.9091066  68.1683619
  96.6872663  40.9268156  68.6455698 117.1055630  62.8956117  58.7642695
 117.7434040  62.7762865  58.0606035 116.9876473  63.8436961  58.8230647
 113.9145336  62.8483545  58.7004220 113.5763848  62.7324610  57.8124755
 114.7835104  62.4474711  58.6805226 109.7732152  64.7019022  54.6901111
 109.2097017  64.6108959  53.9217398 109.6584547  63.8818926  55.1703603
 114.3965119  64.0018397  64.6590425 114.3853760  63.6071195  63.7870929
 114.5585758  63.2684470  65.2524197 107.3196584  66.1970213  57.5285331
 108.1117876  65.8561038  57.1131630 107.5593234  66.3065188  58.4487484
 115.3531710  68.3689990  50.0015576 114.7019690  68.9544070  49.6149589
 116.1476073  68.8996184  50.0610613 109.2787338  65.4579127  50.4002710
 110.0518214  64.9108114  50.2615586 109.6312736  66.3223376  50.6117171
 111.1172380  66.7855509  63.6069609 110.8262246  67.6901140  63.4916276
 111.7529364  66.8272037  64.3213679 112.0428587  64.1632357  60.1970969
 112.6392159  63.9388380  59.4827932 112.1003559  63.4217103  60.7996417
 111.6153615  61.6171793  48.0321160 111.8679136  61.0953314  47.2704623
 110.6778174  61.4537938  48.1347843 116.6596898  60.6207571  55.8395903
 117.4459987  60.2026994  55.4886320 116.9235603  61.5253663  56.0077552
 116.8306976  66.0580421  50.5384560 116.1952809  66.1315048  51.2505465
 116.5004382  66.6474020  49.8603639 122.0605325  60.5582804  56.7428882
 122.7930497  59.9882021  56.9766711 121.3044681  60.1704405  57.1835387
 111.3349904  63.5199899  50.2345535 111.2186162  62.8444802  50.9026619
 111.4452164  63.0332273  49.4177688 113.6781445  62.9810046  53.9392224
 113.3139652  62.4540667  54.6505146 114.5348561  62.5908515  53.7658709
 119.5830746  54.2704378  61.2023490 119.2514070  55.1399789  60.9784705
 118.9876359  53.9540662  61.8817521 113.3186932  58.0099946  48.9353573
 113.4861334  58.8780182  49.3024044 113.1284101  58.1727227  48.0114862
 116.0762265  66.4716924  60.6019403 115.7762988  67.3741963  60.4935210
 115.7313325  66.2049108  61.4540556 109.5274747  62.9230721  56.6356107
 108.6025243  62.7906935  56.8433799 109.7759160  63.7024941  57.1326050
 119.4759409  58.9899465  58.2816840 118.5676286  58.9214873  57.9875601
 119.4247005  59.4671410  59.1098666 113.2976153  60.4657603  49.9200239
 113.1775778  60.9114654  50.7585720 112.6028741  60.8142921  49.3613778
 106.8883558  62.5663995  57.4699896 107.0175939  62.8198474  58.3839308
 106.2081009  63.1591703  57.1504552 111.0583045  73.2361245  53.5690371
 110.9807075  74.1869070  53.6478851 110.4544689  72.8907117  54.2265297
 113.5500275  60.4089110  66.2251738 112.7733609  60.9683030  66.2154602
 114.1890838  60.8945893  66.7466608 121.3421055  57.1915903  60.0594714
 120.6995436  57.4848436  59.4134509 120.8375984  57.0768823  60.8647911
 118.9961219  60.9379076  50.7480573 119.9079075  61.1706463  50.5728271
 118.4870866  61.5216120  50.1855652 111.8046647  63.2174564  65.7869705
 112.5461331  63.7559608  65.5104528 111.0983633  63.8440852  65.9441256
 117.2801987  65.3603704  64.3841866 117.6885343  64.9186115  63.6396498
 116.5579248  64.7856332  64.6376059 113.6333057  60.2976311  61.7575423
 114.4794252  60.7215724  61.9010072 113.5731694  59.6409935  62.4513986
 117.6030801  65.9204895  58.1394155 116.9739664  66.0850609  57.4370223
 117.2156463  66.3346504  58.9105119 121.4820033  66.8559333  55.4938519
 120.7971071  67.2358234  54.9435552 121.5663883  67.4654659  56.2270466
 116.7832502  57.9580679  63.4156597 116.5393434  58.7122740  62.8790872
 117.0592433  58.3366027  64.2503844 118.7370965  64.5019292  62.0933862
 118.9487860  65.1451051  61.4168243 118.6900713  63.6681608  61.6255792
 116.3397194  57.1137112  58.9970434 115.4781673  57.4118366  59.2887172
 116.3659628  57.3307511  58.0651467 113.1558763  65.6579303  55.4044240
 113.6197109  65.9367006  54.6148863 112.8915561  64.7562747  55.2217331
 110.0482844  65.2050784  58.3424003 110.6184201  65.6338053  57.7041488
 110.6390956  64.9233369  59.0408189 112.0927649  61.7802455  52.2133805
 112.7951693  62.2323499  52.6807732 111.7608278  61.1386274  52.8413698
 110.5408011  60.3714212  66.5885015 109.9106671  61.0530493  66.8220411
 110.4344099  60.2597293  65.6438153 105.8352983  60.0386008  57.5150939
 105.0452037  60.2943536  57.0391049 106.3264231  60.8534346  57.6202979
 119.8516793  67.3791247  60.2656220 120.6734237  66.9771434  59.9838901
 119.8479196  67.2759481  61.2172335 107.7867729  60.4030587  54.4734415
 106.9898892  60.5149281  54.9917911 107.5593321  60.7417239  53.6075306
 113.6173396  66.9275290  62.4216930 113.6817829  67.3895698  63.2575102
 112.9084320  66.2972655  62.5499240 104.1190686  60.2916498  59.9465930
 104.3698725  61.1763508  60.2123505 104.6550235  60.1121100  59.1741021
 127.9422786  63.7229995  56.6141191 127.1886494  63.1537394  56.4585195
 128.0770327  63.6892660  57.5611826 113.3321414  68.5943398  52.2895910
 113.1967089  69.4394934  52.7180758 113.8731226  68.7962675  51.5261844
 109.8188754  54.6734978  68.9510266 109.4255699  54.1201176  69.6257910
 110.6354894  54.9845556  69.3416783 106.7850811  66.1118836  52.8623835
 107.2975332  66.9062086  53.0129400 107.4373524  65.4145126  52.7957437
 108.5945696  69.2284592  54.9446589 108.7712324  70.1502557  54.7567573
 109.3902530  68.9143011  55.3740968 112.7356715  56.0892857  66.5430522
 113.4766428  56.6900010  66.4634985 112.9674637  55.3470495  65.9848565
 107.8798053  61.2749224  64.8208752 107.7651568  60.3734481  65.1215851
 107.0242570  61.5212921  64.4693568 114.9589890  69.2166964  66.4196252
 114.5153745  68.4303343  66.1017157 115.6207104  69.4046115  65.7540143
 109.7177011  70.7462766  60.9456931 110.2684437  70.6179829  60.1733925
 108.8788487  71.0457655  60.5951824 117.0571128  69.4969764  64.4477654
 117.0389604  70.3178645  63.9557923 117.9791048  69.3723839  64.6727795
 113.5144183  67.0113894  65.2901162 114.0472519  66.2502182  65.0600470
 112.9858264  66.7187546  66.0325317 116.6813878  52.1173960  60.8194804
 116.3378147  53.0075601  60.7433914 117.0492840  51.9275617  59.9564389
 104.7499728  64.4407490  53.6383406 105.5874950  64.8504498  53.4217114
 104.9277996  63.5006932  53.6083600 116.6464160  62.1082571  49.3267239
 116.1310784  62.8787175  49.5655626 116.3741469  61.4347707  49.9500300
 114.2311271  56.9532272  54.3852477 113.3752868  56.5639122  54.2058116
 114.6438223  57.0324232  53.5252263 115.7610418  54.4878615  58.7844037
 115.2575213  54.4508750  57.9711842 116.0541025  55.3971358  58.8440694
 112.0053304  54.5717345  57.7910219 112.8706301  54.3760153  57.4316108
 112.0730813  54.3427696  58.7179576 121.6198434  64.8614925  51.2620412
 120.8427877  64.5226085  50.8175575 122.2989915  64.8667549  50.5875377
 116.4350463  59.9809663  51.1527020 116.1300599  60.2955812  52.0037163
 117.3880906  60.0591083  51.1954353 114.8796895  66.1399886  52.8019974
 114.3518257  65.4052646  52.4893212 114.3784398  66.9174563  52.5559942
 119.8589741  64.3348907  57.9187020 119.2013416  65.0248168  58.0067149
 120.6630140  64.7245339  58.2621007 109.6115623  56.8019552  55.1626586
 110.1859375  56.5794734  54.4299779 110.1986605  56.8708247  55.9155187
 118.6695200  62.6893279  55.9690962 119.1827082  63.3223271  56.4712672
 119.3196424  62.0894475  55.6034322 109.9385210  58.8324013  49.1822471
 109.1022522  59.1698700  49.5031746 109.7989980  58.6972993  48.2449608
 111.9138291  53.6760801  53.8901655 111.2602703  53.3609819  53.2658270
 111.8718765  53.0536542  54.6161478 113.0249495  63.9580096  45.8054947
 112.1176557  63.7269350  46.0046096 113.5220527  63.1617716  45.9928929
 115.9317574  72.6677604  48.7251633 115.2579273  72.9709300  49.3336591
 116.3183396  73.4706684  48.3757090 115.1476031  60.1642735  58.2149303
 114.2298592  60.3857682  58.0570991 115.5636175  60.2389045  57.3561010
 115.9311079  61.5634151  53.3451983 116.6782898  62.0755548  53.0359105
 116.2002668  61.2418203  54.2056377 114.2037729  64.0592691  50.3278937
 113.2948948  63.7751724  50.4251407 114.2332813  64.4791770  49.4682244
 119.4356996  67.6699281  54.0970105 118.9819323  66.8290191  54.1535295
 118.8050963  68.3060679  54.4344885 118.3789916  58.5991267  55.3270772
 117.6412673  58.0868653  55.6581015 118.6316689  58.1591648  54.5154049
 117.8789936  69.5075778  55.0319923 118.1712910  70.0680835  54.3132289
 118.3888556  69.8004339  55.7873082 118.4801543  51.3767519  55.9212542
 118.7860420  50.5164882  55.6338457 119.2054148  51.9685139  55.7211535
 104.7725899  61.7798205  54.3094139 104.5750299  61.1867566  53.5845206
 104.2172563  61.4750416  55.0270078 112.7522623  61.6721312  56.4288733
 112.8071233  60.7195148  56.3531209 111.9413825  61.8280751  56.9130031
 113.9013817  65.6001435  47.6667016 113.4633247  64.8837294  47.2072653
 114.6424258  65.8277550  47.1052107 110.6914983  60.2898372  54.1879111
 109.8782848  60.5892542  54.5944304 111.1873977  59.8954060  54.9053594
 112.8423561  70.2856129  56.1213376 112.7999740  70.5116975  55.1921908
 113.7586260  70.0519503  56.2699177 116.2889195  60.7540196  63.0194005
 116.6438582  60.9811669  63.8788471 116.9361326  61.0858573  62.3971261
 122.0186931  63.8758632  53.7243334 121.8804830  64.0660228  52.7964524
 121.6623150  64.6378015  54.1811386 110.1829058  57.8616727  59.8040346
 110.8228437  57.7205486  59.1063310 109.3506588  57.5751241  59.4278948
 122.0456311  65.9435159  58.7354606 122.4792818  65.8510448  59.5837660
 122.7587892  65.9192659  58.0974622 110.9589361  67.1619158  55.9175339
 111.7529960  66.6669478  55.7157914 110.2481054  66.6337021  55.5543044
 115.7784206  69.5437253  60.2687706 115.8321228  70.1128189  61.0365422
 114.9098987  69.7139138  59.9041744 107.2672125  61.3062239  51.9935092
 106.3369713  61.2446695  52.2105054 107.3629597  60.7838192  51.1971733
 107.1857674  57.8317052  54.5813333 107.4464491  58.7462385  54.4722494
 108.0074846  57.3641495  54.7309946 108.6582599  59.2454809  61.7512158
 109.3305653  59.0372171  61.1024807 107.8312386  59.0476895  61.3117390
 122.9071861  65.9858860  61.2687491 123.1007751  66.8904670  61.5146766
 122.8072479  65.5266279  62.1026076 114.5608171  55.8716750  63.7677819
 113.9136086  56.5706700  63.6742295 115.3309187  56.3052894  64.1354067
 117.9686969  66.1365602  66.8428372 117.8172476  65.9076154  65.9258456
 117.9591649  67.0936204  66.8559717 114.7372306  63.7097515  61.8274638
 115.6664366  63.8608675  61.6543606 114.3163336  63.7981536  60.9723285
 113.5360637  67.7348180  59.5973176 113.3971723  67.3666964  60.4699114
 112.7475234  68.2495819  59.4257134 114.1308789  72.8357276  50.9398713
 114.3060545  72.3645319  51.7544335 113.4441577  73.4623042  51.1679973
 115.0865853  67.1129782  56.9862014 114.7515685  67.0730552  57.8819664
 114.5869798  66.4474498  56.5132424 109.0610097  62.5197412  62.5114595
 108.9229895  61.7877651  63.1126134 109.9715020  62.4306312  62.2298783
 118.0225044  64.4585817  47.2599073 117.4054215  63.7332645  47.1632126
 117.5541533  65.2195177  46.9166148 111.6892397  62.2317372  61.9998275
 112.3992016  61.5910564  61.9584893 111.6461705  62.4830266  62.9224455
 119.6779176  69.1684725  64.9204854 119.6191722  68.4843945  64.2535437
 120.0798694  69.9103715  64.4685480 110.4021331  59.2182590  63.8193914
 109.8658688  58.7673328  64.4715510 109.8138040  59.3528498  63.0764378
 108.6969875  75.9846639  57.7138573 108.9366473  76.6165163  58.3917591
 107.8539071  75.6334679  58.0003932 109.8123590  58.6771241  46.3820378
 108.9353057  58.5560042  46.0182624 110.2881343  57.8857319  46.1299266
 119.6796583  67.1324309  63.1518833 118.7923362  66.7950231  63.2745232
 120.2495134  66.4007340  63.3887599 101.3325730  63.4648401  56.4761885
 102.0196770  63.1510131  55.8882900 101.1773859  64.3689765  56.2029136
 106.1360452  58.3538597  60.9046909 106.0518641  57.7464267  60.1697318
 105.3143159  58.8447616  60.9056405 113.2097737  71.7925761  60.1180077
 113.1367908  72.5980733  60.6299381 112.7675130  71.9917727  59.2928098
 112.9987516  71.0297531  53.6282898 112.2155038  71.5719211  53.7221123
 113.6980261  71.5471511  54.0277139 116.3084166  56.8392161  56.2717104
 116.8052866  56.0862123  55.9518174 115.5371148  56.8756477  55.7060313
 124.1613924  62.5432526  57.9135395 124.1503800  63.4257242  57.5429328
 123.2931303  62.1904077  57.7189932 115.6696420  71.6912595  62.2738235
 116.3824392  72.3260060  62.2014137 115.1786449  71.7876461  61.4578237
 117.3913947  65.5963848  53.8455527 116.4570226  65.7165310  53.6760231
 117.5690615  64.6936315  53.5815537 112.8919135  58.9809544  55.9988788
 112.5216923  58.4280584  56.6869694 113.3878228  58.3767677  55.4463788
 120.7786498  61.4381167  54.3805561 121.2446951  62.2709159  54.3065864
 121.2293999  60.9726149  55.0850820 110.7208334  69.4407039  63.0943806
 111.4217793  70.0743522  63.2473200 110.2503449  69.7821770  62.3339445
 118.8462729  67.7824989  51.3791713 119.1222573  67.6681583  52.2885587
 117.9767228  67.3842473  51.3403886 118.7503161  53.8061754  58.4196462
 117.8366241  54.0365981  58.5878669 119.1796263  53.8900198  59.2710495
 118.5209620  61.9951646  60.9196356 117.8681070  62.2427554  60.2648809
 118.8990000  61.1815784  60.5858834 115.4816793  72.0311339  55.0224527
 115.6639188  71.2132995  55.4852279 116.3049780  72.2479032  54.5849417
 115.8158959  70.9579525  52.2839575 116.3446725  70.4471979  51.6709737
 116.0787179  70.6422055  53.1485108 114.5697193  62.7371457  67.4062394
 113.8937830  62.6365587  68.0764769 115.3924827  62.5810671  67.8698391
 106.3176052  68.9743394  60.0274909 106.9029489  68.2287082  60.1602813
 106.1200890  69.2847351  60.9111573 109.1714707  72.0094641  55.0437351
 108.5025082  72.4940769  54.5601391 109.0327577  72.2563862  55.9580730
 100.9093706  61.5448994  58.7479352 100.9477806  61.0112585  59.5416470
 100.4033999  61.0184200  58.1290329 113.3119976  74.0438385  61.6420010
 113.8638284  74.2070006  62.4069095 113.6526169  74.6342823  60.9700034
 108.2884469  56.3913535  62.2441894 108.3525795  57.2528365  61.8319292
 108.2251589  55.7787536  61.5114253 107.7636741  58.4636667  65.8914929
 108.3908780  58.0813744  66.5052453 106.9064660  58.2450869  66.2570621
 118.1630850  68.8699642  67.4968664 118.7070754  69.4829601  67.0023619
 117.5817695  69.4279221  68.0135677 104.5402284  60.2713096  51.8233283
 104.8355725  59.3623775  51.7700337 103.6390320  60.2500836  51.5014286
 116.4488363  71.9920360  58.6283692 116.3239502  71.1910100  58.1194637
 117.1067454  72.4866554  58.1397662 108.0696531  58.3469093  57.8060832
 107.3483117  58.9605060  57.6668305 108.8589787  58.8826858  57.7277478
 118.5123271  69.7929380  60.2563242 117.5653607  69.6734732  60.1841569
 118.8606044  68.9051878  60.3389503 110.8722845  55.6823519  64.0801484
 111.3957246  55.9285816  64.8427793 110.6535178  56.5143554  63.6604621
 106.2690126  57.9527194  51.9472609 105.9402832  57.0724573  51.7647714
 106.6229496  57.8974863  52.8348998 115.5169704  69.5882097  56.4567594
 115.3694667  68.6598804  56.6375164 116.3423198  69.6102187  55.9724669
 109.3831949  58.2400164  52.3148086 109.7228021  58.7686085  51.5926695
 109.8304069  58.5780570  53.0906653 119.1203826  70.4110655  57.5432467
 120.0450374  70.2053517  57.4056918 118.9519130  70.1627056  58.4521808
 112.0775390  56.6237214  61.7651154 111.7372210  55.8245027  62.1671834
 111.3714396  56.9238925  61.1927987 112.7291861  53.7086527  60.2178477
 113.5517931  53.2347005  60.0957368 112.9729925  54.4877011  60.7177164
 111.3700096  56.7374785  50.5141379 112.0908458  57.1156038  50.0105096
 110.7465400  57.4563662  50.6176357 115.5131219  57.4419934  51.4499711
 115.7294833  58.3244572  51.1488539 115.0325286  57.0506148  50.7205353
 110.2530440  60.4005647  58.0270456 110.1075021  60.7145950  58.9194737
 109.7755644  61.0190548  57.4741355 112.1126823  57.3908195  58.0751345
 112.0988392  56.4949289  57.7383643 112.8299251  57.3978859  58.7089631
 113.9652954  57.8245536  60.1204473 113.7070732  58.7462606  60.1188803
 113.4337994  57.4275970  60.8104937 118.9099143  70.9296323  52.8994558
 119.0836020  70.3642745  52.1468411 119.4028034  71.7297218  52.7174048
 104.7276102  62.9410992  60.9658117 104.1829570  63.7170800  61.0978391
 105.6055452  63.2881796  60.8077238 111.5163719  56.2722576  53.3438916
 111.6379630  55.3439222  53.5429803 111.2265761  56.2861262  52.4317231
 114.3854909  53.9577486  56.4805635 114.4076606  54.0216819  55.5257615
 114.8022968  53.1181995  56.6746142 124.7638534  63.6932746  54.5184858
 125.2069680  62.9440071  54.1203981 123.8865044  63.6842882  54.1358590
 119.8974315  70.2463087  49.9991457 120.5925220  70.8669780  50.2178771
 120.2397465  69.3958438  50.2743834 105.5142124  62.0680888  63.8588274
 104.7723860  62.2163523  64.4452904 105.1934868  62.3289154  62.9955023
 121.7965738  67.6962793  51.5278787 122.3217062  68.0350065  50.8028107
 121.7088091  66.7609808  51.3441922 113.4585787  71.6096866  63.6568664
 113.7672913  71.3646013  64.5291364 114.2561269  71.8143505  63.1687534
 113.4806399  73.7634776  55.8874040 113.0411389  73.2711155  56.5806897
 114.2314516  73.2207744  55.6466116 105.9598738  69.9546317  55.8898669
 106.7856758  69.6550089  55.5097312 105.6092790  69.1853939  56.3388457
 110.9280271  69.3072785  57.9596342 110.3060280  68.6443490  57.6598570
 111.5985138  69.3333917  57.2769990 104.1607343  67.8732643  56.8487602
 103.3239251  67.4454818  56.6671603 104.1330988  68.0665087  57.7858393
 111.0004799  57.7854573  67.5528848 111.0492954  58.6616696  67.1706618
 111.5427313  57.2431966  66.9800491 121.4859644  68.3295696  66.8329985
 120.6955188  68.3119835  66.2934485 121.2492999  68.8683990  67.5879022
 121.6057519  65.1788163  64.1462714 121.6555524  65.0138170  65.0878237
 121.4971443  64.3115422  63.7560595 110.4893778  67.8576708  51.4354803
 110.6381898  68.5412173  50.7821475 111.2960221  67.8381798  51.9504258
 118.8961282  61.1619091  65.4622020 119.7971144  61.0225556  65.1706018
 118.9709256  61.3273546  66.4020198 113.2304087  58.5385945  64.3075207
 112.3607396  58.8319512  64.0357795 113.4663567  59.1226390  65.0282470
 123.1075716  67.5985104  64.3904735 122.8160524  67.9615085  65.2268196
 122.4947847  66.8852112  64.2118067 124.3071398  65.1637984  56.9107306
 125.1418290  65.6027788  57.0744866 124.4430527  64.6876637  56.0915551
 121.3562904  62.7217719  62.8584793 121.8317026  62.9145365  62.0503645
 120.4328470  62.7776905  62.6128177 108.2446411  63.8841886  52.4415872
 107.9992453  62.9804216  52.6396082 108.4142325  63.8859036  51.4995350
 115.9343121  54.7565562  61.8240627 116.4525065  55.4926589  61.4987116
 115.5798254  55.0629556  62.6587386 107.5142058  59.6170244  49.9402033
 106.8211303  59.6914599  49.2842069 107.2693810  58.8530587  50.4623550
 116.1855715  51.1765845  57.3441524 116.4657469  50.5089034  57.9701950
 116.9706322  51.3694941  56.8316188 113.9889183  70.3524839  48.9066550
 113.4163151  70.9715026  48.4537022 114.5621977  70.9024201  49.4406472
 120.0564573  59.5983479  61.0913099 121.0081996  59.6981577  61.1125323
 119.8868024  58.8061747  61.6011183 118.0778953  56.6839062  61.2772500
 117.4828885  56.9644075  60.5818988 117.7928649  57.1732963  62.0489241
 117.2086443  70.6361989  50.0375132 118.1417116  70.5707551  50.2408008
 117.1209656  71.4718256  49.5789665 119.8374460  69.9527859  46.9979080
 119.7588091  69.6187723  47.8914838 120.6584127  70.4449627  46.9970552
 122.5352651  62.8189599  60.2055399 122.5028971  61.8805599  60.3915082
 123.1453275  62.8973635  59.4721223 114.3735982  61.6885652  46.2482603
 115.3195087  61.5591860  46.3171021 113.9950227  60.9500313  46.7252031
 122.6847140  59.6100642  60.2513682 122.1686188  58.8259099  60.0643611
 123.5687088  59.2819359  60.4160201 120.3457867  53.3541658  56.2109494
 120.1482688  53.0456746  57.0952826 120.9557572  54.0803297  56.3407424
 128.3529201  63.8805605  59.3461435 129.0832589  63.6190894  59.9069139
 127.7436146  63.1434327  59.3863503 126.4344498  62.0213468  59.9435887
 125.7077662  61.8869433  59.3352378 126.0191785  62.3290297  60.7492605
 114.2574675  65.7403398  67.7083260 115.1777684  65.9181997  67.9023306
 114.2224258  64.7959443  67.5562959 112.5578899  59.6135628  46.1837488
 111.6510355  59.3168741  46.2600201 112.8354880  59.3165446  45.3171774
 103.4756840  60.9341991  56.6336534 103.1559624  60.0807300  56.3410908
 102.9290268  61.1490570  57.3894502 107.2536747  63.6504432  60.3506041
 107.4722757  64.5821540  60.3694075 107.6662521  63.2912407  61.1360845
 114.1740965  54.1572518  52.3381729 113.3641693  53.8119603  52.7136975
 114.8625382  53.8480061  52.9269341 116.1031513  53.2350564  53.9606026
 116.6562552  53.6546018  54.6196049 116.3401599  52.3086313  54.0028982
 112.1264612  59.2237638  69.7408790 112.0261339  60.1731995  69.6720881
 111.9086154  58.8955877  68.8684860 111.3277684  56.4722563  46.3249467
 112.1896848  56.7977461  46.5845284 111.5128028  55.6854059  45.8122533
 103.3445100  64.5544903  58.6029656 102.6508571  64.1398856  58.0899610
 104.0918091  64.5965439  58.0063075 119.4810320  55.3451090  53.4684690
 118.9008989  56.0035894  53.0862742 119.2146253  54.5228434  53.0572108
 117.9313887  54.7456147  55.6706010 118.4313665  54.8572682  54.8620329
 118.5749495  54.4417200  56.3106819 111.9895882  62.6534777  68.5573851
 111.5062964  63.4535137  68.7637740 112.0756821  62.6642722  67.6041295
 105.2581842  64.4863157  56.4795671 105.2352530  64.5850844  55.5277554
 105.5682479  65.3328307  56.8012837 107.9169220  66.5439312  60.5942285
 108.8712473  66.5123254  60.5272217 107.7181743  66.0829935  61.4092511
 108.5068602  65.1140428  63.1613083 109.3261491  65.6084506  63.1847920
 108.7805410  64.1972396  63.1330650 118.2635198  57.5051180  52.5241038
 117.3761053  57.7900831  52.3061233 118.6789187  57.3444943  51.6768315
 121.6149734  57.5297701  56.2395378 122.3910124  58.0194153  56.5119994
 120.8897869  57.9555755  56.6967247 124.0522293  58.2425320  57.2969318
 124.6466784  58.0021056  56.5862626 124.1248877  57.5232451  57.9242854
 106.2719449  72.0858931  57.6112483 106.1373917  71.3259332  57.0450481
 105.8551511  72.8099831  57.1441272 117.4078412  67.2695855  46.6189058
 118.1114262  67.4745857  47.2346714 116.6841060  67.8372617  46.8838142
 118.2376222  63.0205716  52.7391328 118.1811423  63.4774267  51.8998961
 118.7904564  62.2596401  52.5614171 122.0481028  58.8095448  53.5641448
 121.7917962  58.4092083  54.3949656 121.4233896  59.5239242  53.4391587
 126.3593366  61.5491521  56.0712739 125.7992924  61.6184710  56.8444301
 125.7536869  61.3732506  55.3512236 109.4288575  72.9828248  57.8230926
 109.3120959  73.9273681  57.7209616 108.6081021  72.6801810  58.2116725
 119.3165109  67.7078384  48.6687518 120.1510713  67.2759582  48.4864993
 119.1549452  67.5360398  49.5964413 118.9711001  64.2110497  50.0343858
 118.9159805  64.0454769  49.0932302 118.3457057  64.9186530  50.1906047
 103.7603516  59.4478562  63.8605280 104.4062380  58.9377516  64.3492505
 103.5520667  60.1847243  64.4348705 116.2856908  66.5159409  69.3597420
 117.1548068  66.6900061  68.9984055 115.8063660  67.3353826  69.2373150
 112.2807127  53.7118606  49.6129176 112.2685797  54.6560446  49.7697447
 113.1730549  53.5288752  49.3188637 110.4543089  73.6356510  61.0386854
 111.3570335  73.6680120  61.3553349 110.2280459  72.7056961  61.0533190
 112.2096691  72.3887497  57.6996933 111.2592322  72.3889358  57.5861305
 112.5129177  71.6420231  57.1832967 116.0959246  50.3061383  53.8675113
 115.3291642  49.7519870  54.0131795 116.5069951  50.3783252  54.7289264
 108.1001007  56.5946179  67.9580294 108.9632469  56.2382984  68.1683619
 107.5266418  56.2560073  68.6455698 127.9449384  78.2248035  58.7642695
 128.5827794  78.1054782  58.0606035 127.8270227  79.1728879  58.8230647
 124.7539090  78.1775463  58.7004220 124.4157602  78.0616528  57.8124755
 125.6228859  77.7766628  58.6805226 120.6125906  80.0310940  54.6901111
 120.0490771  79.9400876  53.9217398 120.4978301  79.2110844  55.1703603
 125.2358873  79.3310315  64.6590425 125.2247514  78.9363113  63.7870929
 125.3979513  78.5976387  65.2524197 118.1590338  81.5262131  57.5285331
 118.9511630  81.1852956  57.1131630 118.3986988  81.6357106  58.4487484
 126.1925465  83.6981907  50.0015576 125.5413445  84.2835988  49.6149589
 126.9869828  84.2288102  50.0610613 120.1181092  80.7871044  50.4002710
 120.8911968  80.2400031  50.2615586 120.4706491  81.6515294  50.6117171
 121.9566135  82.1147427  63.6069609 121.6656001  83.0193057  63.4916276
 122.5923119  82.1563954  64.3213679 122.8822341  79.4924275  60.1970969
 123.4785914  79.2680298  59.4827932 122.9397313  78.7509021  60.7996417
 122.4547370  76.9463710  48.0321160 122.7072891  76.4245232  47.2704623
 121.5171929  76.7829856  48.1347843 127.4990653  75.9499489  55.8395903
 128.2853742  75.5318912  55.4886320 127.7629357  76.8545581  56.0077552
 127.6700730  81.3872339  50.5384560 127.0346563  81.4606966  51.2505465
 127.3398136  81.9765938  49.8603639 132.8999080  75.8874722  56.7428882
 133.6324252  75.3173939  56.9766711 132.1438436  75.4996323  57.1835387
 122.1743659  78.8491816  50.2345535 122.0579917  78.1736720  50.9026619
 122.2845919  78.3624190  49.4177688 124.5175200  78.3101964  53.9392224
 124.1533407  77.7832585  54.6505146 125.3742315  77.9200433  53.7658709
 130.4224500  69.5996296  61.2023490 130.0907825  70.4691707  60.9784705
 129.8270114  69.2832580  61.8817521 124.1580687  73.3391863  48.9353573
 124.3255089  74.2072100  49.3024044 123.9677856  73.5019145  48.0114862
 126.9156020  81.8008842  60.6019403 126.6156743  82.7033881  60.4935210
 126.5707079  81.5341025  61.4540556 120.3668501  78.2522639  56.6356107
 119.4418998  78.1198853  56.8433799 120.6152914  79.0316858  57.1326050
 130.3153164  74.3191382  58.2816840 129.4070041  74.2506791  57.9875601
 130.2640759  74.7963327  59.1098666 124.1369907  75.7949521  49.9200239
 124.0169533  76.2406572  50.7585720 123.4422496  76.1434838  49.3613778
 117.7277312  77.8955913  57.4699896 117.8569693  78.1490391  58.3839308
 117.0474764  78.4883621  57.1504552 121.8976800  88.5653163  53.5690371
 121.8200829  89.5160988  53.6478851 121.2938443  88.2199035  54.2265297
 124.3894029  75.7381028  66.2251738 123.6127363  76.2974948  66.2154602
 125.0284592  76.2237811  66.7466608 132.1814810  72.5207821  60.0594714
 131.5389190  72.8140354  59.4134509 131.6769738  72.4060741  60.8647911
 129.8354974  76.2670994  50.7480573 130.7472830  76.4998381  50.5728271
 129.3264621  76.8508038  50.1855652 122.6440402  78.5466481  65.7869705
 123.3855086  79.0851525  65.5104528 121.9377387  79.1732770  65.9441256
 128.1195741  80.6895622  64.3841866 128.5279097  80.2478032  63.6396498
 127.3973003  80.1148249  64.6376059 124.4726811  75.6268229  61.7575423
 125.3188006  76.0507642  61.9010072 124.4125449  74.9701853  62.4513986
 128.4424556  81.2496812  58.1394155 127.8133418  81.4142527  57.4370223
 128.0550218  81.6638422  58.9105119 132.3213788  82.1851250  55.4938519
 131.6364826  82.5650152  54.9435552 132.4057637  82.7946577  56.2270466
 127.6226257  73.2872597  63.4156597 127.3787188  74.0414657  62.8790872
 127.8986187  73.6657944  64.2503844 129.5764719  79.8311209  62.0933862
 129.7881615  80.4742969  61.4168243 129.5294468  78.9973526  61.6255792
 127.1790948  72.4429030  58.9970434 126.3175427  72.7410283  59.2887172
 127.2053383  72.6599429  58.0651467 123.9952518  80.9871220  55.4044240
 124.4590863  81.2658923  54.6148863 123.7309316  80.0854665  55.2217331
 120.8876599  80.5342702  58.3424003 121.4577956  80.9629970  57.7041488
 121.4784711  80.2525287  59.0408189 122.9321404  77.1094373  52.2133805
 123.6345447  77.5615417  52.6807732 122.6002032  76.4678192  52.8413698
 121.3801765  75.7006129  66.5885015 120.7500426  76.3822410  66.8220411
 121.2737853  75.5889211  65.6438153 116.6746738  75.3677925  57.5150939
 115.8845792  75.6235454  57.0391049 117.1657985  76.1826263  57.6202979
 130.6910547  82.7083165  60.2656220 131.5127991  82.3063352  59.9838901
 130.6872950  82.6051399  61.2172335 118.6261483  75.7322505  54.4734415
 117.8292646  75.8441199  54.9917911 118.3987075  76.0709157  53.6075306
 124.4567151  82.2567208  62.4216930 124.5211583  82.7187615  63.2575102
 123.7478075  81.6264573  62.5499240 114.9584441  75.6208416  59.9465930
 115.2092479  76.5055426  60.2123505 115.4943989  75.4413017  59.1741021
 138.7816540  79.0521913  56.6141191 138.0280249  78.4829311  56.4585195
 138.9164082  79.0184578  57.5611826 124.1715168  83.9235315  52.2895910
 124.0360843  84.7686851  52.7180758 124.7124981  84.1254593  51.5261844
 120.6582508  70.0026895  68.9510266 120.2649454  69.4493094  69.6257910
 121.4748648  70.3137474  69.3416783 117.6244566  81.4410753  52.8623835
 118.1369086  82.2354004  53.0129400 118.2767279  80.7437044  52.7957437
 119.4339451  84.5576510  54.9446589 119.6106079  85.4794474  54.7567573
 120.2296284  84.2434929  55.3740968 123.5750469  71.4184774  66.5430522
 124.3160182  72.0191928  66.4634985 123.8068392  70.6762412  65.9848565
 118.7191807  76.6041142  64.8208752 118.6045322  75.7026399  65.1215851
 117.8636325  76.8504838  64.4693568 125.7983645  84.5458882  66.4196252
 125.3547499  83.7595261  66.1017157 126.4600858  84.7338032  65.7540143
 120.5570766  86.0754684  60.9456931 121.1078191  85.9471747  60.1733925
 119.7182242  86.3749573  60.5951824 127.8964883  84.8261682  64.4477654
 127.8783358  85.6470563  63.9557923 128.8184803  84.7015757  64.6727795
 124.3537937  82.3405811  65.2901162 124.8866274  81.5794100  65.0600470
 123.8252018  82.0479463  66.0325317 127.5207632  67.4465877  60.8194804
 127.1771901  68.3367519  60.7433914 127.8886595  67.2567535  59.9564389
 115.5893483  79.7699408  53.6383406 116.4268705  80.1796416  53.4217114
 115.7671750  78.8298850  53.6083600 127.4857915  77.4374488  49.3267239
 126.9704538  78.2079093  49.5655626 127.2135223  76.7639625  49.9500300
 125.0705026  72.2824189  54.3852477 124.2146622  71.8931040  54.2058116
 125.4831978  72.3616150  53.5252263 126.6004172  69.8170533  58.7844037
 126.0968968  69.7800668  57.9711842 126.8934779  70.7263275  58.8440694
 122.8447058  69.9009262  57.7910219 123.7100055  69.7052071  57.4316108
 122.9124567  69.6719614  58.7179576 132.4592189  80.1906843  51.2620412
 131.6821632  79.8518003  50.8175575 133.1383670  80.1959466  50.5875377
 127.2744218  75.3101581  51.1527020 126.9694353  75.6247730  52.0037163
 128.2274660  75.3883000  51.1954353 125.7190650  81.4691804  52.8019974
 125.1912011  80.7344563  52.4893212 125.2178152  82.2466480  52.5559942
 130.6983496  79.6640824  57.9187020 130.0407170  80.3540086  58.0067149
 131.5023895  80.0537256  58.2621007 120.4509377  72.1311470  55.1626586
 121.0253129  71.9086652  54.4299779 121.0380360  72.2000165  55.9155187
 129.5088955  78.0185197  55.9690962 130.0220836  78.6515189  56.4712672
 130.1590178  77.4186393  55.6034322 120.7778964  74.1615931  49.1822471
 119.9416277  74.4990618  49.5031746 120.6383734  74.0264911  48.2449608
 122.7532045  69.0052719  53.8901655 122.0996457  68.6901736  53.2658270
 122.7112519  68.3828460  54.6161478 123.8643250  79.2872014  45.8054947
 122.9570312  79.0561268  46.0046096 124.3614282  78.4909633  45.9928929
 126.7711329  87.9969521  48.7251633 126.0973028  88.3001218  49.3336591
 127.1577151  88.7998602  48.3757090 125.9869785  75.4934653  58.2149303
 125.0692347  75.7149600  58.0570991 126.4029929  75.5680963  57.3561010
 126.7704833  76.8926068  53.3451983 127.5176652  77.4047465  53.0359105
 127.0396423  76.5710121  54.2056377 125.0431483  79.3884609  50.3278937
 124.1342703  79.1043642  50.4251407 125.0726567  79.8083688  49.4682244
 130.2750751  82.9991198  54.0970105 129.8213078  82.1582108  54.1535295
 129.6444717  83.6352597  54.4344885 129.2183670  73.9283185  55.3270772
 128.4806427  73.4160571  55.6581015 129.4710444  73.4883566  54.5154049
 128.7183690  84.8367695  55.0319923 129.0106664  85.3972752  54.3132289
 129.2282311  85.1296256  55.7873082 129.3195298  66.7059437  55.9212542
 129.6254174  65.8456800  55.6338457 130.0447902  67.2977057  55.7211535
 115.6119654  77.1090123  54.3094139 115.4144054  76.5159484  53.5845206
 115.0566318  76.8042333  55.0270078 123.5916377  77.0013230  56.4288733
 123.6464987  76.0487066  56.3531209 122.7807579  77.1572669  56.9130031
 124.7407571  80.9293353  47.6667016 124.3027001  80.2129212  47.2072653
 125.4818012  81.1569467  47.1052107 121.5308737  75.6190289  54.1879111
 120.7176603  75.9184460  54.5944304 122.0267731  75.2245978  54.9053594
 123.6817315  85.6148046  56.1213376 123.6393494  85.8408893  55.1921908
 124.5980014  85.3811421  56.2699177 127.1282949  76.0832114  63.0194005
 127.4832337  76.3103587  63.8788471 127.7755080  76.4150491  62.3971261
 132.8580686  79.2050550  53.7243334 132.7198585  79.3952146  52.7964524
 132.5016905  79.9669933  54.1811386 121.0222812  73.1908645  59.8040346
 121.6622191  73.0497404  59.1063310 120.1900343  72.9043158  59.4278948
 132.8850066  81.2727077  58.7354606 133.3186572  81.1802366  59.5837660
 133.5981646  81.2484577  58.0974622 121.7983116  82.4911075  55.9175339
 122.5923714  81.9961395  55.7157914 121.0874808  81.9628938  55.5543044
 126.6177960  84.8729171  60.2687706 126.6714983  85.4420107  61.0365422
 125.7492742  85.0431056  59.9041744 118.1065879  76.6354157  51.9935092
 117.1763468  76.5738613  52.2105054 118.2023351  76.1130110  51.1971733
 118.0251428  73.1608970  54.5813333 118.2858246  74.0754303  54.4722494
 118.8468601  72.6933412  54.7309946 119.4976354  74.5746727  61.7512158
 120.1699407  74.3664089  61.1024807 118.6706140  74.3768813  61.3117390
 133.7465615  81.3150777  61.2687491 133.9401505  82.2196588  61.5146766
 133.6466233  80.8558196  62.1026076 125.4001926  71.2008668  63.7677819
 124.7529841  71.8998618  63.6742295 126.1702941  71.6344812  64.1354067
 128.8080724  81.4657520  66.8428372 128.6566230  81.2368072  65.9258456
 128.7985403  82.4228122  66.8559717 125.5766060  79.0389433  61.8274638
 126.5058120  79.1900592  61.6543606 125.1557090  79.1273454  60.9723285
 124.3754392  83.0640097  59.5973176 124.2365478  82.6958882  60.4699114
 123.5868988  83.5787737  59.4257134 124.9702544  88.1649194  50.9398713
 125.1454300  87.6937237  51.7544335 124.2835332  88.7914960  51.1679973
 125.9259607  82.4421700  56.9862014 125.5909440  82.4022470  57.8819664
 125.4263553  81.7766416  56.5132424 119.9003851  77.8489330  62.5114595
 119.7623649  77.1169569  63.1126134 120.8108775  77.7598230  62.2298783
 128.8618799  79.7877734  47.2599073 128.2447969  79.0624562  47.1632126
 128.3935287  80.5487095  46.9166148 122.5286152  77.5609289  61.9998275
 123.2385770  76.9202482  61.9584893 122.4855460  77.8122184  62.9224455
 130.5172930  84.4976643  64.9204854 130.4585477  83.8135863  64.2535437
 130.9192449  85.2395633  64.4685480 121.2415086  74.5474507  63.8193914
 120.7052443  74.0965246  64.4715510 120.6531794  74.6820416  63.0764378
 119.5363629  91.3138557  57.7138573 119.7760227  91.9457081  58.3917591
 118.6932826  90.9626597  58.0003932 120.6517345  74.0063159  46.3820378
 119.7746811  73.8851959  46.0182624 121.1275098  73.2149237  46.1299266
 130.5190338  82.4616227  63.1518833 129.6317116  82.1242148  63.2745232
 131.0888889  81.7299258  63.3887599 112.1719485  78.7940318  56.4761885
 112.8590525  78.4802048  55.8882900 112.0167614  79.6981683  56.2029136
 116.9754207  73.6830515  60.9046909 116.8912396  73.0756184  60.1697318
 116.1536913  74.1739533  60.9056405 124.0491491  87.1217679  60.1180077
 123.9761663  87.9272650  60.6299381 123.6068884  87.3209645  59.2928098
 123.8381271  86.3589449  53.6282898 123.0548793  86.9011129  53.7221123
 124.5374016  86.8763429  54.0277139 127.1477921  72.1684078  56.2717104
 127.6446620  71.4154041  55.9518174 126.3764902  72.2048395  55.7060313
 135.0007678  77.8724444  57.9135395 134.9897554  78.7549159  57.5429328
 134.1325058  77.5195995  57.7189932 126.5090175  87.0204513  62.2738235
 127.2218147  87.6551978  62.2014137 126.0180203  87.1168379  61.4578237
 128.2307702  80.9255766  53.8455527 127.2963980  81.0457228  53.6760231
 128.4084370  80.0228232  53.5815537 123.7312890  74.3101461  55.9988788
 123.3610677  73.7572502  56.6869694 124.2271982  73.7059595  55.4463788
 131.6180253  76.7673085  54.3805561 132.0840705  77.6001077  54.3065864
 132.0687753  76.3018067  55.0850820 121.5602088  84.7698956  63.0943806
 122.2611548  85.4035439  63.2473200 121.0897203  85.1113688  62.3339445
 129.6856484  83.1116906  51.3791713 129.9616328  82.9973501  52.2885587
 128.8160983  82.7134391  51.3403886 129.5896916  69.1353672  58.4196462
 128.6759995  69.3657899  58.5878669 130.0190017  69.2192116  59.2710495
 129.3603374  77.3243564  60.9196356 128.7074824  77.5719471  60.2648809
 129.7383754  76.5107702  60.5858834 126.3210548  87.3603257  55.0224527
 126.5032943  86.5424913  55.4852279 127.1443534  87.5770949  54.5849417
 126.6552713  86.2871442  52.2839575 127.1840480  85.7763897  51.6709737
 126.9180933  85.9713972  53.1485108 125.4090947  78.0663375  67.4062394
 124.7331584  77.9657504  68.0764769 126.2318581  77.9102589  67.8698391
 117.1569806  84.3035311  60.0274909 117.7423243  83.5578999  60.1602813
 116.9594645  84.6139268  60.9111573 120.0108461  87.3386559  55.0437351
 119.3418837  87.8232687  54.5601391 119.8721331  87.5855779  55.9580730
 111.7487461  76.8740912  58.7479352 111.7871560  76.3404502  59.5416470
 111.2427754  76.3476117  58.1290329 124.1513730  89.3730302  61.6420010
 124.7032038  89.5361924  62.4069095 124.4919923  89.9634740  60.9700034
 119.1278223  71.7205452  62.2441894 119.1919550  72.5820283  61.8319292
 119.0645343  71.1079454  61.5114253 118.6030496  73.7928585  65.8914929
 119.2302535  73.4105662  66.5052453 117.7458415  73.5742787  66.2570621
 129.0024604  84.1991560  67.4968664 129.5464508  84.8121518  67.0023619
 128.4211449  84.7571138  68.0135677 115.3796039  75.6005014  51.8233283
 115.6749480  74.6915692  51.7700337 114.4784074  75.5792753  51.5014286
 127.2882117  87.3212278  58.6283692 127.1633257  86.5202018  58.1194637
 127.9461208  87.8158471  58.1397662 118.9090286  73.6761010  57.8060832
 118.1876871  74.2896978  57.6668305 119.6983541  74.2118775  57.7277478
 129.3517026  85.1221298  60.2563242 128.4047361  85.0026649  60.1841569
 129.6999799  84.2343796  60.3389503 121.7116599  71.0115437  64.0801484
 122.2351001  71.2577733  64.8427793 121.4928932  71.8435472  63.6604621
 117.1083880  73.2819112  51.9472609 116.7796586  72.4016490  51.7647714
 117.4623251  73.2266780  52.8348998 126.3563459  84.9174014  56.4567594
 126.2088421  83.9890722  56.6375164 127.1816952  84.9394105  55.9724669
 120.2225703  73.5692081  52.3148086 120.5621776  74.0978003  51.5926695
 120.6697824  73.9072487  53.0906653 129.9597581  85.7402573  57.5432467
 130.8844128  85.5345434  57.4056918 129.7912884  85.4918974  58.4521808
 122.9169144  71.9529132  61.7651154 122.5765964  71.1536945  62.1671834
 122.2108150  72.2530843  61.1927987 123.5685616  69.0378444  60.2178477
 124.3911685  68.5638923  60.0957368 123.8123679  69.8168928  60.7177164
 122.2093850  72.0666703  50.5141379 122.9302213  72.4447956  50.0105096
 121.5859155  72.7855580  50.6176357 126.3524973  72.7711852  51.4499711
 126.5688588  73.6536490  51.1488539 125.8719040  72.3798065  50.7205353
 121.0924195  75.7297565  58.0270456 120.9468775  76.0437868  58.9194737
 120.6149398  76.3482465  57.4741355 122.9520578  72.7200113  58.0751345
 122.9382146  71.8241206  57.7383643 123.6693006  72.7270777  58.7089631
 124.8046708  73.1537453  60.1204473 124.5464486  74.0754524  60.1188803
 124.2731749  72.7567888  60.8104937 129.7492897  86.2588240  52.8994558
 129.9229775  85.6934663  52.1468411 130.2421788  87.0589135  52.7174048
 115.5669857  78.2702909  60.9658117 115.0223325  79.0462717  61.0978391
 116.4449207  78.6173714  60.8077238 122.3557473  71.6014493  53.3438916
 122.4773385  70.6731140  53.5429803 122.0659516  71.6153179  52.4317231
 125.2248664  69.2869404  56.4805635 125.2470361  69.3508737  55.5257615
 125.6416723  68.4473912  56.6746142 135.6032288  79.0224663  54.5184858
 136.0463434  78.2731989  54.1203981 134.7258798  79.0134800  54.1358590
 130.7368070  85.5755005  49.9991457 131.4318974  86.1961697  50.2178771
 131.0791220  84.7250356  50.2743834 116.3535879  77.3972806  63.8588274
 115.6117615  77.5455441  64.4452904 116.0328623  77.6581071  62.9955023
 132.6359493  83.0254710  51.5278787 133.1610817  83.3641983  50.8028107
 132.5481845  82.0901726  51.3441922 124.2979541  86.9388784  63.6568664
 124.6066668  86.6937931  64.5291364 125.0955023  87.1435422  63.1687534
 124.3200153  89.0926694  55.8874040 123.8805144  88.6003072  56.5806897
 125.0708270  88.5499661  55.6466116 116.7992492  85.2838234  55.8898669
 117.6250512  84.9842006  55.5097312 116.4486544  84.5145857  56.3388457
 121.7674026  84.6364703  57.9596342 121.1454035  83.9735408  57.6598570
 122.4378892  84.6625835  57.2769990 115.0001097  83.2024561  56.8487602
 114.1633006  82.7746735  56.6671603 114.9724743  83.3957004  57.7858393
 121.8398553  73.1146491  67.5528848 121.8886708  73.9908614  67.1706618
 122.3821067  72.5723884  66.9800491 132.3253399  83.6587614  66.8329985
 131.5348942  83.6411753  66.2934485 132.0886753  84.1975908  67.5879022
 132.4451274  80.5080080  64.1462714 132.4949279  80.3430088  65.0878237
 132.3365197  79.6407339  63.7560595 121.3287532  83.1868626  51.4354803
 121.4775653  83.8704090  50.7821475 122.1353976  83.1673716  51.9504258
 129.7355036  76.4911008  65.4622020 130.6364899  76.3517473  65.1706018
 129.8103011  76.6565463  66.4020198 124.0697841  73.8677863  64.3075207
 123.2001151  74.1611429  64.0357795 124.3057322  74.4518308  65.0282470
 133.9469471  82.9277022  64.3904735 133.6554279  83.2907002  65.2268196
 133.3341602  82.2144030  64.2118067 135.1465153  80.4929902  56.9107306
 135.9812044  80.9319706  57.0744866 135.2824282  80.0168555  56.0915551
 132.1956659  78.0509636  62.8584793 132.6710780  78.2437283  62.0503645
 131.2722224  78.1068822  62.6128177 119.0840165  79.2133804  52.4415872
 118.8386207  78.3096134  52.6396082 119.2536080  79.2150954  51.4995350
 126.7736875  70.0857480  61.8240627 127.2918819  70.8218507  61.4987116
 126.4192008  70.3921473  62.6587386 118.3535813  74.9462161  49.9402033
 117.6605058  75.0206516  49.2842069 118.1087565  74.1822505  50.4623550
 127.0249469  66.5057763  57.3441524 127.3051223  65.8380952  57.9701950
 127.8100076  66.6986858  56.8316188 124.8282938  85.6816756  48.9066550
 124.2556905  86.3006944  48.4537022 125.4015732  86.2316118  49.4406472
 130.8958328  74.9275397  61.0913099 131.8475751  75.0273494  61.1125323
 130.7261778  74.1353665  61.6011183 128.9172707  72.0130980  61.2772500
 128.3222639  72.2935993  60.5818988 128.6322404  72.5024881  62.0489241
 128.0480198  85.9653907  50.0375132 128.9810871  85.8999468  50.2408008
 127.9603411  86.8010173  49.5789665 130.6768214  85.2819777  46.9979080
 130.5981846  84.9479641  47.8914838 131.4977881  85.7741545  46.9970552
 133.3746406  78.1481516  60.2055399 133.3422726  77.2097517  60.3915082
 133.9847029  78.2265553  59.4721223 125.2129736  77.0177569  46.2482603
 126.1588841  76.8883777  46.3171021 124.8343981  76.2792231  46.7252031
 133.5240894  74.9392560  60.2513682 133.0079943  74.1551016  60.0643611
 134.4080843  74.6111276  60.4160201 131.1851621  68.6833575  56.2109494
 130.9876442  68.3748663  57.0952826 131.7951327  69.4095214  56.3407424
 139.1922955  79.2097523  59.3461435 139.9226344  78.9482811  59.9069139
 138.5829901  78.4726245  59.3863503 137.2738253  77.3505386  59.9435887
 136.5471416  77.2161351  59.3352378 136.8585539  77.6582214  60.7492605
 125.0968429  81.0695315  67.7083260 126.0171438  81.2473914  67.9023306
 125.0618012  80.1251361  67.5562959 123.3972654  74.9427546  46.1837488
 122.4904109  74.6460658  46.2600201 123.6748635  74.6457364  45.3171774
 114.3150594  76.2633909  56.6336534 113.9953378  75.4099217  56.3410908
 113.7684022  76.4782487  57.3894502 118.0930502  78.9796350  60.3506041
 118.3116511  79.9113458  60.3694075 118.5056275  78.6204324  61.1360845
 125.0134719  69.4864435  52.3381729 124.2035448  69.1411520  52.7136975
 125.7019136  69.1771979  52.9269341 126.9425268  68.5642482  53.9606026
 127.4956306  68.9837936  54.6196049 127.1795354  67.6378230  54.0028982
 122.9658367  74.5529556  69.7408790 122.8655094  75.5023913  69.6720881
 122.7479909  74.2247795  68.8684860 122.1671438  71.8014481  46.3249467
 123.0290602  72.1269379  46.5845284 122.3521782  71.0145977  45.8122533
 114.1838854  79.8836821  58.6029656 113.4902325  79.4690773  58.0899610
 114.9311845  79.9257357  58.0063075 130.3204075  70.6743007  53.4684690
 129.7402744  71.3327811  53.0862742 130.0540007  69.8520352  53.0572108
 128.7707641  70.0748065  55.6706010 129.2707419  70.1864600  54.8620329
 129.4143249  69.7709118  56.3106819 122.8289637  77.9826695  68.5573851
 122.3456719  78.7827055  68.7637740 122.9150576  77.9934640  67.6041295
 116.0975597  79.8155074  56.4795671 116.0746285  79.9142762  55.5277554
 116.4076233  80.6620225  56.8012837 118.7562974  81.8731229  60.5942285
 119.7106228  81.8415172  60.5272217 118.5575498  81.4121853  61.4092511
 119.3462357  80.4432345  63.1613083 120.1655246  80.9376424  63.1847920
 119.6199164  79.5264314  63.1330650 129.1028953  72.8343098  52.5241038
 128.2154808  73.1192748  52.3061233 129.5182942  72.6736861  51.6768315
 132.4543489  72.8589619  56.2395378 133.2303879  73.3486071  56.5119994
 131.7291623  73.2847673  56.6967247 134.8916047  73.5717238  57.2969318
 135.4860538  73.3312974  56.5862626 134.9642631  72.8524368  57.9242854
 117.1113203  87.4150849  57.6112483 116.9767671  86.6551250  57.0450481
 116.6945265  88.1391749  57.1441272 128.2472166  82.5987772  46.6189058
 128.9508016  82.8037775  47.2346714 127.5234815  83.1664534  46.8838142
 129.0769976  78.3497634  52.7391328 129.0205178  78.8066185  51.8998961
 129.6298319  77.5888318  52.5614171 132.8874782  74.1387365  53.5641448
 132.6311717  73.7384001  54.3949656 132.2627650  74.8531159  53.4391587
 137.1987120  76.8783439  56.0712739 136.6386678  76.9476628  56.8444301
 136.5930624  76.7024423  55.3512236 120.2682329  88.3120166  57.8230926
 120.1514713  89.2565598  57.7209616 119.4474775  88.0093727  58.2116725
 130.1558864  83.0370302  48.6687518 130.9904468  82.6051500  48.4864993
 129.9943207  82.8652315  49.5964413 129.8104756  79.5402415  50.0343858
 129.7553560  79.3746686  49.0932302 129.1850811  80.2478448  50.1906047
 114.5997271  74.7770479  63.8605280 115.2456134  74.2669433  64.3492505
 114.3914422  75.5139161  64.4348705 127.1250663  81.8451327  69.3597420
 127.9941823  82.0191979  68.9984055 126.6457414  82.6645744  69.2373150
 123.1200881  69.0410524  49.6129176 123.1079551  69.9852364  49.7697447
 124.0124303  68.8580669  49.3188637 121.2936843  88.9648428  61.0386854
 122.1964090  88.9972038  61.3553349 121.0674213  88.0348879  61.0533190
 123.0490445  87.7179414  57.6996933 122.0986076  87.7181276  57.5861305
 123.3522931  86.9712149  57.1832967 126.9353001  65.6353301  53.8675113
 126.1685397  65.0811787  54.0131795 127.3463706  65.7075169  54.7289264
 118.9394762  71.9238096  67.9580294 119.8026223  71.5674901  68.1683619
 118.3660172  71.5851991  68.6455698 138.7843139  93.5539953  58.7642695
 139.4221549  93.4346700  58.0606035 138.6663982  94.5020797  58.8230647
 135.5932845  93.5067381  58.7004220 135.2551357  93.3908445  57.8124755
 136.4622613  93.1058546  58.6805226 131.4519661  95.3602857  54.6901111
 130.8884526  95.2692794  53.9217398 131.3372056  94.5402762  55.1703603
 136.0752628  94.6602233  64.6590425 136.0641269  94.2655031  63.7870929
 136.2373267  93.9268305  65.2524197 128.9984093  96.8554049  57.5285331
 129.7905385  96.5144873  57.1131630 129.2380743  96.9649024  58.4487484
 137.0319219  99.0273825  50.0015576 136.3807199  99.6127905  49.6149589
 137.8263582  99.5580020  50.0610613 130.9574847  96.1162962  50.4002710
 131.7305723  95.5691949  50.2615586 131.3100245  96.9807211  50.6117171
 132.7959889  97.4439344  63.6069609 132.5049755  98.3484975  63.4916276
 133.4316873  97.4855872  64.3213679 133.7216096  94.8216193  60.1970969
 134.3179668  94.5972215  59.4827932 133.7791068  94.0800938  60.7996417
 133.2941124  92.2755628  48.0321160 133.5466645  91.7537149  47.2704623
 132.3565683  92.1121774  48.1347843 138.3384407  91.2791407  55.8395903
 139.1247496  90.8610830  55.4886320 138.6023112  92.1837499  56.0077552
 138.5094485  96.7164257  50.5384560 137.8740318  96.7898883  51.2505465
 138.1791891  97.3057856  49.8603639 133.0137413  94.1783734  50.2345535
 132.8973671  93.5028638  50.9026619 133.1239673  93.6916108  49.4177688
 135.3568954  93.6393881  53.9392224 134.9927161  93.1124502  54.6505146
 136.2136070  93.2492350  53.7658709 134.9974441  88.6683781  48.9353573
 135.1648843  89.5364017  49.3024044 134.8071610  88.8311063  48.0114862
 137.7549774  97.1300760  60.6019403 137.4550497  98.0325799  60.4935210
 137.4100834  96.8632943  61.4540556 131.2062256  93.5814557  56.6356107
 130.2812752  93.4490771  56.8433799 131.4546669  94.3608776  57.1326050
 141.1546918  89.6483300  58.2816840 140.2463795  89.5798708  57.9875601
 141.1034514  90.1255245  59.1098666 134.9763662  91.1241438  49.9200239
 134.8563287  91.5698489  50.7585720 134.2816250  91.4726756  49.3613778
 128.5671067  93.2247830  57.4699896 128.6963448  93.4782309  58.3839308
 127.8868518  93.8175538  57.1504552 132.7370554 103.8945080  53.5690371
 132.6594584 104.8452905  53.6478851 132.1332198 103.5490953  54.2265297
 135.2287784  91.0672946  66.2251738 134.4521118  91.6266866  66.2154602
 135.8678347  91.5529729  66.7466608 133.4834156  93.8758399  65.7869705
 134.2248840  94.4143443  65.5104528 132.7771142  94.5024688  65.9441256
 138.9589496  96.0187539  64.3841866 139.3672852  95.5769950  63.6396498
 138.2366757  95.4440167  64.6376059 135.3120566  90.9560146  61.7575423
 136.1581761  91.3799560  61.9010072 135.2519203  90.2993771  62.4513986
 139.2818310  96.5788730  58.1394155 138.6527173  96.7434444  57.4370223
 138.8943972  96.9930340  58.9105119 138.4620011  88.6164515  63.4156597
 138.2180943  89.3706575  62.8790872 138.7379942  88.9949862  64.2503844
 140.4158474  95.1603127  62.0933862 140.6275369  95.8034887  61.4168243
 140.3688222  94.3265443  61.6255792 138.0184703  87.7720948  58.9970434
 137.1569182  88.0702201  59.2887172 138.0447137  87.9891346  58.0651467
 134.8346272  96.3163138  55.4044240 135.2984618  96.5950841  54.6148863
 134.5703070  95.4146583  55.2217331 131.7270353  95.8634620  58.3424003
 132.2971710  96.2921888  57.7041488 132.3178465  95.5817204  59.0408189
 133.7715158  92.4386291  52.2133805 134.4739202  92.8907334  52.6807732
 133.4395787  91.7970109  52.8413698 132.2195520  91.0298047  66.5885015
 131.5894180  91.7114328  66.8220411 132.1131608  90.9181129  65.6438153
 127.5140492  90.6969843  57.5150939 126.7239546  90.9527372  57.0391049
 128.0051740  91.5118181  57.6202979 129.4655238  91.0614422  54.4734415
 128.6686401  91.1733117  54.9917911 129.2380830  91.4001075  53.6075306
 135.2960905  97.5859126  62.4216930 135.3605338  98.0479533  63.2575102
 134.5871829  96.9556491  62.5499240 125.7978195  90.9500334  59.9465930
 126.0486234  91.8347344  60.2123505 126.3337744  90.7704935  59.1741021
 135.0108923  99.2527233  52.2895910 134.8754598 100.0978769  52.7180758
 135.5518735  99.4546511  51.5261844 131.4976263  85.3318813  68.9510266
 131.1043208  84.7785012  69.6257910 132.3142403  85.6429391  69.3416783
 128.4638320  96.7702671  52.8623835 128.9762841  97.5645921  53.0129400
 129.1161033  96.0728962  52.7957437 130.2733205  99.8868427  54.9446589
 130.4499833 100.8086392  54.7567573 131.0690039  99.5726847  55.3740968
 134.4144224  86.7476692  66.5430522 135.1553937  87.3483845  66.4634985
 134.6462146  86.0054330  65.9848565 129.5585562  91.9333059  64.8208752
 129.4439077  91.0318317  65.1215851 128.7030079  92.1796756  64.4693568
 136.6377399  99.8750800  66.4196252 136.1941253  99.0887178  66.1017157
 137.2994613 100.0629950  65.7540143 131.3964520 101.4046601  60.9456931
 131.9471946 101.2763665  60.1733925 130.5575996 101.7041490  60.5951824
 138.7358637 100.1553600  64.4477654 138.7177113 100.9762481  63.9557923
 139.6578557 100.0307675  64.6727795 135.1931692  97.6697729  65.2901162
 135.7260028  96.9086017  65.0600470 134.6645773  97.3771381  66.0325317
 138.3601386  82.7757795  60.8194804 138.0165656  83.6659437  60.7433914
 138.7280349  82.5859453  59.9564389 126.4287237  95.0991325  53.6383406
 127.2662459  95.5088334  53.4217114 126.6065505  94.1590768  53.6083600
 138.3251669  92.7666406  49.3267239 137.8098293  93.5371011  49.5655626
 138.0528978  92.0931542  49.9500300 135.9098780  87.6116107  54.3852477
 135.0540377  87.2222957  54.2058116 136.3225732  87.6908068  53.5252263
 137.4397927  85.1462450  58.7844037 136.9362722  85.1092585  57.9711842
 137.7328534  86.0555193  58.8440694 133.6840813  85.2301180  57.7910219
 134.5493810  85.0343989  57.4316108 133.7518322  85.0011532  58.7179576
 138.1137972  90.6393498  51.1527020 137.8088108  90.9539647  52.0037163
 139.0668415  90.7174918  51.1954353 136.5584404  96.7983722  52.8019974
 136.0305766  96.0636481  52.4893212 136.0571907  97.5758398  52.5559942
 131.2903132  87.4603388  55.1626586 131.8646884  87.2378569  54.4299779
 131.8774114  87.5292082  55.9155187 140.3482709  93.3477115  55.9690962
 140.8614591  93.9807107  56.4712672 140.9983933  92.7478310  55.6034322
 131.6172719  89.4907849  49.1822471 130.7810031  89.8282535  49.5031746
 131.4777489  89.3556829  48.2449608 133.5925800  84.3344637  53.8901655
 132.9390212  84.0193654  53.2658270 133.5506274  83.7120377  54.6161478
 134.7037004  94.6163932  45.8054947 133.7964066  94.3853185  46.0046096
 135.2008036  93.8201551  45.9928929 137.6105083 103.3261439  48.7251633
 136.9366782 103.6293136  49.3336591 137.9970905 104.1290519  48.3757090
 136.8263540  90.8226570  58.2149303 135.9086101  91.0441517  58.0570991
 137.2423684  90.8972881  57.3561010 137.6098588  92.2217986  53.3451983
 138.3570407  92.7339383  53.0359105 137.8790177  91.9002039  54.2056377
 135.8825238  94.7176527  50.3278937 134.9736457  94.4335559  50.4251407
 135.9120322  95.1375605  49.4682244 141.1144505  98.3283116  54.0970105
 140.6606832  97.4874026  54.1535295 140.4838472  98.9644515  54.4344885
 140.0577425  89.2575102  55.3270772 139.3200182  88.7452488  55.6581015
 140.3104198  88.8175484  54.5154049 139.5577445 100.1659613  55.0319923
 139.8500419 100.7264670  54.3132289 140.0676065 100.4588174  55.7873082
 140.1589052  82.0351354  55.9212542 140.4647929  81.1748718  55.6338457
 140.8841657  82.6268974  55.7211535 126.4513408  92.4382041  54.3094139
 126.2537808  91.8451402  53.5845206 125.8960072  92.1334251  55.0270078
 134.4310132  92.3305147  56.4288733 134.4858742  91.3778984  56.3531209
 133.6201334  92.4864586  56.9130031 135.5801326  96.2585270  47.6667016
 135.1420756  95.5421129  47.2072653 136.3211767  96.4861385  47.1052107
 132.3702492  90.9482207  54.1879111 131.5570357  91.2476378  54.5944304
 132.8661486  90.5537896  54.9053594 134.5211070 100.9439964  56.1213376
 134.4787248 101.1700810  55.1921908 135.4373769 100.7103339  56.2699177
 137.9676703  91.4124031  63.0194005 138.3226091  91.6395505  63.8788471
 138.6148835  91.7442408  62.3971261 131.8616567  88.5200563  59.8040346
 132.5015946  88.3789322  59.1063310 131.0294097  88.2335076  59.4278948
 132.6376870  97.8202993  55.9175339 133.4317469  97.3253313  55.7157914
 131.9268563  97.2920856  55.5543044 137.4571715 100.2021088  60.2687706
 137.5108737 100.7712025  61.0365422 136.5886496 100.3722974  59.9041744
 128.9459634  91.9646075  51.9935092 128.0157222  91.9030530  52.2105054
 129.0417106  91.4422027  51.1971733 128.8645183  88.4900888  54.5813333
 129.1252000  89.4046221  54.4722494 129.6862355  88.0225330  54.7309946
 130.3370108  89.9038645  61.7512158 131.0093162  89.6956007  61.1024807
 129.5099895  89.7060731  61.3117390 136.2395680  86.5300586  63.7677819
 135.5923595  87.2290535  63.6742295 137.0096696  86.9636730  64.1354067
 139.6474478  96.7949438  66.8428372 139.4959985  96.5659989  65.9258456
 139.6379158  97.7520039  66.8559717 136.4159815  94.3681351  61.8274638
 137.3451875  94.5192510  61.6543606 135.9950845  94.4565371  60.9723285
 135.2148146  98.3932015  59.5973176 135.0759232  98.0250799  60.4699114
 134.4262743  98.9079654  59.4257134 135.8096298 103.4941111  50.9398713
 135.9848054 103.0229155  51.7544335 135.1229086 104.1206878  51.1679973
 136.7653362  97.7713618  56.9862014 136.4303194  97.7314388  57.8819664
 136.2657307  97.1058334  56.5132424 130.7397606  93.1781248  62.5114595
 130.6017404  92.4461487  63.1126134 131.6502529  93.0890148  62.2298783
 139.7012553  95.1169652  47.2599073 139.0841724  94.3916480  47.1632126
 139.2329042  95.8779012  46.9166148 133.3679906  92.8901207  61.9998275
 134.0779525  92.2494399  61.9584893 133.3249214  93.1414102  62.9224455
 132.0808840  89.8766425  63.8193914 131.5446197  89.4257163  64.4715510
 131.4925549  90.0112334  63.0764378 130.3757384 106.6430474  57.7138573
 130.6153982 107.2748998  58.3917591 129.5326580 106.2918514  58.0003932
 131.4911099  89.3355076  46.3820378 130.6140565  89.2143877  46.0182624
 131.9668852  88.5441155  46.1299266 123.0113239  94.1232236  56.4761885
 123.6984279  93.8093966  55.8882900 122.8561368  95.0273601  56.2029136
 127.8147961  89.0122433  60.9046909 127.7306150  88.4048102  60.1697318
 126.9930668  89.5031451  60.9056405 134.8885246 102.4509597  60.1180077
 134.8155417 103.2564568  60.6299381 134.4462639 102.6501562  59.2928098
 134.6775025 101.6881367  53.6282898 133.8942547 102.2303047  53.7221123
 135.3767770 102.2055346  54.0277139 137.9871675  87.4975996  56.2717104
 138.4840375  86.7445958  55.9518174 137.2158657  87.5340313  55.7060313
 137.3483929 102.3496431  62.2738235 138.0611901 102.9843895  62.2014137
 136.8573958 102.4460297  61.4578237 139.0701456  96.2547683  53.8455527
 138.1357735  96.3749146  53.6760231 139.2478124  95.3520150  53.5815537
 134.5706644  89.6393379  55.9988788 134.2004432  89.0864419  56.6869694
 135.0665737  89.0351513  55.4463788 132.3995843 100.0990874  63.0943806
 133.1005302 100.7327357  63.2473200 131.9290958 100.4405606  62.3339445
 140.5250238  98.4408824  51.3791713 140.8010082  98.3265418  52.2885587
 139.6554737  98.0426309  51.3403886 140.4290670  84.4645590  58.4196462
 139.5153750  84.6949816  58.5878669 140.8583772  84.5484034  59.2710495
 140.1997129  92.6535482  60.9196356 139.5468579  92.9011389  60.2648809
 140.5777509  91.8399620  60.5858834 137.1604302 102.6895175  55.0224527
 137.3426697 101.8716831  55.4852279 137.9837288 102.9062867  54.5849417
 137.4946468 101.6163360  52.2839575 138.0234234 101.1055814  51.6709737
 137.7574688 101.3005890  53.1485108 136.2484702  93.3955293  67.4062394
 135.5725339  93.2949422  68.0764769 137.0712336  93.2394506  67.8698391
 127.9963561  99.6327229  60.0274909 128.5816998  98.8870917  60.1602813
 127.7988399  99.9431186  60.9111573 130.8502216 102.6678477  55.0437351
 130.1812591 103.1524604  54.5601391 130.7115086 102.9147697  55.9580730
 122.5881215  92.2032829  58.7479352 122.6265315  91.6696420  59.5416470
 122.0821508  91.6768035  58.1290329 134.9907485 104.7022220  61.6420010
 135.5425793 104.8653842  62.4069095 135.3313678 105.2926658  60.9700034
 129.9671978  87.0497370  62.2441894 130.0313304  87.9112201  61.8319292
 129.9039098  86.4371372  61.5114253 129.4424250  89.1220502  65.8914929
 130.0696289  88.7397580  66.5052453 128.5852169  88.9034704  66.2570621
 139.8418359  99.5283478  67.4968664 140.3858263 100.1413436  67.0023619
 139.2605204 100.0863056  68.0135677 126.2189793  90.9296932  51.8233283
 126.5143234  90.0207610  51.7700337 125.3177829  90.9084671  51.5014286
 138.1275872 102.6504196  58.6283692 138.0027011 101.8493935  58.1194637
 138.7854963 103.1450389  58.1397662 129.7484040  89.0052928  57.8060832
 129.0270626  89.6188896  57.6668305 130.5377296  89.5410693  57.7277478
 140.1910780 100.4513216  60.2563242 139.2441116 100.3318567  60.1841569
 140.5393553  99.5635714  60.3389503 132.5510354  86.3407355  64.0801484
 133.0744755  86.5869651  64.8427793 132.3322687  87.1727389  63.6604621
 127.9477635  88.6111029  51.9472609 127.6190341  87.7308408  51.7647714
 128.3017005  88.5558698  52.8348998 137.1957213 100.2465932  56.4567594
 137.0482176  99.3182639  56.6375164 138.0210707 100.2686023  55.9724669
 131.0619458  88.8983999  52.3148086 131.4015530  89.4269920  51.5926695
 131.5091578  89.2364405  53.0906653 133.7562899  87.2821050  61.7651154
 133.4159719  86.4828863  62.1671834 133.0501905  87.5822761  61.1927987
 134.4079370  84.3670362  60.2178477 135.2305440  83.8930840  60.0957368
 134.6517434  85.1460846  60.7177164 133.0487605  87.3958621  50.5141379
 133.7695967  87.7739873  50.0105096 132.4252909  88.1147497  50.6176357
 137.1918728  88.1003770  51.4499711 137.4082342  88.9828407  51.1488539
 136.7112795  87.7089983  50.7205353 131.9317949  91.0589483  58.0270456
 131.7862530  91.3729786  58.9194737 131.4543153  91.6774383  57.4741355
 133.7914332  88.0492031  58.0751345 133.7775901  87.1533124  57.7383643
 134.5086760  88.0562695  58.7089631 135.6440463  88.4829371  60.1204473
 135.3858241  89.4046442  60.1188803 135.1125503  88.0859806  60.8104937
 140.5886652 101.5880158  52.8994558 140.7623529 101.0226581  52.1468411
 141.0815543 102.3881053  52.7174048 126.4063611  93.5994827  60.9658117
 125.8617079  94.3754635  61.0978391 127.2842961  93.9465632  60.8077238
 133.1951228  86.9306411  53.3438916 133.3167139  86.0023057  53.5429803
 132.9053270  86.9445097  52.4317231 136.0642418  84.6161321  56.4805635
 136.0864115  84.6800655  55.5257615 136.4810477  83.7765830  56.6746142
 127.1929633  92.7264723  63.8588274 126.4511369  92.8747359  64.4452904
 126.8722377  92.9872989  62.9955023 135.1373296 102.2680702  63.6568664
 135.4460422 102.0229848  64.5291364 135.9348778 102.4727340  63.1687534
 135.1593908 104.4218611  55.8874040 134.7198898 103.9294990  56.5806897
 135.9102025 103.8791579  55.6466116 127.6386247 100.6130152  55.8898669
 128.4644267 100.3133924  55.5097312 127.2880299  99.8437775  56.3388457
 132.6067780  99.9656620  57.9596342 131.9847789  99.3027325  57.6598570
 133.2772647  99.9917752  57.2769990 125.8394852  98.5316479  56.8487602
 125.0026760  98.1038653  56.6671603 125.8118497  98.7248922  57.7858393
 132.6792308  88.4438408  67.5528848 132.7280463  89.3200531  67.1706618
 133.2214822  87.9015801  66.9800491 132.1681287  98.5160544  51.4354803
 132.3169407  99.1996008  50.7821475 132.9747730  98.4965634  51.9504258
 134.9091596  89.1969781  64.3075207 134.0394905  89.4903347  64.0357795
 135.1451076  89.7810226  65.0282470 129.9233920  94.5425721  52.4415872
 129.6779962  93.6388051  52.6396082 130.0929834  94.5442872  51.4995350
 137.6130630  85.4149398  61.8240627 138.1312574  86.1510425  61.4987116
 137.2585763  85.7213391  62.6587386 129.1929567  90.2754079  49.9402033
 128.4998812  90.3498434  49.2842069 128.9481319  89.5114423  50.4623550
 137.8643224  81.8349680  57.3441524 138.1444978  81.1672869  57.9701950
 138.6493831  82.0278776  56.8316188 135.6676692 101.0108674  48.9066550
 135.0950660 101.6298861  48.4537022 136.2409486 101.5608036  49.4406472
 139.7566462  87.3422897  61.2772500 139.1616394  87.6227910  60.5818988
 139.4716158  87.8316798  62.0489241 138.8873952 101.2945824  50.0375132
 139.8204625 101.2291386  50.2408008 138.7997165 102.1302091  49.5789665
 136.0523491  92.3469487  46.2482603 136.9982596  92.2175695  46.3171021
 135.6737736  91.6084149  46.7252031 135.9362183  96.3987233  67.7083260
 136.8565193  96.5765832  67.9023306 135.9011767  95.4543278  67.5562959
 134.2366408  90.2719463  46.1837488 133.3297864  89.9752576  46.2600201
 134.5142389  89.9749281  45.3171774 125.1544348  91.5925827  56.6336534
 124.8347133  90.7391135  56.3410908 124.6077777  91.8074405  57.3894502
 128.9324256  94.3088268  60.3506041 129.1510266  95.2405376  60.3694075
 129.3450030  93.9496242  61.1360845 135.8528474  84.8156353  52.3381729
 135.0429202  84.4703438  52.7136975 136.5412891  84.5063897  52.9269341
 137.7819022  83.8934400  53.9606026 138.3350061  84.3129853  54.6196049
 138.0189108  82.9670148  54.0028982 133.8052121  89.8821473  69.7408790
 133.7048848  90.8315830  69.6720881 133.5873663  89.5539712  68.8684860
 133.0065193  87.1306399  46.3249467 133.8684357  87.4561297  46.5845284
 133.1915537  86.3437894  45.8122533 125.0232608  95.2128738  58.6029656
 124.3296080  94.7982691  58.0899610 125.7705599  95.2549275  58.0063075
 139.6101396  85.4039983  55.6706010 140.1101174  85.5156517  54.8620329
 140.2537004  85.1001036  56.3106819 133.6683391  93.3118612  68.5573851
 133.1850473  94.1118972  68.7637740 133.7544330  93.3226557  67.6041295
 126.9369351  95.1446992  56.4795671 126.9140039  95.2434679  55.5277554
 127.2469988  95.9912143  56.8012837 129.5956729  97.2023147  60.5942285
 130.5499982  97.1707089  60.5272217 129.3969252  96.7413771  61.4092511
 130.1856111  95.7724263  63.1613083 131.0049000  96.2668342  63.1847920
 130.4592919  94.8556231  63.1330650 139.9422707  88.1635015  52.5241038
 139.0548562  88.4484666  52.3061233 140.3576696  88.0028779  51.6768315
 127.9506958 102.7442767  57.6112483 127.8161426 101.9843167  57.0450481
 127.5339020 103.4683666  57.1441272 139.0865921  97.9279690  46.6189058
 139.7901771  98.1329693  47.2346714 138.3628569  98.4956452  46.8838142
 139.9163731  93.6789551  52.7391328 139.8598932  94.1358103  51.8998961
 140.4692073  92.9180236  52.5614171 131.1076084 103.6412084  57.8230926
 130.9908468 104.5857516  57.7209616 130.2868530 103.3385645  58.2116725
 140.6498510  94.8694333  50.0343858 140.5947314  94.7038604  49.0932302
 140.0244566  95.5770365  50.1906047 125.4391025  90.1062397  63.8605280
 126.0849889  89.5961351  64.3492505 125.2308176  90.8431079  64.4348705
 137.9644417  97.1743244  69.3597420 138.8335577  97.3483897  68.9984055
 137.4851169  97.9937661  69.2373150 133.9594636  84.3702442  49.6129176
 133.9473306  85.3144281  49.7697447 134.8518058  84.1872587  49.3188637
 132.1330598 104.2940345  61.0386854 133.0357844 104.3263956  61.3553349
 131.9067968 103.3640796  61.0533190 133.8884200 103.0471332  57.6996933
 132.9379831 103.0473194  57.5861305 134.1916686 102.3004067  57.1832967
 137.7746755  80.9645218  53.8675113 137.0079151  80.4103705  54.0131795
 138.1857460  81.0367087  54.7289264 129.7788516  87.2530014  67.9580294
 130.6419978  86.8966819  68.1683619 129.2053927  86.9143909  68.6455698
 139.8377847 112.1845966  57.5285331 140.6299139 111.8436791  57.1131630
 140.0774497 112.2940942  58.4487484 139.4064821 108.5539748  57.4699896
 139.5357202 108.8074227  58.3839308 138.7262273 109.1467456  57.1504552
 138.3534247 106.0261761  57.5150939 137.5633301 106.2819289  57.0391049
 138.8445494 106.8410099  57.6202979 140.3048992 106.3906340  54.4734415
 139.5080155 106.5025034  54.9917911 140.0774584 106.7292992  53.6075306
 136.6371950 106.2792251  59.9465930 136.8879988 107.1639261  60.2123505
 137.1731498 106.0996853  59.1741021 139.3032075 112.0994589  52.8623835
 139.8156595 112.8937839  53.0129400 139.9554788 111.4020879  52.7957437
 140.3979316 107.2624977  64.8208752 140.2832831 106.3610234  65.1215851
 139.5423834 107.5088674  64.4693568 137.2680992 110.4283243  53.6383406
 138.1056214 110.8380252  53.4217114 137.4459259 109.4882685  53.6083600
 137.2907163 107.7673958  54.3094139 137.0931563 107.1743319  53.5845206
 136.7353827 107.4626169  55.0270078 139.7853388 107.2937992  51.9935092
 138.8550977 107.2322448  52.2105054 139.8810860 106.7713945  51.1971733
 139.7038937 103.8192805  54.5813333 139.9645755 104.7338138  54.4722494
 140.5256110 103.3517248  54.7309946 133.8506994 109.4524154  56.4761885
 134.5378034 109.1385884  55.8882900 133.6955122 110.3565518  56.2029136
 138.6541716 104.3414350  60.9046909 138.5699905 103.7340020  60.1697318
 137.8324422 104.8323369  60.9056405 138.8357315 114.9619147  60.0274909
 139.4210752 114.2162835  60.1602813 138.6382154 115.2723104  60.9111573
 133.4274970 107.5324747  58.7479352 133.4659069 106.9988338  59.5416470
 132.9215263 107.0059953  58.1290329 140.8065732 102.3789288  62.2441894
 140.8707059 103.2404118  61.8319292 140.7432852 101.7663289  61.5114253
 140.2818005 104.4512420  65.8914929 140.9090044 104.0689497  66.5052453
 139.4245924 104.2326622  66.2570621 137.0583548 106.2588849  51.8233283
 137.3536989 105.3499528  51.7700337 136.1571583 106.2376589  51.5014286
 138.7871389 103.9402947  51.9472609 138.4584095 103.0600326  51.7647714
 139.1410760 103.8850616  52.8348998 137.2457366 108.9286745  60.9658117
 136.7010834 109.7046553  61.0978391 138.1236716 109.2757549  60.8077238
 138.0323388 108.0556641  63.8588274 137.2905124 108.2039276  64.4452904
 137.7116132 108.3164907  62.9955023 138.4780001 115.9422070  55.8898669
 139.3038021 115.6425842  55.5097312 138.1274053 115.1729692  56.3388457
 136.6788606 113.8608396  56.8487602 135.8420515 113.4330571  56.6671603
 136.6512252 114.0540840  57.7858393 140.7627674 109.8717639  52.4415872
 140.5173716 108.9679969  52.6396082 140.9323589 109.8734789  51.4995350
 140.0323322 105.6045997  49.9402033 139.3392567 105.6790352  49.2842069
 139.7875074 104.8406340  50.4623550 135.9938103 106.9217744  56.6336534
 135.6740887 106.0683053  56.3410908 135.4471531 107.1366323  57.3894502
 139.7718011 109.6380185  60.3506041 139.9904020 110.5697293  60.3694075
 140.1843784 109.2788160  61.1360845 135.8626363 110.5420656  58.6029656
 135.1689834 110.1274609  58.0899610 136.6099354 110.5841192  58.0063075
 137.7763106 110.4738910  56.4795671 137.7533794 110.5726597  55.5277554
 138.0863742 111.3204060  56.8012837 138.7900712 118.0734684  57.6112483
 138.6555180 117.3135085  57.0450481 138.3732774 118.7975584  57.1441272
 136.2784780 105.4354315  63.8605280 136.9243643 104.9253269  64.3492505
 136.0701931 106.1722996  64.4348705  78.5401783   4.2547614  40.2935677
  78.4625812   5.2055439  40.3724158  77.9363426   3.9093487  40.9510604
  80.8140152  -0.3870233  39.0141217  80.6785827   0.4581303  39.4426065
  81.3549964  -0.1850955  38.2507151  76.0764434   0.2470962  41.6691895
  76.2531062   1.1688926  41.4812879  76.8721267  -0.0670619  42.0986275
  77.1995749   1.7649135  47.6702238  77.7503174   1.6366199  46.8979232
  76.3607225   2.0644024  47.3197130  83.4136312   3.6863973  35.4496940
  82.7398011   3.9895670  36.0581898  83.8002134   4.4893054  35.1002397
  80.3242298   1.3042498  42.8458683  80.2818477   1.5303344  41.9167215
  81.2404997   1.0705873  42.9944484  83.2602944   0.5623623  46.9933013
  83.3139966   1.1314559  47.7610729  82.3917725   0.7325508  46.6287050
  81.6127527   3.8543646  37.6644019  81.7879283   3.3831689  38.4789642
  80.9260315   4.4809412  37.8925280  76.1788613   7.0033008  44.4383879
  76.4185211   7.6351533  45.1162898  75.3357809   6.6521048  44.7249239
  80.6916474   2.8112131  46.8425383  80.6186646   3.6167102  47.3544688
  80.2493867   3.0104097  46.0173405  80.4806254   2.0483901  40.3528205
  79.6973776   2.5905581  40.4466429  81.1798999   2.5657881  40.7522446
  83.1515158   2.7098965  48.9983542  83.8643130   3.3446430  48.9259443
  82.6605187   2.8062831  48.1823544  78.2027071   0.4593408  49.8189113
  78.9036531   1.0929891  49.9718507  77.7322186   0.8008140  49.0584752
  82.9635531   3.0497709  41.7469833  83.1457926   2.2319365  42.2097586
  83.7868517   3.2665401  41.3094723  83.2977697   1.9765894  39.0084882
  83.8265463   1.4658349  38.3955044  83.5605916   1.6608424  39.8730415
  73.7994789  -0.0070237  46.7520215  74.3848226  -0.7526549  46.8848120
  73.6019628   0.3033720  47.6356879  76.6533445   3.0281011  41.7682658
  75.9843820   3.5127138  41.2846698  76.5146314   3.2750231  42.6826036
  80.7938713   5.0624754  48.3665316  81.3457021   5.2256376  49.1314401
  81.1344907   5.6529192  47.6945341  83.9307101   3.0106730  45.3528998
  83.8058240   2.2096470  44.8439944  84.5886192   3.5052923  44.8642968
  80.9404525   2.6283236  50.3813971  81.2491651   2.3832383  51.2536670
  81.7380007   2.8329874  49.8932841  80.9625137   4.7821146  42.6119347
  80.5230127   4.2897524  43.3052204  81.7133254   4.2394113  42.3711422
  73.4417476   0.9732686  42.6143975  74.2675496   0.6736458  42.2342619
  73.0911528   0.2040309  43.0633764  78.4099009   0.3259155  44.6841649
  77.7879018  -0.3370140  44.3843877  79.0803876   0.3520286  44.0015297
  71.6426081  -1.1080987  43.5732909  70.8057989  -1.5358813  43.3916910
  71.6149726  -0.9148544  44.5103700  81.4707921   1.3711208  35.6311857
  80.8981888   1.9901396  35.1782329  82.0440715   1.9210570  36.1651779
  84.6905181   1.6548359  36.7620439  85.6235854   1.5893920  36.9653315
  84.6028394   2.4904625  36.3034972  73.7538186   3.1045301  44.3357790
  73.6192654   2.3445702  43.7695788  73.3370249   3.8286201  43.8686579
  76.9107312   4.0014618  44.5476232  76.7939697   4.9460050  44.4454923
  76.0899759   3.6988179  44.9362031  77.9361826   4.6542880  47.7632161
  78.8389073   4.6866490  48.0798656  77.7099197   3.7243331  47.7778496
  79.6915429   3.4073866  44.4242239  78.7411060   3.4075728  44.3106612
  79.9947915   2.6606601  43.9078274  95.4268122   9.2434405  45.4888002
  96.0646532   9.1241152  44.7851342  95.3088965  10.1915249  45.5475954
  92.2357828   9.1961833  45.4249526  91.8976340   9.0802897  44.5370061
  93.1047596   8.7952998  45.4050533  88.0944644  11.0497309  41.4146417
  87.5309509  10.9587246  40.6462705  87.9797039  10.2297214  41.8948910
  92.7177611  10.3496684  51.3835732  92.7066252   9.9549483  50.5116236
  92.8798251   9.6162757  51.9769503  85.6409076  12.5448501  44.2530638
  86.4330368  12.2039325  43.8376937  85.8805726  12.6543476  45.1732791
  93.6744203  14.7168277  36.7260882  93.0232182  15.3022357  36.3394896
  94.4688565  15.2474472  36.7855920  87.5999830  11.8057414  37.1248017
  88.3730706  11.2586401  36.9860892  87.9525229  12.6701663  37.3362478
  89.4384872  13.1333796  50.3314916  89.1474738  14.0379427  50.2161582
  90.0741857  13.1750324  51.0458985  90.3641079  10.5110645  46.9216276
  90.9604652  10.2866667  46.2073238  90.4216051   9.7695390  47.5241723
  89.9366108   7.9650080  34.7566467  90.1891628   7.4431601  33.9949930
  88.9990667   7.8016226  34.8593150  94.9809390   6.9685858  42.5641210
  95.7672480   6.5505282  42.2131627  95.2448095   7.8731951  42.7322858
  95.1519468  12.4058709  37.2629867  94.5165301  12.4793335  37.9750771
  94.8216874  12.9952308  36.5848946  89.6562396   9.8678186  36.9590841
  89.5398655   9.1923089  37.6271926  89.7664656   9.3810560  36.1422995
  91.9993937   9.3288333  40.6637531  91.6352145   8.8018954  41.3750452
  92.8561053   8.9386802  40.4904016  91.6399424   4.3578233  35.6598879
  91.8073827   5.2258469  36.0269350  91.4496593   4.5205515  34.7360168
  94.3974757  12.8195212  47.3264710  94.0975481  13.7220251  47.2180517
  94.0525817  12.5527395  48.1785862  87.8487239   9.2709009  43.3601414
  86.9237735   9.1385223  43.5679106  88.0971652  10.0503228  43.8571356
  91.6188645   6.8135890  36.6445546  91.4988270   7.2592941  37.4831026
  90.9241234   7.1621208  36.0859084  85.2096050   8.9142282  44.1945203
  85.3388431   9.1676761  45.1084615  84.5293501   9.5069990  43.8749858
  89.3795537  19.5839532  40.2935677  89.3019567  20.5347357  40.3724158
  88.7757181  19.2385405  40.9510604  91.8712767   6.7567397  52.9497044
  91.0946101   7.3161318  52.9399909  92.5103330   7.2424180  53.4711914
  97.3173711   7.2857363  37.4725880  98.2291567   7.5184750  37.2973578
  96.8083358   7.8694408  36.9100959  90.1259139   9.5652851  52.5115011
  90.8673824  10.1037895  52.2349835  89.4196125  10.1919140  52.6686563
  95.6014479  11.7081991  51.1087173  96.0097835  11.2664402  50.3641805
  94.8791741  11.1334619  51.3621366  91.9545549   6.6454598  48.4820730
  92.8006744   7.0694012  48.6255379  91.8944187   5.9888222  49.1759293
  95.9243294  12.2683182  44.8639462  95.2952156  12.4328896  44.1615529
  95.5368956  12.6824792  45.6350426  99.8032526  13.2037620  42.2183825
  99.1183564  13.5836521  41.6680859  99.8876375  13.8132946  42.9515773
  97.0583457  10.8497579  48.8179169  97.2700352  11.4929339  48.1413550
  97.0113205  10.0159895  48.3501099  91.4771256  12.0057590  42.1289547
  91.9409601  12.2845293  41.3394169  91.2128054  11.1041035  41.9462637
  88.3695337  11.5529072  45.0669310  88.9396694  11.9816340  44.4286794
  88.9603448  11.2711656  45.7653496  90.4140142   8.1280742  38.9379112
  91.1164185   8.5801786  39.4053038  90.0820770   7.4864561  39.5659005
  88.8620503   6.7192499  53.3130321  88.2319164   7.4008780  53.5465718
  88.7556591   6.6075581  52.3683459  84.1565476   6.3864295  44.2396245
  83.3664530   6.6421824  43.7636356  84.6476723   7.2012633  44.3448286
  98.1729285  13.7269534  46.9901526  98.9946729  13.3249722  46.7084208
  98.1691688  13.6237768  47.9417642  86.1080221   6.7508874  41.1979722
  85.3111384   6.8627569  41.7163218  85.8805813   7.0895527  40.3320613
  91.9385889  13.2753578  49.1462237  92.0030321  13.7373985  49.9820409
  91.2296812  12.6450942  49.2744547  82.4403179   6.6394786  46.6711236
  82.6911217   7.5241795  46.9368812  82.9762727   6.4599387  45.8986328
 106.2635278  10.0708283  43.3386498 105.5098987   9.5015681  43.1830502
 106.3982819  10.0370947  44.2857132  91.6533906  14.9421685  39.0141217
  91.5179581  15.7873221  39.4426065  92.1943719  15.1440963  38.2507151
  85.1063304  12.4597123  39.5869142  85.6187824  13.2540373  39.7374707
  85.7586016  11.7623414  39.5202744  86.9158188  15.5762879  41.6691895
  87.0924817  16.4980844  41.4812879  87.7115022  15.2621299  42.0986275
  86.2010545   7.6227511  51.5454058  86.0864060   6.7212768  51.8461157
  85.3455063   7.8691208  51.1938875  93.2802383  15.5645252  53.1441559
  92.8366237  14.7781630  52.8262464  93.9419596  15.7524402  52.4785450
  88.0389504  17.0941053  47.6702238  88.5896929  16.9658116  46.8979232
  87.2000980  17.3935942  47.3197130  95.3783621  15.8448051  51.1722960
  95.3602096  16.6656933  50.6803230  96.3003541  15.7202127  51.3973102
  91.8356675  13.3592181  52.0146469  92.3685012  12.5980469  51.7845777
  91.3070756  13.0665833  52.7570623  83.0712220  10.7885777  40.3628713
  83.9087442  11.1982786  40.1462420  83.2490488   9.8485220  40.3328907
  94.9676652   8.4560858  36.0512546  94.4523276   9.2265463  36.2900933
  94.6953961   7.7825994  36.6745607  99.9410927  11.2093213  37.9865719
  99.1640369  10.8704372  37.5420881 100.6202408  11.2145836  37.3120684
  94.7562956   6.3287950  37.8772327  94.4513091   6.6434099  38.7282470
  95.7093398   6.4069370  37.9199660  93.2009388  12.4878173  39.5265281
  92.6730749  11.7530933  39.2138518  92.6996890  13.2652850  39.2805249
  98.1802234  10.6827194  44.6432327  97.5225908  11.3726455  44.7312456
  98.9842633  11.0723626  44.9866313  87.9328115   3.1497840  41.8871892
  88.5071867   2.9273021  41.1545085  88.5199098   3.2186534  42.6400494
  96.9907692   9.0371567  42.6936269  97.5039574   9.6701558  43.1957979
  97.6408916   8.4372762  42.3279629  88.2597702   5.1802301  35.9067778
  87.4235014   5.5176987  36.2277052  88.1202472   5.0451281  34.9694915
  91.3461988  10.3058384  32.5300254  90.4389049  10.0747637  32.7291403
  91.8433020   9.5096003  32.7174235  94.2530067  19.0155891  35.4496940
  93.5791765  19.3187588  36.0581898  94.6395889  19.8184971  35.1002397
  93.4688523   6.5121022  44.9394609  92.5511085   6.7335969  44.7816297
  93.8848667   6.5867333  44.0806317  94.2523571   7.9112438  40.0697290
  94.9995390   8.4233835  39.7604412  94.5215161   7.5896491  40.9301683
  92.5250221  10.4070979  37.0524244  91.6161440  10.1230011  37.1496714
  92.5545305  10.8270057  36.1927551  97.7569489  14.0177568  40.8215411
  97.3031816  13.1768478  40.8780602  97.1263455  14.6538966  41.1590192
  96.2002428  15.8554065  41.7565230  96.4925402  16.4159122  41.0377595
  96.7101048  16.1482626  42.5118389  83.0938392   8.1276493  41.0339446
  82.8962791   7.5345853  40.3090513  82.5385056   7.8228703  41.7515385
  91.0735115   8.0199599  43.1534039  91.1283725   7.0673436  43.0776516
  90.2626317   8.1759038  43.6375338  92.2226309  11.9479722  34.3912322
  91.7845739  11.2315581  33.9317960  92.9636750  12.1755837  33.8297414
  89.0127475   6.6376659  40.9124418  88.1995341   6.9370829  41.3189610
  89.5086469   6.2432348  41.6298900  91.1636053  16.6334416  42.8458683
  91.1212232  16.8595262  41.9167215  92.0798752  16.3997790  42.9944484
  94.6101687   7.1018483  49.7439312  94.9651075   7.3289957  50.6033778
  95.2573818   7.4336860  49.1216567 100.3399424  10.2236919  40.4488641
 100.2017322  10.4138515  39.5209830  99.9835643  10.9856302  40.9056692
  88.5041550   4.2095014  46.5285653  89.1440929   4.0683774  45.8308616
  87.6719080   3.9229528  46.1524255 100.3668803  12.2913446  45.4599913
 100.8005310  12.1988735  46.3082967 101.0800384  12.2670947  44.8219929
  89.2801854  13.5097445  42.6420646  90.0742452  13.0147765  42.4403220
  88.5693546  12.9815308  42.2788351  94.0996698  15.8915540  46.9933013
  94.1533721  16.4606477  47.7610729  93.2311480  16.0617425  46.6287050
  85.5884617   7.6540527  38.7180398  84.6582205   7.5924982  38.9350360
  85.6842089   7.1316479  37.9217039  85.5070166   4.1795339  41.3058640
  85.7676984   5.0940673  41.1967800  86.3287339   3.7119782  41.4555253
  86.9795092   5.5933097  48.4757464  87.6518145   5.3850459  47.8270113
  86.1524878   5.3955183  48.0362697 101.2284353  12.3337147  47.9932798
 101.4220243  13.2382957  48.2392073 101.1284971  11.8744566  48.8271383
  96.2899462  12.4843890  53.5673679  96.1384968  12.2554441  52.6503762
  96.2804141  13.4414491  53.5805024  93.0584798  10.0575802  48.5519945
  93.9876858  10.2086962  48.3788912  92.6375828  10.1459823  47.6968592
  91.8573130  14.0826467  46.3218483  91.7184215  13.7145251  47.1944421
  91.0687726  14.5974106  46.1502440  92.4521282  19.1835563  37.6644019
  92.6273037  18.7123606  38.4789642  91.7654070  19.8101330  37.8925280
  93.4078345  13.4608070  43.7107320  93.0728178  13.4208840  44.6064970
  92.9082291  12.7952785  43.2377731  87.3822589   8.8675700  49.2359902
  87.2442387   8.1355938  49.8371441  88.2927512   8.7784600  48.9544089
  96.3437537  10.8064104  33.9844380  95.7266707  10.0810932  33.8877433
  95.8754025  11.5673464  33.6411454  90.0104890   8.5795659  48.7243581
  90.7204508   7.9388851  48.6830200  89.9674198   8.8308554  49.6469762
  97.9991668  15.5163012  51.6450160  97.9404214  14.8322232  50.9780743
  98.4011187  16.2582002  51.1930786  88.7233824   5.5660877  50.5439221
  88.1871181   5.1151615  51.1960817  88.1350532   5.7006786  49.8009685
  87.0182367  22.3324926  44.4383879  87.2578965  22.9643450  45.1162898
  86.1751563  21.9812966  44.7249239  88.1336082   5.0249528  33.1065684
  87.2565549   4.9038329  32.7427931  88.6093836   4.2335606  32.8544573
  98.0009075  13.4802596  49.8764140  97.1135854  13.1428518  49.9990539
  98.5707627  12.7485627  50.1132905  79.6538223   9.8126688  43.2007191
  80.3409262   9.4988418  42.6128207  79.4986351  10.7168053  42.9274443
  84.4572945   4.7016884  47.6292215  84.3731133   4.0942554  46.8942625
  83.6355651   5.1925903  47.6301712  91.5310229  18.1404049  46.8425383
  91.4580400  18.9459020  47.3544688  91.0887622  18.3396014  46.0173405
  91.3200008  17.3775819  40.3528205  90.5367530  17.9197499  40.4466429
  92.0192754  17.8949798  40.7522446 102.4826416   8.8910814  44.6380702
 102.4716292   9.7735529  44.2674635 101.6143795   8.5382364  44.4435239
  93.9908912  18.0390883  48.9983542  94.7036885  18.6738347  48.9259443
  93.4998941  18.1354749  48.1823544  95.7126439  11.9442135  40.5700834
  94.7782718  12.0643598  40.4005538  95.8903108  11.0414602  40.3060843
  91.2131627   5.3287831  42.7234095  90.8429415   4.7758871  43.4115000
  91.7090720   4.7245964  42.1709095  99.0998991   7.7859454  41.1050868
  99.5659443   8.6187446  41.0311170  99.5506491   7.3204436  41.8096126
  89.0420826  15.7885326  49.8189113  89.7430285  16.4221809  49.9718507
  88.5715941  16.1300058  49.0584752  97.1675222  14.1303276  38.1037020
  97.4435066  14.0159870  39.0130894  96.2979720  13.7320761  38.0649193
  96.8422112   8.3429933  47.6441663  96.1893562   8.5905841  46.9894116
  97.2202492   7.5294072  47.3104140  93.8029286  18.3789627  41.7469833
  93.9851680  17.5611283  42.2097586  94.6262272  18.5957319  41.3094723
  94.1371451  17.3057812  39.0084882  94.6659218  16.7950266  38.3955044
  94.3999671  16.9900342  39.8730415  92.8909685   9.0849745  54.1307700
  92.2150322   8.9843874  54.8010075  93.7137319   8.9288958  54.5943697
  84.6388544  15.3221681  46.7520215  85.2241981  14.5765369  46.8848120
  84.4413382  15.6325638  47.6356879  87.4927199  18.3572928  41.7682658
  86.8237574  18.8419056  41.2846698  87.3540069  18.6042149  42.6826036
  79.2306199   7.8927281  45.4724659  79.2690298   7.3590872  46.2661777
  78.7246492   7.3662487  44.8535636  91.6332468  20.3916672  48.3665316
  92.1850776  20.5548293  49.1314401  91.9738661  20.9821110  47.6945341
  86.6096961   2.7391822  48.9687201  86.6738288   3.6006653  48.5564599
  86.5464081   2.1265823  48.2359559  86.0849234   4.8114954  52.6160235
  86.7121272   4.4292032  53.2297759  85.2277152   4.5929156  52.9815928
  96.4843342  15.2177929  54.2213971  97.0283246  15.8307888  53.7268925
  95.9030187  15.7757508  54.7380984  82.8614776   6.6191383  38.5478590
  83.1568217   5.7102062  38.4945644  81.9602812   6.5979123  38.2259592
  94.7700855  18.3398647  45.3528998  94.6451995  17.5388387  44.8439944
  95.4279946  18.8344841  44.8642968  86.3909023   4.6947380  44.5306139
  85.6695609   5.3083348  44.3913612  87.1802279   5.2305145  44.4522785
  96.8335763  16.1407668  46.9808548  95.8866099  16.0213019  46.9086875
  97.1818537  15.2530166  47.0634810  84.5902618   4.3005481  38.6717915
  84.2615324   3.4202860  38.4893021  84.9441989   4.2453150  39.5594304
  93.8382197  15.9360384  43.1812901  93.6907159  15.0077091  43.3620471
  94.6635690  15.9580474  42.6969976  87.7044441   4.5878451  39.0393393
  88.0440514   5.1164372  38.3172001  88.1516562   4.9258857  39.8151959
  97.4416319  16.7588943  44.2677773  98.3662866  16.5531804  44.1302225
  97.2731622  16.5105344  45.1767115  89.6912588   3.0853072  37.2386686
  90.4120951   3.4634325  36.7350402  89.0677892   3.8041949  37.3421664
  88.5742932   6.7483935  44.7515763  88.4287513   7.0624238  45.6440044
  88.0968136   7.3668835  44.1986661  92.2865446   4.1723823  46.8449779
  92.0283224   5.0940893  46.8434110  91.7550486   3.7754257  47.5350244
  97.2311635  17.2774610  39.6239865  97.4048512  16.7121032  38.8713717
  97.7240526  18.0775505  39.4419355  83.0488595   9.2889279  47.6903424
  82.5042063  10.0649087  47.8223698  83.9267944   9.6360084  47.5322545
 103.0851026  10.0411033  41.2430165 103.5282172   9.2918358  40.8449288
 102.2077536  10.0321169  40.8603897  98.2186807  16.5941374  36.7236763
  98.9137712  17.2148067  36.9424078  98.5609957  15.7436726  36.9989141
  83.8354616   8.4159175  50.5833581  83.0936353   8.5641811  51.1698211
  83.5147361   8.6767441  49.7200330 100.1178230  14.0441080  38.2524094
 100.6429555  14.3828353  37.5273414 100.0300583  13.1088095  38.0687229
  91.7798279  17.9575154  50.3813971  92.0885406  17.7124300  51.2536670
  92.5773761  18.1621792  49.8932841  91.8018891  20.1113063  42.6119347
  91.3623881  19.6189442  43.3052204  92.5527008  19.5686031  42.3711422
  84.2811230  16.3024604  42.6143975  85.1069250  16.0028376  42.2342619
  83.9305282  15.5332226  43.0633764  89.2492763  15.6551072  44.6841649
  88.6272773  14.9921777  44.3843877  89.9197630  15.6812204  44.0015297
  82.4819835  14.2210931  43.5732909  81.6451744  13.7933105  43.3916910
  82.4543481  14.4143374  44.5103700  89.3217291   4.1332860  54.2774155
  89.3705446   5.0094983  53.8951924  89.8639805   3.5910253  53.7045798
  99.8072136  14.6773984  53.5575292  99.0167680  14.6598122  53.0179791
  99.5705491  15.2162277  54.3124328  99.9270012  11.5266450  50.8708020
  99.9768016  11.3616457  51.8123543  99.8183935  10.6593709  50.4805901
  88.8106270  14.2054996  38.1600109  88.9594391  14.8890460  37.5066782
  89.6172714  14.1860086  38.6749565  97.2173774   7.5097378  52.1867327
  98.1183637   7.3703843  51.8951325  97.2921748   7.6751833  53.1265505
  91.5516579   4.8864233  51.0320513  90.6819889   5.1797799  50.7603102
  91.7876060   5.4704678  51.7527777 101.4288208  13.9463391  51.1150042
 101.1373017  14.3093372  51.9513503 100.8160340  13.2330400  50.9363374
 102.6283891  11.5116271  43.6352612 103.4630782  11.9506075  43.7990173
 102.7643019  11.0354924  42.8160858  99.6775397   9.0696006  49.5830100
 100.1529518   9.2623652  48.7748951  98.7540962   9.1255192  49.3373484
  86.5658903  10.2320173  39.1661178  86.3204945   9.3282503  39.3641388
  86.7354818  10.2337324  38.2240656  85.8354551   5.9648531  36.6647340
  85.1423796   6.0392886  36.0087376  85.5906303   5.2008874  37.1868857
  92.3101676  16.7003126  35.6311857  91.7375643  17.3193313  35.1782329
  92.8834469  17.2502488  36.1651779  95.5298936  16.9840276  36.7620439
  96.4629609  16.9185838  36.9653315  95.4422148  17.8196543  36.3034972
  98.1586952  16.3006147  33.7224387  98.0800584  15.9666010  34.6160145
  98.9796619  16.7927914  33.7215859 100.8565143   9.1667886  46.9300705
 100.8241463   8.2283887  47.1160389 101.4665767   9.2451923  46.1966530
  92.6948474   8.0363939  32.9727909  93.6407579   7.9070147  33.0416327
  92.3162719   7.2978601  33.4497337 106.6741693  10.2283893  46.0706742
 107.4045082   9.9669181  46.6314445 106.0648639   9.4912615  46.1108810
 104.7556990   8.3691755  46.6681193 104.0290154   8.2347720  46.0597685
 104.3404277   8.6768584  47.4737911  92.5787167  12.0881685  54.4328566
  93.4990176  12.2660284  54.6268613  92.5436750  11.1437730  54.2808265
  90.8791391   5.9613915  32.9082794  89.9722847   5.6647028  32.9845508
  91.1567372   5.6643733  32.0417081  81.7969332   7.2820279  43.3581841
  81.4772116   6.4285587  43.0656215  81.2502760   7.4968857  44.1139808
  85.5749239   9.9982720  47.0751347  85.7935249  10.9299827  47.0939381
  85.9875013   9.6390694  47.8606151  90.4477105   5.5715925  56.4654096
  90.3473832   6.5210282  56.3966187  90.2298647   5.2434164  55.5930166
  81.6657592  10.9023190  45.3274962  80.9721063  10.4877143  44.8144917
  82.4130583  10.9443727  44.7308381  90.3108375   9.0013064  55.2819158
  89.8275456   9.8013424  55.4883047  90.3969314   9.0121009  54.3286602
  83.5794334  10.8341444  43.2040977  83.5565022  10.9329131  42.2522860
  83.8894971  11.6806595  43.5258143  86.2381712  12.8917599  47.3187592
  87.1924966  12.8601541  47.2517523  86.0394236  12.4308223  48.1337818
  86.8281094  11.4618715  49.8858389  87.6473983  11.9562794  49.9093227
  87.1017902  10.5450683  49.8575957  84.5931941  18.4337218  44.3357790
  84.4586409  17.6737619  43.7695788  84.1764003  19.1578118  43.8686579
  95.7290904  13.6174142  33.3434365  96.4326754  13.8224144  33.9592021
  95.0053553  14.1850904  33.6083448  96.5588714   9.3684003  39.4636635
  96.5023916   9.8252555  38.6244267  97.1117057   8.6074688  39.2859478
  87.7501067  19.3306535  44.5476232  87.6333451  20.2751968  44.4454923
  86.9293513  19.0280097  44.9362031  97.6377601  14.0556671  35.3932825
  98.4723205  13.6237870  35.2110300  97.4761944  13.8838685  36.3209719
  97.2923494  10.5588784  36.7589164  97.2372297  10.3933056  35.8177608
  96.6669549  11.2664817  36.9151354  82.0816009   5.7956849  50.5850586
  82.7274872   5.2855803  51.0737812  81.8733160   6.5325530  51.1594012
  94.6069401  12.8637696  56.0842727  95.4760560  13.0378349  55.7229362
  94.1276152  13.6832113  55.9618456  88.7755581  19.9834797  47.7632161
  89.6782828  20.0158408  48.0798656  88.5492951  19.0535248  47.7778496
  90.5309183  18.7365784  44.4242239  89.5804814  18.7367645  44.3106612
  90.8341669  17.9898518  43.9078274  86.4213500   2.9424466  54.6825601
  87.2844961   2.5861271  54.8928925  85.8478910   2.6038361  55.3701005
 106.2661876  24.5726322  45.4888002 106.9040286  24.4533070  44.7851342
 106.1482719  25.5207166  45.5475954 103.0751583  24.5253750  45.4249526
 102.7370094  24.4094815  44.5370061 103.9441351  24.1244915  45.4050533
 103.5571366  25.6788602  51.3835732 103.5460007  25.2841400  50.5116236
 103.7192005  24.9454675  51.9769503  98.4393584  27.1349332  37.1248017
  99.2124460  26.5878319  36.9860892  98.7918983  27.9993581  37.3362478
 101.2034834  25.8402562  46.9216276 101.7998406  25.6158585  46.2073238
 101.2609805  25.0987308  47.5241723 100.7759862  23.2941998  34.7566467
 101.0285383  22.7723519  33.9949930  99.8384421  23.1308143  34.8593150
 105.8203145  22.2977776  42.5641210 106.6066234  21.8797199  42.2131627
 106.0841849  23.2023868  42.7322858 105.9913222  27.7350626  37.2629867
 105.3559055  27.8085253  37.9750771 105.6610629  28.3244225  36.5848946
 111.2211572  22.2353009  43.4674188 111.9536744  21.6652226  43.7012018
 110.4650928  21.8474610  43.9080694 100.4956151  25.1970104  36.9590841
 100.3792409  24.5215007  37.6271926 100.6058411  24.7102478  36.1422995
 102.8387692  24.6580251  40.6637531 102.4745899  24.1310872  41.3750452
 103.6954808  24.2678720  40.4904016 108.7436992  15.9474583  47.9268797
 108.4120317  16.8169994  47.7030012 108.1482606  15.6310867  48.6062827
 102.4793179  19.6870150  35.6598879 102.6467581  20.5550387  36.0269350
 102.2890348  19.8497432  34.7360168 105.2368512  28.1487129  47.3264710
 104.9369235  29.0512168  47.2180517 104.8919572  27.8819313  48.1785862
 108.6365656  20.6669670  45.0062147 107.7282533  20.5985078  44.7120908
 108.5853252  21.1441615  45.8343972 102.4582400  22.1427808  36.6445546
 102.3382025  22.5884859  37.4831026 101.7634988  22.4913126  36.0859084
 102.7106522  22.0859315  52.9497044 101.9339856  22.6453235  52.9399909
 103.3497085  22.5716098  53.4711914 110.5027302  18.8686108  46.7840021
 109.8601682  19.1618641  46.1379815 109.9982231  18.7539028  47.5893218
 108.1567466  22.6149281  37.4725880 109.0685322  22.8476668  37.2973578
 107.6477113  23.1986325  36.9100959 100.9652894  24.8944769  52.5115011
 101.7067578  25.4329812  52.2349835 100.2589879  25.5211057  52.6686563
 106.4408233  27.0373909  51.1087173 106.8491590  26.5956320  50.3641805
 105.7185495  26.4626537  51.3621366 102.7939304  21.9746516  48.4820730
 103.6400499  22.3985929  48.6255379 102.7337941  21.3180140  49.1759293
 106.7637048  27.5975100  44.8639462 106.1345911  27.7620814  44.1615529
 106.3762710  28.0116709  45.6350426 110.6426280  28.5329537  42.2183825
 109.9577318  28.9128439  41.6680859 110.7270129  29.1424864  42.9515773
 105.9438749  19.6350884  50.1401903 105.6999681  20.3892945  49.6036179
 106.2198679  20.0136232  50.9749150 107.8977212  26.1789496  48.8179169
 108.1094107  26.8221256  48.1413550 107.8506960  25.3451813  48.3501099
 105.5003441  18.7907317  45.7215741 104.6387920  19.0888571  46.0132479
 105.5265875  19.0077716  44.7896774 102.3165010  27.3349508  42.1289547
 102.7803356  27.6137211  41.3394169 102.0521808  26.4332952  41.9462637
 101.2533896  23.4572660  38.9379112 101.9557939  23.9093704  39.4053038
 100.9214525  22.8156479  39.5659005  99.7014258  22.0484417  53.3130321
  99.0712918  22.7300698  53.5465718  99.5950345  21.9367498  52.3683459
  94.9959230  21.7156213  44.2396245  94.2058284  21.9713741  43.7636356
  95.4870477  22.5304551  44.3448286 109.0123040  29.0561452  46.9901526
 109.8340483  28.6541639  46.7084208 109.0085442  28.9529686  47.9417642
 102.7779643  28.6045495  49.1462237 102.8424076  29.0665902  49.9820409
 102.0690567  27.9742860  49.2744547  93.2796933  21.9686703  46.6711236
  93.5304971  22.8533713  46.9368812  93.8156481  21.7891305  45.8986328
 117.1029033  25.4000200  43.3386498 116.3492741  24.8307598  43.1830502
 117.2376574  25.3662865  44.2857132  98.9795000  16.3505183  55.6755572
  98.5861946  15.7971381  56.3503216  99.7961141  16.6615761  56.0662090
 101.8962961  17.7663062  53.2675829 102.6372675  18.3670215  53.1880291
 102.1280884  17.0240699  52.7093871  97.0404299  22.9519429  51.5454058
  96.9257814  22.0504686  51.8461157  96.1848817  23.1983126  51.1938875
 104.1196137  30.8937169  53.1441559 103.6759991  30.1073548  52.8262464
 104.7813351  31.0816320  52.4785450 106.2177375  31.1739969  51.1722960
 106.1995850  31.9948850  50.6803230 107.1397295  31.0494044  51.3973102
 102.6750429  28.6884099  52.0146469 103.2078766  27.9272387  51.7845777
 102.1464510  28.3957750  52.7570623 105.8420124  13.7944165  47.5440110
 105.4984394  14.6845806  47.4679221 106.2099087  13.6045822  46.6809696
 105.8070407  23.7852776  36.0512546 105.2917030  24.5557380  36.2900933
 105.5347715  23.1117912  36.6745607 103.3917518  18.6302476  41.1097784
 102.5359114  18.2409327  40.9303423 103.8044470  18.7094437  40.2497570
 104.9216665  16.1648820  45.5089344 104.4181460  16.1278955  44.6957149
 105.2147272  17.0741562  45.5686000 101.1659551  16.2487549  44.5155525
 102.0312547  16.0530358  44.1561415 101.2337059  16.0197901  45.4424882
 110.7804681  26.5385130  37.9865719 110.0034124  26.1996290  37.5420881
 111.4596162  26.5437754  37.3120684 105.5956710  21.6579868  37.8772327
 105.2906846  21.9726017  38.7282470 106.5487152  21.7361288  37.9199660
 104.0403142  27.8170091  39.5265281 103.5124504  27.0822851  39.2138518
 103.5390645  28.5944767  39.2805249 109.0195988  26.0119112  44.6432327
 108.3619662  26.7018373  44.7312456 109.8236387  26.4015544  44.9866313
  98.7721870  18.4789757  41.8871892  99.3465622  18.2564939  41.1545085
  99.3592852  18.5478452  42.6400494 107.8301447  24.3663484  42.6936269
 108.3433329  24.9993476  43.1957979 108.4802671  23.7664680  42.3279629
  99.0991457  20.5094218  35.9067778  98.2628769  20.8468905  36.2277052
  98.9596226  20.3743198  34.9694915 101.0744537  15.3531006  40.6146962
 100.4208950  15.0380023  39.9903576 101.0325011  14.7306747  41.3406785
 102.1855742  25.6350301  32.5300254 101.2782804  25.4039555  32.7291403
 102.6826774  24.8387921  32.7174235 104.3082278  21.8412940  44.9394609
 103.3904839  22.0627887  44.7816297 104.7242421  21.9159250  44.0806317
 105.0917325  23.2404356  40.0697290 105.8389144  23.7525753  39.7604412
 105.3608915  22.9188408  40.9301683 103.3643976  25.7362896  37.0524244
 102.4555195  25.4521929  37.1496714 103.3939059  26.1561975  36.1927551
 108.5963243  29.3469486  40.8215411 108.1425570  28.5060396  40.8780602
 107.9657210  29.9830884  41.1590192 107.5396163  20.2761472  42.0516079
 106.8018919  19.7638858  42.3826321 107.7922936  19.8361853  41.2399356
 107.0396182  31.1845982  41.7565230 107.3319157  31.7451040  41.0377595
 107.5494803  31.4774543  42.5118389 107.6407790  13.0537724  42.6457848
 107.9466667  12.1935087  42.3583763 108.3660395  13.6455344  42.4456842
 101.9128870  23.3491517  43.1534039 101.9677479  22.3965353  43.0776516
 101.1020072  23.5050956  43.6375338 103.0620063  27.2771640  34.3912322
 102.6239493  26.5607499  33.9317960 103.8030504  27.5047755  33.8297414
  99.8521230  21.9668577  40.9124418  99.0389095  22.2662747  41.3189610
 100.3480224  21.5724265  41.6298900 105.4495441  22.4310401  49.7439312
 105.8044829  22.6581874  50.6033778 106.0967572  22.7628778  49.1216567
 111.1793178  25.5528837  40.4488641 111.0411077  25.7430433  39.5209830
 110.8229397  26.3148220  40.9056692  99.3435304  19.5386932  46.5285653
  99.9834684  19.3975691  45.8308616  98.5112835  19.2521445  46.1524255
 111.2062558  27.6205364  45.4599913 111.6399064  27.5280653  46.3082967
 111.9194139  27.5962864  44.8219929  96.3463921  19.5087257  41.3058640
  96.6070738  20.4232590  41.1967800  97.1681093  19.0411700  41.4555253
  97.8188846  20.9225014  48.4757464  98.4911900  20.7142376  47.8270113
  96.9918633  20.7247100  48.0362697 112.0678107  27.6629065  47.9932798
 112.2613997  28.5674875  48.2392073 111.9678726  27.2036484  48.8271383
 103.7214418  17.5486955  50.4923125 103.0742333  18.2476905  50.3987602
 104.4915434  17.9823099  50.8599373 107.1293216  27.8135807  53.5673679
 106.9778722  27.5846359  52.6503762 107.1197896  28.7706409  53.5805024
 103.8978552  25.3867720  48.5519945 104.8270612  25.5378880  48.3788912
 103.4769582  25.4751741  47.6968592 104.2472099  28.7899987  43.7107320
 103.9121932  28.7500757  44.6064970 103.7476045  28.1244703  43.2377731
  98.2216343  24.1967617  49.2359902  98.0836141  23.4647856  49.8371441
  99.1321267  24.1076517  48.9544089 107.1831291  26.1356022  33.9844380
 106.5660462  25.4102850  33.8877433 106.7147780  26.8965382  33.6411454
 100.8498644  23.9087577  48.7243581 101.5598263  23.2680769  48.6830200
 100.8067952  24.1600471  49.6469762 108.8385423  30.8454930  51.6450160
 108.7797969  30.1614150  50.9780743 109.2404941  31.5873920  51.1930786
  99.5627578  20.8952794  50.5439221  99.0264935  20.4443533  51.1960817
  98.9744286  21.0298703  49.8009685  98.9729837  20.3541446  33.1065684
  98.0959303  20.2330247  32.7427931  99.4487590  19.5627524  32.8544573
 108.8402830  28.8094514  49.8764140 107.9529609  28.4720436  49.9990539
 109.4101381  28.0777545  50.1132905  90.4931977  25.1418606  43.2007191
  91.1803017  24.8280336  42.6128207  90.3380106  26.0459970  42.9274443
  95.2966699  20.0308802  47.6292215  95.2124888  19.4234472  46.8942625
  94.4749406  20.5217820  47.6301712 105.4690413  18.5162366  42.9962410
 105.9659113  17.7632328  42.6763480 104.6977395  18.5526682  42.4305620
 113.3220171  24.2202731  44.6380702 113.3110047  25.1027447  44.2674635
 112.4537550  23.8674282  44.4435239 106.5520194  27.2734053  40.5700834
 105.6176473  27.3935515  40.4005538 106.7296862  26.3706520  40.3060843
 102.0525382  20.6579749  42.7234095 101.6823169  20.1050789  43.4115000
 102.5484474  20.0537882  42.1709095 109.9392745  23.1151372  41.1050868
 110.4053197  23.9479364  41.0311170 110.3900246  22.6496354  41.8096126
 108.0068976  29.4595193  38.1037020 108.2828820  29.3451788  39.0130894
 107.1373475  29.0612678  38.0649193 107.9109408  15.4831959  45.1441769
 106.9972488  15.7136186  45.3123976 108.3402509  15.5670403  45.9955801
 107.6815866  23.6721851  47.6441663 107.0287317  23.9197759  46.9894116
 108.0596246  22.8585989  47.3104140 103.7303439  24.4141662  54.1307700
 103.0544076  24.3135792  54.8010075 104.5531073  24.2580876  54.5943697
  90.0699953  23.2219199  45.4724659  90.1084053  22.6882790  46.2661777
  89.5640246  22.6954404  44.8535636  97.4490716  18.0683739  48.9687201
  97.5132042  18.9298570  48.5564599  97.3857836  17.4557741  48.2359559
  96.9242988  20.1406872  52.6160235  97.5515027  19.7583949  53.2297759
  96.0670907  19.9221074  52.9815928 107.3237097  30.5469847  54.2213971
 107.8677001  31.1599805  53.7268925 106.7423941  31.1049426  54.7380984
  93.7008531  21.9483301  38.5478590  93.9961972  21.0393980  38.4945644
  92.7996567  21.9271041  38.2259592  97.2302778  20.0239298  44.5306139
  96.5089364  20.6375265  44.3913612  98.0196034  20.5597062  44.4522785
 107.6729518  31.4699585  46.9808548 106.7259853  31.3504936  46.9086875
 108.0212291  30.5822083  47.0634810 100.0329091  17.3593724  50.8046790
 100.5563493  17.6056021  51.5673100  99.8141425  18.1913759  50.3849928
  95.4296372  19.6297399  38.6717915  95.1009079  18.7494778  38.4893021
  95.7835743  19.5745067  39.5594304 104.6775951  31.2652301  43.1812901
 104.5300914  30.3369009  43.3620471 105.5029445  31.2872392  42.6969976
  98.5438196  19.9170369  39.0393393  98.8834268  20.4456290  38.3172001
  98.9910316  20.2550775  39.8151959 108.2810073  32.0880860  44.2677773
 109.2056621  31.8823722  44.1302225 108.1125376  31.8397261  45.1767115
 101.2381636  18.3007419  48.4896461 100.8978457  17.5015232  48.8917141
 100.5320643  18.6009130  47.9173294 101.8898108  15.3856732  46.9423784
 102.7124178  14.9117210  46.8202674 102.1336172  16.1647215  47.4422470
 100.5306343  18.4144990  37.2386686 101.2514705  18.7926243  36.7350402
  99.9071647  19.1333867  37.3421664 104.6737466  19.1190139  38.1745018
 104.8901080  20.0014777  37.8733846 104.1931533  18.7276353  37.4450660
  99.4136687  22.0775852  44.7515763  99.2681268  22.3916155  45.6440044
  98.9361891  22.6960753  44.1986661 101.2733070  19.0678400  44.7996652
 101.2594639  18.1719494  44.4628950 101.9905498  19.0749064  45.4334938
 103.1259201  19.5015741  46.8449779 102.8676978  20.4232811  46.8434110
 102.5944241  19.1046175  47.5350244  93.8882349  24.6181197  47.6903424
  93.3435817  25.3941005  47.8223698  94.7661699  24.9652001  47.5322545
 100.6769966  17.9492781  40.0684222 100.7985877  17.0209427  40.2675110
 100.3872008  17.9631467  39.1562538 103.5461156  15.6347691  43.2050942
 103.5682853  15.6987024  42.2502922 103.9629215  14.7952200  43.3991448
 113.9244780  25.3702951  41.2430165 114.3675927  24.6210276  40.8449288
 113.0471291  25.3613087  40.8603897 109.0580562  31.9233292  36.7236763
 109.7531466  32.5439985  36.9424078 109.4003712  31.0728643  36.9989141
  94.6748371  23.7451093  50.5833581  93.9330107  23.8933728  51.1698211
  94.3541115  24.0059359  49.7200330 110.9571985  29.3732998  38.2524094
 111.4823309  29.7120270  37.5273414 110.8694337  28.4380013  38.0687229
 100.1611045  19.4624778  54.2774155 100.2099201  20.3386901  53.8951924
 100.7033560  18.9202171  53.7045798 110.6465891  30.0065901  53.5575292
 109.8561435  29.9890040  53.0179791 110.4099246  30.5454195  54.3124328
 110.7663766  26.8558368  50.8708020 110.8161771  26.6908375  51.8123543
 110.6577689  25.9885627  50.4805901 108.0567528  22.8389296  52.1867327
 108.9577391  22.6995760  51.8951325 108.1315503  23.0043750  53.1265505
 102.3910334  20.2156150  51.0320513 101.5213643  20.5089716  50.7603102
 102.6269814  20.7996595  51.7527777 112.2681963  29.2755309  51.1150042
 111.9766771  29.6385290  51.9513503 111.6554094  28.5622317  50.9363374
 113.4677645  26.8408189  43.6352612 114.3024537  27.2797993  43.7990173
 113.6036774  26.3646842  42.8160858 110.5169151  24.3987924  49.5830100
 110.9923273  24.5915570  48.7748951 109.5934716  24.4547110  49.3373484
 105.0949368  16.4335767  48.5485934 105.6131311  17.1696794  48.2232422
 104.7404500  16.7399761  49.3832693  96.6748305  21.2940449  36.6647340
  95.9817550  21.3684803  36.0087376  96.4300057  20.5300792  37.1868857
 105.3461962  12.8536050  44.0686830 105.6263716  12.1859239  44.6947257
 106.1312569  13.0465145  43.5561494 109.2170820  21.2753684  47.8158406
 110.1688243  21.3751781  47.8370630 109.0474271  20.4831952  48.3256490
 107.2385200  18.3609267  48.0017806 106.6435132  18.6414280  47.3064295
 106.9534896  18.8503168  48.7734548 108.9980707  31.6298064  33.7224387
 108.9194338  31.2957928  34.6160145 109.8190373  32.1219832  33.7215859
 111.6958898  24.4959804  46.9300705 111.6635218  23.5575804  47.1160389
 112.3059522  24.5743840  46.1966530 103.5342229  23.3655857  32.9727909
 104.4801333  23.2362065  33.0416327 103.1556474  22.6270518  33.4497337
 111.8453386  21.2870847  46.9758988 111.3292435  20.5029304  46.7888917
 112.7293335  20.9589564  47.1405508 109.5064113  15.0311863  42.9354801
 109.3088934  14.7226951  43.8198133 110.1163819  15.7573501  43.0652731
 117.5135448  25.5575810  46.0706742 118.2438836  25.2961098  46.6314445
 116.9042393  24.8204532  46.1108810 115.5950745  23.6983673  46.6681193
 114.8683908  23.5639638  46.0597685 115.1798032  24.0060502  47.4737911
 103.4180921  27.4173603  54.4328566 104.3383931  27.5952202  54.6268613
 103.3830504  26.4729648  54.2808265 101.7185146  21.2905833  32.9082794
 100.8116601  20.9938946  32.9845508 101.9961127  20.9935651  32.0417081
  92.6363086  22.6112196  43.3581841  92.3165871  21.7577504  43.0656215
  92.0896514  22.8260774  44.1139808  96.4142994  25.3274637  47.0751347
  96.6329004  26.2591745  47.0939381  96.8268768  24.9682612  47.8606151
 103.3347212  15.8342723  39.0627036 102.5247940  15.4889808  39.4382282
 104.0231629  15.5250266  39.6514647 105.2637760  14.9120769  40.6851332
 105.8168799  15.3316223  41.3441356 105.5007846  13.9856518  40.7274288
 101.2870859  20.9007843  56.4654096 101.1867586  21.8502200  56.3966187
 101.0692401  20.5726082  55.5930166 100.4883931  18.1492768  33.0494774
 101.3503095  18.4747666  33.3090591 100.6734275  17.3624264  32.5367839
  92.5051346  26.2315108  45.3274962  91.8114818  25.8169061  44.8144917
  93.2524337  26.2735644  44.7308381 108.6416567  17.0221295  40.1929997
 108.0615236  17.6806099  39.8108049 108.3752500  16.1998639  39.7817414
 107.0920133  16.4226352  42.3951317 107.5919912  16.5342887  41.5865636
 107.7355741  16.1187405  43.0352125 101.1502129  24.3304982  55.2819158
 100.6669211  25.1305342  55.4883047 101.2363068  24.3412927  54.3286602
 107.4241445  19.1821385  39.2486345 106.5367300  19.4671036  39.0306540
 107.8395434  19.0215148  38.4013622 110.7755981  19.2067906  42.9640684
 111.5516371  19.6964358  43.2365301 110.0504115  19.6325960  43.4212554
 113.2128540  19.9195525  44.0214625 113.8073031  19.6791261  43.3107933
 113.2855123  19.2002656  44.6488161 106.5684658  28.9466060  33.3434365
 107.2720509  29.1516062  33.9592021 105.8447307  29.5142822  33.6083448
 107.3982469  24.6975921  39.4636635 107.3417670  25.1544472  38.6244267
 107.9510811  23.9366605  39.2859478 111.2087275  20.4865653  40.2886755
 110.9524209  20.0862288  41.1194962 110.5840143  21.2009447  40.1636894
 115.5199613  23.2261726  42.7958046 114.9599171  23.2954915  43.5689608
 114.9143116  23.0502711  42.0757542 108.4771356  29.3848589  35.3932825
 109.3116960  28.9529787  35.2110300 108.3155699  29.2130603  36.3209719
 108.1317248  25.8880702  36.7589164 108.0766052  25.7224974  35.8177608
 107.5063303  26.5956735  36.9151354  92.9209763  21.1248767  50.5850586
  93.5668627  20.6147720  51.0737812  92.7126914  21.8617448  51.1594012
 105.4463155  28.1929614  56.0842727 106.3154315  28.3670266  55.7229362
 104.9669907  29.0124031  55.9618456 101.4413374  15.3888811  36.3374483
 101.4292043  16.3330651  36.4942754 102.3336795  15.2058957  36.0433944
 105.2565493  11.9831588  40.5920419 104.4897889  11.4290074  40.7377102
 105.6676198  12.0553457  41.4534571  97.2607254  18.2716384  54.6825601
  98.1238716  17.9153188  54.8928925  96.6872665  17.9330278  55.3701005
 117.1055631  39.9018240  45.4888002 117.7434041  39.7824987  44.7851342
 116.9876474  40.8499084  45.5475954 113.9145337  39.8545668  45.4249526
 113.5763849  39.7386733  44.5370061 114.7835105  39.4536833  45.4050533
 114.3965120  41.0080520  51.3835732 114.3853761  40.6133318  50.5116236
 114.5585760  40.2746592  51.9769503 115.3531712  45.3752112  36.7260882
 114.7019691  45.9606193  36.3394896 116.1476074  45.9058307  36.7855920
 109.2787339  42.4641249  37.1248017 110.0518215  41.9170236  36.9860892
 109.6312738  43.3285499  37.3362478 111.1172381  43.7917632  50.3314916
 110.8262247  44.6963262  50.2161582 111.7529366  43.8334159  51.0458985
 112.0428588  41.1694480  46.9216276 112.6392160  40.9450502  46.2073238
 112.1003560  40.4279226  47.5241723 111.6153617  38.6233915  34.7566467
 111.8679137  38.1015437  33.9949930 110.6778176  38.4600061  34.8593150
 116.6596899  37.6269694  42.5641210 117.4459989  37.2089117  42.2131627
 116.9235604  38.5315786  42.7322858 116.8306977  43.0642544  37.2629867
 116.1952810  43.1377171  37.9750771 116.5004383  43.6536143  36.5848946
 122.0605327  37.5644927  43.4674188 122.7930499  36.9944144  43.7012018
 121.3044682  37.1766527  43.9080694 111.3349905  40.5262021  36.9590841
 111.2186163  39.8506925  37.6271926 111.4452165  40.0394395  36.1422995
 113.6781446  39.9872168  40.6637531 113.3139654  39.4602789  41.3750452
 114.5348562  39.5970638  40.4904016 119.5830747  31.2766501  47.9268797
 119.2514072  32.1461912  47.7030012 118.9876360  30.9602785  48.6062827
 113.3186933  35.0162068  35.6598879 113.4861336  35.8842305  36.0269350
 113.1284102  35.1789350  34.7360168 116.0762266  43.4779047  47.3264710
 115.7762990  44.3804086  47.2180517 115.7313326  43.2111230  48.1785862
 119.4759410  35.9961587  45.0062147 118.5676288  35.9276996  44.7120908
 119.4247006  36.4733532  45.8343972 113.2976154  37.4719726  36.6445546
 113.1775779  37.9176776  37.4831026 112.6028743  37.8205043  36.0859084
 111.0583046  50.2423367  40.2935677 110.9807076  51.1931193  40.3724158
 110.4544690  49.8969240  40.9510604 113.5500276  37.4151233  52.9497044
 112.7733610  37.9745153  52.9399909 114.1890839  37.9008016  53.4711914
 121.3421057  34.1978026  46.7840021 120.6995437  34.4910559  46.1379815
 120.8375985  34.0830946  47.5893218 118.9961220  37.9441199  37.4725880
 119.9079076  38.1768586  37.2973578 118.4870867  38.5278243  36.9100959
 111.8046648  40.2236686  52.5115011 112.5461333  40.7621730  52.2349835
 111.0983634  40.8502975  52.6686563 117.2801988  42.3665827  51.1087173
 117.6885344  41.9248237  50.3641805 116.5579249  41.7918454  51.3621366
 113.6333058  37.3038433  48.4820730 114.4794253  37.7277847  48.6255379
 113.5731696  36.6472058  49.1759293 117.6030803  42.9267017  44.8639462
 116.9739665  43.0912731  44.1615529 117.2156465  43.3408627  45.6350426
 121.4820035  43.8621455  42.2183825 120.7971073  44.2420357  41.6680859
 121.5663884  44.4716782  42.9515773 116.7832503  34.9642802  50.1401903
 116.5393435  35.7184862  49.6036179 117.0592434  35.3428149  50.9749150
 118.7370966  41.5081414  48.8179169 118.9487861  42.1513174  48.1413550
 118.6900714  40.6743731  48.3501099 116.3397195  34.1199235  45.7215741
 115.4781674  34.4180488  46.0132479 116.3659630  34.3369634  44.7896774
 113.1558765  42.6641425  42.1289547 113.6197110  42.9429128  41.3394169
 112.8915563  41.7624870  41.9462637 110.0482846  42.2112907  45.0669310
 110.6184203  42.6400175  44.4286794 110.6390957  41.9295492  45.7653496
 112.0927651  38.7864578  38.9379112 112.7951694  39.2385621  39.4053038
 111.7608279  38.1448397  39.5659005 110.5408012  37.3776334  53.3130321
 109.9106673  38.0592615  53.5465718 110.4344100  37.2659416  52.3683459
 105.8352985  37.0448130  44.2396245 105.0452039  37.3005659  43.7636356
 106.3264232  37.8596468  44.3448286 119.8516794  44.3853370  46.9901526
 120.6734238  43.9833557  46.7084208 119.8479197  44.2821604  47.9417642
 113.6173398  43.9337413  49.1462237 113.6817830  44.3957820  49.9820409
 112.9084321  43.3034778  49.2744547 127.9422787  40.7292118  43.3386498
 127.1886496  40.1599516  43.1830502 128.0770328  40.6954783  44.2857132
 113.3321415  45.6005520  39.0141217 113.1967090  46.4457056  39.4426065
 113.8731228  45.8024798  38.2507151 109.8188755  31.6797100  55.6755572
 109.4255700  31.1263299  56.3503216 110.6354895  31.9907679  56.0662090
 108.5945697  46.2346715  41.6691895 108.7712326  47.1564679  41.4812879
 109.3902531  45.9205134  42.0986275 112.7356716  33.0954979  53.2675829
 113.4766429  33.6962132  53.1880291 112.9674639  32.3532617  52.7093871
 114.9589892  46.2229087  53.1441559 114.5153746  45.4365465  52.8262464
 115.6207105  46.4108237  52.4785450 109.7177013  47.7524888  47.6702238
 110.2684438  47.6241952  46.8979232 108.8788489  48.0519778  47.3197130
 117.0571130  46.5031887  51.1722960 117.0389605  47.3240768  50.6803230
 117.9791050  46.3785962  51.3973102 113.5144184  44.0176016  52.0146469
 114.0472521  43.2564304  51.7845777 112.9858265  43.7249668  52.7570623
 116.6813879  29.1236082  47.5440110 116.3378148  30.0137724  47.4679221
 117.0492841  28.9337740  46.6809696 116.6464161  39.1144693  36.0512546
 116.1310785  39.8849298  36.2900933 116.3741470  38.4409830  36.6745607
 114.2311273  33.9594394  41.1097784 113.3752869  33.5701245  40.9303423
 114.6438224  34.0386355  40.2497570 115.7610419  31.4940737  45.5089344
 115.2575215  31.4570873  44.6957149 116.0541026  32.4033480  45.5686000
 112.0053305  31.5779467  44.5155525 112.8706302  31.3822276  44.1561415
 112.0730814  31.3489819  45.4424882 121.6198436  41.8677048  37.9865719
 120.8427878  41.5288208  37.5420881 122.2989917  41.8729671  37.3120684
 116.4350465  36.9871785  37.8772327 116.1300600  37.3017935  38.7282470
 117.3880907  37.0653205  37.9199660 114.8796896  43.1462009  39.5265281
 114.3518258  42.4114768  39.2138518 114.3784399  43.9236685  39.2805249
 119.8589743  41.3411029  44.6432327 119.2013417  42.0310291  44.7312456
 120.6630142  41.7307461  44.9866313 109.6115624  33.8081675  41.8871892
 110.1859376  33.5856857  41.1545085 110.1986607  33.8770370  42.6400494
 118.6695201  39.6955402  42.6936269 119.1827083  40.3285394  43.1957979
 119.3196425  39.0956597  42.3279629 109.9385211  35.8386136  35.9067778
 109.1022523  36.1760823  36.2277052 109.7989981  35.7035116  34.9694915
 111.9138292  30.6822924  40.6146962 111.2602704  30.3671941  39.9903576
 111.8718766  30.0598664  41.3406785 113.0249497  40.9642219  32.5300254
 112.1176558  40.7331472  32.7291403 113.5220529  40.1679838  32.7174235
 115.9317576  49.6739726  35.4496940 115.2579274  49.9771423  36.0581898
 116.3183398  50.4768807  35.1002397 115.1476032  37.1704858  44.9394609
 114.2298594  37.3919805  44.7816297 115.5636176  37.2451168  44.0806317
 115.9311080  38.5696273  40.0697290 116.6782899  39.0817670  39.7604412
 116.2002669  38.2480326  40.9301683 114.2037730  41.0654814  37.0524244
 113.2948949  40.7813847  37.1496714 114.2332814  41.4853892  36.1927551
 119.4356998  44.6761403  40.8215411 118.9819325  43.8352313  40.8780602
 118.8050964  45.3122802  41.1590192 118.3789917  35.6053389  42.0516079
 117.6412674  35.0930776  42.3826321 118.6316691  35.1653771  41.2399356
 117.8789937  46.5137900  41.7565230 118.1712911  47.0742957  41.0377595
 118.3888557  46.8066461  42.5118389 118.4801544  28.3829641  42.6457848
 118.7860421  27.5227005  42.3583763 119.2054149  28.9747262  42.4456842
 112.7522624  38.6783435  43.1534039 112.8071234  37.7257271  43.0776516
 111.9413826  38.8342874  43.6375338 113.9013818  42.6063558  34.3912322
 113.4633248  41.8899417  33.9317960 114.6424259  42.8339672  33.8297414
 110.6914984  37.2960494  40.9124418 109.8782850  37.5954665  41.3189610
 111.1873978  36.9016183  41.6298900 112.8423562  47.2918251  42.8458683
 112.7999741  47.5179097  41.9167215 113.7586261  47.0581626  42.9944484
 116.2889196  37.7602319  49.7439312 116.6438583  37.9873792  50.6033778
 116.9361327  38.0920696  49.1216567 122.0186933  40.8820755  40.4488641
 121.8804831  41.0722351  39.5209830 121.6623152  41.6440137  40.9056692
 110.1829059  34.8678850  46.5285653 110.8228438  34.7267609  45.8308616
 109.3506589  34.5813363  46.1524255 122.0456312  42.9497282  45.4599913
 122.4792819  42.8572571  46.3082967 122.7587893  42.9254782  44.8219929
 110.9589363  44.1681280  42.6420646 111.7529961  43.6731600  42.4403220
 110.2481055  43.6399143  42.2788351 115.7784207  46.5499376  46.9933013
 115.8321229  47.1190312  47.7610729 114.9098989  46.7201261  46.6287050
 122.9071862  42.9920982  47.9932798 123.1007752  43.8966793  48.2392073
 122.8072480  42.5328401  48.8271383 114.5608173  32.8778873  50.4923125
 113.9136088  33.5768823  50.3987602 115.3309188  33.3115017  50.8599373
 117.9686971  43.1427725  53.5673679 117.8172477  42.9138277  52.6503762
 117.9591650  44.0998326  53.5805024 114.7372307  40.7159638  48.5519945
 115.6664367  40.8670797  48.3788912 114.3163337  40.8043659  47.6968592
 113.5360639  44.7410302  46.3218483 113.3971724  44.3729087  47.1944421
 112.7475235  45.2557942  46.1502440 114.1308791  49.8419399  37.6644019
 114.3060546  49.3707442  38.4789642 113.4441579  50.4685165  37.8925280
 115.0865854  44.1191905  43.7107320 114.7515686  44.0792675  44.6064970
 114.5869800  43.4536621  43.2377731 109.0610098  39.5259535  49.2359902
 108.9229896  38.7939774  49.8371441 109.9715021  39.4368435  48.9544089
 118.0225046  41.4647939  33.9844380 117.4054216  40.7394767  33.8877433
 117.5541534  42.2257300  33.6411454 111.6892399  39.2379494  48.7243581
 112.3992017  38.5972686  48.6830200 111.6461707  39.4892389  49.6469762
 119.6779177  46.1746848  51.6450160 119.6191723  45.4906068  50.9780743
 120.0798696  46.9165838  51.1930786 108.6969876  52.9908761  44.4383879
 108.9366474  53.6227286  45.1162898 107.8539072  52.6396801  44.7249239
 109.8123591  35.6833364  33.1065684 108.9353058  35.5622164  32.7427931
 110.2881345  34.8919442  32.8544573 119.6796584  44.1386432  49.8764140
 118.7923363  43.8012353  49.9990539 120.2495136  43.4069463  50.1132905
 113.2097738  48.7987884  46.8425383 113.1367909  49.6042855  47.3544688
 112.7675131  48.9979850  46.0173405 112.9987517  48.0359654  40.3528205
 112.2155039  48.5781334  40.4466429 113.6980263  48.5533634  40.7522446
 116.3084168  33.8454283  42.9962410 116.8052867  33.0924246  42.6763480
 115.5371149  33.8818600  42.4305620 124.1613925  39.5494649  44.6380702
 124.1503801  40.4319364  44.2674635 123.2931304  39.1966200  44.4435239
 115.6696421  48.6974718  48.9983542 116.3824394  49.3322183  48.9259443
 115.1786450  48.7938584  48.1823544 117.3913948  42.6025971  40.5700834
 116.4570227  42.7227433  40.4005538 117.5690617  41.6998437  40.3060843
 112.8919136  35.9871666  42.7234095 112.5216924  35.4342707  43.4115000
 113.3878229  35.3829800  42.1709095 120.7786500  38.4443290  41.1050868
 121.2446952  39.2771281  41.0311170 121.2294000  37.9788271  41.8096126
 110.7208335  46.4469161  49.8189113 111.4217794  47.0805644  49.9718507
 110.2503450  46.7883893  49.0584752 118.8462731  44.7887111  38.1037020
 119.1222575  44.6743706  39.0130894 117.9767229  44.3904596  38.0649193
 118.7503162  30.8123877  45.1441769 117.8366242  31.0428104  45.3123976
 119.1796264  30.8962321  45.9955801 118.5209621  39.0013769  47.6441663
 117.8681071  39.2489676  46.9894116 118.8990001  38.1877907  47.3104140
 115.4816795  49.0373462  41.7469833 115.6639189  48.2195118  42.2097586
 116.3049781  49.2541154  41.3094723 115.8158960  47.9641647  39.0084882
 116.3446727  47.4534102  38.3955044 116.0787180  47.6484177  39.8730415
 114.5697194  39.7433580  54.1307700 113.8937831  39.6427709  54.8010075
 115.3924828  39.5872794  54.5943697 106.3176053  45.9805516  46.7520215
 106.9029490  45.2349204  46.8848120 106.1200891  46.2909473  47.6356879
 109.1714708  49.0156764  41.7682658 108.5025083  49.5002891  41.2846698
 109.0327578  49.2625984  42.6826036 113.3119977  51.0500507  48.3665316
 113.8638285  51.2132129  49.1314401 113.6526170  51.6404945  47.6945341
 118.1630851  45.8761765  54.2213971 118.7070755  46.4891723  53.7268925
 117.5817696  46.4341343  54.7380984 116.4488364  48.9982483  45.3528998
 116.3239504  48.1972223  44.8439944 117.1067455  49.4928676  44.8642968
 108.0696532  35.3531215  44.5306139 107.3483118  35.9667183  44.3913612
 108.8589788  35.8888980  44.4522785 118.5123272  46.7991503  46.9808548
 117.5653608  46.6796854  46.9086875 118.8606046  45.9114001  47.0634810
 110.8722846  32.6885642  50.8046790 111.3957248  32.9347938  51.5673100
 110.6535179  33.5205677  50.3849928 115.5169706  46.5944219  43.1812901
 115.3694668  45.6660927  43.3620471 116.3423199  46.6164310  42.6969976
 119.1203828  47.4172778  44.2677773 120.0450375  47.2115639  44.1302225
 118.9519131  47.1689179  45.1767115 112.0775391  33.6299337  48.4896461
 111.7372211  32.8307150  48.8917141 111.3714397  33.9301048  47.9173294
 112.7291863  30.7148649  46.9423784 113.5517932  30.2409128  46.8202674
 112.9729926  31.4939133  47.4422470 111.3700097  33.7436908  37.2386686
 112.0908460  34.1218161  36.7350402 110.7465401  34.4625785  37.3421664
 115.5131220  34.4482057  38.1745018 115.7294834  35.3306695  37.8733846
 115.0325287  34.0568270  37.4450660 110.2530441  37.4067770  44.7515763
 110.1075022  37.7208073  45.6440044 109.7755645  38.0252670  44.1986661
 112.1126824  34.3970318  44.7996652 112.0988393  33.5011411  44.4628950
 112.8299252  34.4040982  45.4334938 113.9652955  34.8307658  46.8449779
 113.7070733  35.7524729  46.8434110 113.4337995  34.4338093  47.5350244
 118.9099144  47.9358445  39.6239865 119.0836021  47.3704868  38.8713717
 119.4028035  48.7359340  39.4419355 104.7276104  39.9473114  47.6903424
 104.1829572  40.7232922  47.8223698 105.6055453  40.2943919  47.5322545
 111.5163720  33.2784698  40.0684222 111.6379631  32.3501344  40.2675110
 111.2265763  33.2923384  39.1562538 114.3854911  30.9639609  43.2050942
 114.4076607  31.0278942  42.2502922 114.8022970  30.1244117  43.3991448
 124.7638535  40.6994868  41.2430165 125.2069681  39.9502193  40.8449288
 123.8865045  40.6905005  40.8603897 119.8974316  47.2525210  36.7236763
 120.5925221  47.8731902  36.9424078 120.2397466  46.4020561  36.9989141
 121.7965739  44.7024915  38.2524094 122.3217063  45.0412188  37.5273414
 121.7088092  43.7671931  38.0687229 113.4585788  48.6158989  50.3813971
 113.7672915  48.3708136  51.2536670 114.2561270  48.8205627  49.8932841
 113.4806400  50.7696899  42.6119347 113.0411390  50.2773277  43.3052204
 114.2314517  50.2269866  42.3711422 105.9598739  46.9608439  42.6143975
 106.7856759  46.6612211  42.2342619 105.6092791  46.1916062  43.0633764
 110.9280272  46.3134908  44.6841649 110.3060282  45.6505613  44.3843877
 111.5985139  46.3396040  44.0015297 104.1607344  44.8794766  43.5732909
 103.3239252  44.4516940  43.3916910 104.1330990  45.0727209  44.5103700
 111.0004800  34.7916696  54.2774155 111.0492955  35.6678818  53.8951924
 111.5427314  34.2494089  53.7045798 121.4859645  45.3357819  53.5575292
 120.6955189  45.3181958  53.0179791 121.2493000  45.8746113  54.3124328
 121.6057521  42.1850285  50.8708020 121.6555525  42.0200293  51.8123543
 121.4971444  41.3177544  50.4805901 110.4893779  44.8638831  38.1600109
 110.6381900  45.5474295  37.5066782 111.2960223  44.8443921  38.6749565
 118.8961283  38.1681213  52.1867327 119.7971146  38.0287678  51.8951325
 118.9709257  38.3335668  53.1265505 113.2304088  35.5448068  51.0320513
 112.3607398  35.8381634  50.7603102 113.4663569  36.1288513  51.7527777
 123.1075717  44.6047227  51.1150042 122.8160526  44.9677207  51.9513503
 122.4947849  43.8914235  50.9363374 124.3071400  42.1700107  43.6352612
 125.1418291  42.6089911  43.7990173 124.4430528  41.6938760  42.8160858
 121.3562906  39.7279841  49.5830100 121.8317027  39.9207488  48.7748951
 120.4328471  39.7839027  49.3373484 115.9343122  31.7627685  48.5485934
 116.4525066  32.4988712  48.2232422 115.5798255  32.0691678  49.3832693
 116.1855716  28.1827968  44.0686830 116.4657470  27.5151157  44.6947257
 116.9706323  28.3757063  43.5561494 113.9889185  47.3586961  35.6311857
 113.4163152  47.9777149  35.1782329 114.5621978  47.9086323  36.1651779
 120.0564575  36.6045602  47.8158406 121.0081997  36.7043699  47.8370630
 119.8868025  35.8123870  48.3256490 118.0778954  33.6901185  48.0017806
 117.4828886  33.9706197  47.3064295 117.7928651  34.1795086  48.7734548
 117.2086445  47.6424112  36.7620439 118.1417118  47.5769673  36.9653315
 117.1209657  48.4780378  36.3034972 119.8374461  46.9589982  33.7224387
 119.7588093  46.6249845  34.6160145 120.6584128  47.4511750  33.7215859
 122.5352652  39.8251721  46.9300705 122.5028972  38.8867722  47.1160389
 123.1453276  39.9035758  46.1966530 114.3735983  38.6947774  32.9727909
 115.3195088  38.5653982  33.0416327 113.9950228  37.9562436  33.4497337
 122.6847141  36.6162765  46.9758988 122.1686190  35.8321221  46.7888917
 123.5687089  36.2881481  47.1405508 120.3457868  30.3603780  42.9354801
 120.1482689  30.0518868  43.8198133 120.9557573  31.0865419  43.0652731
 128.3529202  40.8867728  46.0706742 129.0832591  40.6253016  46.6314445
 127.7436148  40.1496450  46.1108810 126.4344499  39.0275591  46.6681193
 125.7077663  38.8931556  46.0597685 126.0191786  39.3352419  47.4737911
 114.2574676  42.7465520  54.4328566 115.1777685  42.9244119  54.6268613
 114.2224259  41.8021566  54.2808265 112.5578900  36.6197751  32.9082794
 111.6510356  36.3230863  32.9845508 112.8354881  36.3227569  32.0417081
 107.2536748  40.6566555  47.0751347 107.4722758  41.5883663  47.0939381
 107.6662522  40.2974529  47.8606151 114.1740966  31.1634640  39.0627036
 113.3641694  30.8181725  39.4382282 114.8625383  30.8542184  39.6514647
 116.1031514  30.2412687  40.6851332 116.6562553  30.6608141  41.3441356
 116.3401601  29.3148435  40.7274288 112.1264614  36.2299761  56.4654096
 112.0261341  37.1794118  56.3966187 111.9086156  35.9018000  55.5930166
 111.3277685  33.4784686  33.0494774 112.1896849  33.8039584  33.3090591
 111.5128029  32.6916182  32.5367839 119.4810321  32.3513212  40.1929997
 118.9008991  33.0098016  39.8108049 119.2146254  31.5290557  39.7817414
 117.9313888  31.7518270  42.3951317 118.4313666  31.8634804  41.5865636
 118.5749496  31.4479323  43.0352125 111.9895884  39.6596900  55.2819158
 111.5062965  40.4597260  55.4883047 112.0756823  39.6704844  54.3286602
 107.9169221  43.5501434  47.3187592 108.8712475  43.5185377  47.2517523
 107.7181745  43.0892058  48.1337818 108.5068603  42.1202550  49.8858389
 109.3261492  42.6146629  49.9093227 108.7805411  41.2034518  49.8575957
 118.2635200  34.5113303  39.2486345 117.3761055  34.7962953  39.0306540
 118.6789189  34.3507066  38.4013622 121.6149736  34.5359824  42.9640684
 122.3910126  35.0256276  43.2365301 120.8897870  34.9617878  43.4212554
 124.0522294  35.2487443  44.0214625 124.6466785  35.0083179  43.3107933
 124.1248878  34.5294573  44.6488161 106.2719450  49.0921054  44.3357790
 106.1373918  48.3321455  43.7695788 105.8551512  49.8161954  43.8686579
 117.4078413  44.2757977  33.3434365 118.1114263  44.4807980  33.9592021
 116.6841062  44.8434739  33.6083448 118.2376223  40.0267839  39.4636635
 118.1811425  40.4836390  38.6244267 118.7904566  39.2658523  39.2859478
 122.0481029  35.8157570  40.2886755 121.7917963  35.4154206  41.1194962
 121.4233897  36.5301364  40.1636894 126.3593367  38.5553644  42.7958046
 125.7992925  38.6246833  43.5689608 125.7536870  38.3794628  42.0757542
 109.4288576  49.9890371  44.5476232 109.3120960  50.9335803  44.4454923
 108.6081022  49.6863932  44.9362031 119.3165110  44.7140506  35.3932825
 120.1510714  44.2821705  35.2110300 119.1549453  44.5422520  36.3209719
 118.9711003  41.2172620  36.7589164 118.9159806  41.0516891  35.8177608
 118.3457058  41.9248653  36.9151354 116.2856910  43.5221532  56.0842727
 117.1548069  43.6962184  55.7229362 115.8063661  44.3415948  55.9618456
 112.2807128  30.7180729  36.3374483 112.2685798  31.6622569  36.4942754
 113.1730550  30.5350874  36.0433944 110.4543090  50.6418633  47.7632161
 111.3570337  50.6742243  48.0798656 110.2280460  49.7119084  47.7778496
 112.2096692  49.3949619  44.4242239 111.2592323  49.3951481  44.3106612
 112.5129178  48.6482354  43.9078274 116.0959247  27.3123505  40.5920419
 115.3291643  26.7581992  40.7377102 116.5069952  27.3845374  41.4534571
 108.1001009  33.6008301  54.6825601 108.9632470  33.2445106  54.8928925
 107.5266419  33.2622196  55.3701005 127.9449385  55.2310158  45.4888002
 128.5827795  55.1116905  44.7851342 127.8270228  56.1791002  45.5475954
 124.7539092  55.1837586  45.4249526 124.4157603  55.0678650  44.5370061
 125.6228860  54.7828751  45.4050533 120.6125907  57.0373062  41.4146417
 120.0490773  56.9462999  40.6462705 120.4978302  56.2172967  41.8948910
 125.2358875  56.3372437  51.3835732 125.2247516  55.9425236  50.5116236
 125.3979514  55.6038510  51.9769503 118.1590339  58.5324254  44.2530638
 118.9511631  58.1915078  43.8376937 118.3986990  58.6419229  45.1732791
 126.1925466  60.7044030  36.7260882 125.5413446  61.2898110  36.3394896
 126.9869829  61.2350225  36.7855920 120.1181093  57.7933167  37.1248017
 120.8911969  57.2462154  36.9860892 120.4706492  58.6577416  37.3362478
 121.9566136  59.1209549  50.3314916 121.6656002  60.0255180  50.2161582
 122.5923120  59.1626077  51.0458985 122.8822343  56.4986398  46.9216276
 123.4785915  56.2742420  46.2073238 122.9397314  55.7571143  47.5241723
 122.4547371  53.9525833  34.7566467 122.7072892  53.4307354  33.9949930
 121.5171930  53.7891979  34.8593150 127.4990654  52.9561611  42.5641210
 128.2853743  52.5381035  42.2131627 127.7629358  53.8607704  42.7322858
 127.6700731  58.3934462  37.2629867 127.0346564  58.4669088  37.9750771
 127.3398138  58.9828061  36.5848946 132.8999081  52.8936845  43.4674188
 133.6324253  52.3236061  43.7012018 132.1438437  52.5058445  43.9080694
 122.1743660  55.8553939  36.9590841 122.0579918  55.1798842  37.6271926
 122.2845920  55.3686313  36.1422995 124.5175201  55.3164086  40.6637531
 124.1533408  54.7894707  41.3750452 125.3742317  54.9262555  40.4904016
 130.4224501  46.6058419  47.9268797 130.0907826  47.4753830  47.7030012
 129.8270115  46.2894703  48.6062827 124.1580688  50.3453986  35.6598879
 124.3255090  51.2134222  36.0269350 123.9677857  50.5081268  34.7360168
 126.9156021  58.8070965  47.3264710 126.6156744  59.7096004  47.2180517
 126.5707080  58.5403148  48.1785862 120.3668502  55.2584762  43.3601414
 119.4418999  55.1260976  43.5679106 120.6152916  56.0378981  43.8571356
 130.3153165  51.3253505  45.0062147 129.4070042  51.2568913  44.7120908
 130.2640761  51.8025450  45.8343972 124.1369909  52.8011643  36.6445546
 124.0169534  53.2468694  37.4831026 123.4422497  53.1496961  36.0859084
 117.7277313  54.9018035  44.1945203 117.8569695  55.1552514  45.1084615
 117.0474765  55.4945743  43.8749858 121.8976801  65.5715285  40.2935677
 121.8200830  66.5223110  40.3724158 121.2938444  65.2261158  40.9510604
 124.3894031  52.7443151  52.9497044 123.6127365  53.3037071  52.9399909
 125.0284594  53.2299934  53.4711914 132.1814811  49.5269943  46.7840021
 131.5389191  49.8202476  46.1379815 131.6769740  49.4122864  47.5893218
 129.8354975  53.2733117  37.4725880 130.7472831  53.5060503  37.2973578
 129.3264622  53.8570161  36.9100959 122.6440403  55.5528604  52.5115011
 123.3855087  56.0913648  52.2349835 121.9377388  56.1794893  52.6686563
 128.1195742  57.6957744  51.1087173 128.5279099  57.2540155  50.3641805
 127.3973004  57.1210372  51.3621366 124.4726813  52.6330351  48.4820730
 125.3188008  53.0569765  48.6255379 124.4125450  51.9763975  49.1759293
 128.4424557  58.2558935  44.8639462 127.8133420  58.4204649  44.1615529
 128.0550219  58.6700545  45.6350426 132.3213789  59.1913373  42.2183825
 131.6364827  59.5712274  41.6680859 132.4057638  59.8008699  42.9515773
 127.6226258  50.2934719  50.1401903 127.3787190  51.0476780  49.6036179
 127.8986188  50.6720067  50.9749150 129.5764721  56.8373332  48.8179169
 129.7881616  57.4805092  48.1413550 129.5294469  56.0035648  48.3501099
 127.1790950  49.4491152  45.7215741 126.3175429  49.7472406  46.0132479
 127.2053384  49.6661551  44.7896774 123.9952519  57.9933343  42.1289547
 124.4590865  58.2721046  41.3394169 123.7309317  57.0916788  41.9462637
 120.8876600  57.5404825  45.0669310 121.4577957  57.9692093  44.4286794
 121.4784712  57.2587409  45.7653496 122.9321405  54.1156495  38.9379112
 123.6345448  54.5677539  39.4053038 122.6002034  53.4740314  39.5659005
 121.3801767  52.7068252  53.3130321 120.7500427  53.3884533  53.5465718
 121.2737854  52.5951334  52.3683459 116.6746739  52.3740048  44.2396245
 115.8845793  52.6297577  43.7636356 117.1657986  53.1888386  44.3448286
 130.6910549  59.7145287  46.9901526 131.5127992  59.3125475  46.7084208
 130.6872951  59.6113521  47.9417642 118.6261484  52.7384627  41.1979722
 117.8292648  52.8503322  41.7163218 118.3987077  53.0771280  40.3320613
 124.4567152  59.2629331  49.1462237 124.5211585  59.7249738  49.9820409
 123.7478076  58.6326695  49.2744547 114.9584442  52.6270539  46.6711236
 115.2092480  53.5117548  46.9368812 115.4943990  52.4475140  45.8986328
 138.7816542  56.0584036  43.3386498 138.0280250  55.4891434  43.1830502
 138.9164083  56.0246700  44.2857132 124.1715170  60.9297438  39.0141217
 124.0360844  61.7748974  39.4426065 124.7124982  61.1316716  38.2507151
 120.6582509  47.0089018  55.6755572 120.2649455  46.4555216  56.3503216
 121.4748650  47.3199596  56.0662090 117.6244567  58.4472876  39.5869142
 118.1369088  59.2416126  39.7374707 118.2767280  57.7499167  39.5202744
 119.4339452  61.5638632  41.6691895 119.6106080  62.4856597  41.4812879
 120.2296285  61.2497052  42.0986275 123.5750470  48.4246897  53.2675829
 124.3160184  49.0254050  53.1880291 123.8068393  47.6824535  52.7093871
 118.7191808  53.6103264  51.5454058 118.6045323  52.7088521  51.8461157
 117.8636326  53.8566961  51.1938875 125.7983646  61.5521005  53.1441559
 125.3547500  60.7657383  52.8262464 126.4600860  61.7400155  52.4785450
 120.5570767  63.0816806  47.6702238 121.1078192  62.9533870  46.8979232
 119.7182243  63.3811695  47.3197130 127.8964884  61.8323804  51.1722960
 127.8783359  62.6532686  50.6803230 128.8184804  61.7077880  51.3973102
 124.3537938  59.3467934  52.0146469 124.8866275  58.5856222  51.7845777
 123.8252019  59.0541586  52.7570623 127.5207633  44.4528000  47.5440110
 127.1771903  45.3429642  47.4679221 127.8886596  44.2629658  46.6809696
 115.5893484  56.7761530  40.3628713 116.4268706  57.1858539  40.1462420
 115.7671752  55.8360973  40.3328907 127.4857916  54.4436611  36.0512546
 126.9704539  55.2141216  36.2900933 127.2135224  53.7701747  36.6745607
 125.0705027  49.2886312  41.1097784 124.2146623  48.8993162  40.9303423
 125.4831979  49.3678273  40.2497570 126.6004174  46.8232655  45.5089344
 126.0968969  46.7862790  44.6957149 126.8934781  47.7325398  45.5686000
 122.8447060  46.9071385  44.5155525 123.7100056  46.7114193  44.1561415
 122.9124568  46.6781737  45.4424882 132.4592190  57.1968966  37.9865719
 131.6821633  56.8580125  37.5420881 133.1383671  57.2021589  37.3120684
 127.2744219  52.3163703  37.8772327 126.9694355  52.6309852  38.7282470
 128.2274661  52.3945123  37.9199660 125.7190651  58.4753926  39.5265281
 125.1912013  57.7406686  39.2138518 125.2178154  59.2528603  39.2805249
 130.6983497  56.6702947  44.6432327 130.0407171  57.3602208  44.7312456
 131.5023896  57.0599379  44.9866313 120.4509379  49.1373593  41.8871892
 121.0253131  48.9148774  41.1545085 121.0380361  49.2062287  42.6400494
 129.5088956  55.0247320  42.6936269 130.0220838  55.6577311  43.1957979
 130.1590180  54.4248515  42.3279629 120.7778966  51.1678054  35.9067778
 119.9416278  51.5052740  36.2277052 120.6383735  51.0327034  34.9694915
 122.7532046  46.0114842  40.6146962 122.0996459  45.6963859  39.9903576
 122.7112520  45.3890582  41.3406785 123.8643251  56.2934137  32.5300254
 122.9570313  56.0623390  32.7291403 124.3614283  55.4971756  32.7174235
 126.7711330  65.0031644  35.4496940 126.0973029  65.3063341  36.0581898
 127.1577152  65.8060724  35.1002397 125.9869787  52.4996775  44.9394609
 125.0692348  52.7211722  44.7816297 126.4029930  52.5743086  44.0806317
 126.7704834  53.8988191  40.0697290 127.5176653  54.4109588  39.7604412
 127.0396424  53.5772244  40.9301683 125.0431485  56.3946732  37.0524244
 124.1342704  56.1105764  37.1496714 125.0726568  56.8145810  36.1927551
 130.2750752  60.0053321  40.8215411 129.8213079  59.1644231  40.8780602
 129.6444719  60.6414719  41.1590192 129.2183672  50.9345307  42.0516079
 128.4806428  50.4222693  42.3826321 129.4710445  50.4945689  41.2399356
 128.7183691  61.8429818  41.7565230 129.0106666  62.4034875  41.0377595
 129.2282312  62.1358379  42.5118389 129.3195299  43.7121559  42.6457848
 129.6254176  42.8518923  42.3583763 130.0447904  44.3039179  42.4456842
 115.6119655  54.1152246  41.0339446 115.4144055  53.5221606  40.3090513
 115.0566319  53.8104456  41.7515385 123.5916379  54.0075352  43.1534039
 123.6464988  53.0549189  43.0776516 122.7807581  54.1634791  43.6375338
 124.7407572  57.9355475  34.3912322 124.3027002  57.2191334  33.9317960
 125.4818013  58.1631590  33.8297414 121.5308739  52.6252412  40.9124418
 120.7176604  52.9246582  41.3189610 122.0267733  52.2308101  41.6298900
 123.6817316  62.6210169  42.8458683 123.6393495  62.8471015  41.9167215
 124.5980015  62.3873543  42.9944484 127.1282950  53.0894236  49.7439312
 127.4832338  53.3165710  50.6033778 127.7755081  53.4212613  49.1216567
 132.8580687  56.2112672  40.4488641 132.7198586  56.4014268  39.5209830
 132.5016906  56.9732055  40.9056692 121.0222813  50.1970767  46.5285653
 121.6622193  50.0559527  45.8308616 120.1900344  49.9105281  46.1524255
 132.8850067  58.2789199  45.4599913 133.3186573  58.1864488  46.3082967
 133.5981647  58.2546700  44.8219929 121.7983117  59.4973198  42.6420646
 122.5923716  59.0023518  42.4403220 121.0874810  58.9691061  42.2788351
 126.6177962  61.8791293  46.9933013 126.6714984  62.4482230  47.7610729
 125.7492743  62.0493178  46.6287050 118.1065881  53.6416280  38.7180398
 117.1763469  53.5800735  38.9350360 118.2023353  53.1192232  37.9217039
 118.0251430  50.1671092  41.3058640 118.2858247  51.0816426  41.1967800
 118.8468602  49.6995535  41.4555253 119.4976355  51.5808850  48.4757464
 120.1699409  51.3726212  47.8270113 118.6706142  51.3830936  48.0362697
 133.7465616  58.3212900  47.9932798 133.9401506  59.2258710  48.2392073
 133.6466235  57.8620319  48.8271383 125.4001927  48.2070791  50.4923125
 124.7529842  48.9060740  50.3987602 126.1702942  48.6406934  50.8599373
 128.8080725  58.4719643  53.5673679 128.6566231  58.2430194  52.6503762
 128.7985405  59.4290244  53.5805024 125.5766061  56.0451555  48.5519945
 126.5058121  56.1962715  48.3788912 125.1557091  56.1335576  47.6968592
 124.3754393  60.0702220  46.3218483 124.2365479  59.7021004  47.1944421
 123.5868989  60.5849859  46.1502440 124.9702545  65.1711316  37.6644019
 125.1454301  64.6999360  38.4789642 124.2835333  65.7977083  37.8925280
 125.9259608  59.4483823  43.7107320 125.5909441  59.4084593  44.6064970
 125.4263554  58.7828538  43.2377731 119.9003852  54.8551453  49.2359902
 119.7623650  54.1231691  49.8371441 120.8108776  54.7660353  48.9544089
 128.8618800  56.7939857  33.9844380 128.2447971  56.0686685  33.8877433
 128.3935288  57.5549217  33.6411454 122.5286153  54.5671412  48.7243581
 123.2385772  53.9264604  48.6830200 122.4855461  54.8184307  49.6469762
 130.5172932  61.5038765  51.6450160 130.4585478  60.8197985  50.9780743
 130.9192450  62.2457755  51.1930786 121.2415087  51.5536630  50.5439221
 120.7052444  51.1027368  51.1960817 120.6531795  51.6882539  49.8009685
 119.5363630  68.3200679  44.4383879 119.7760229  68.9519203  45.1162898
 118.6932827  67.9688719  44.7249239 120.6517346  51.0125281  33.1065684
 119.7746812  50.8914082  32.7427931 121.1275099  50.2211360  32.8544573
 130.5190339  59.4678349  49.8764140 129.6317118  59.1304271  49.9990539
 131.0888890  58.7361380  50.1132905 112.1719486  55.8002441  43.2007191
 112.8590526  55.4864171  42.6128207 112.0167615  56.7043806  42.9274443
 116.9754208  50.6892637  47.6292215 116.8912397  50.0818307  46.8942625
 116.1536915  51.1801656  47.6301712 124.0491492  64.1279802  46.8425383
 123.9761664  64.9334773  47.3544688 123.6068885  64.3271767  46.0173405
 123.8381272  63.3651572  40.3528205 123.0548794  63.9073252  40.4466429
 124.5374017  63.8825551  40.7522446 127.1477922  49.1746201  42.9962410
 127.6446622  48.4216163  42.6763480 126.3764904  49.2110518  42.4305620
 135.0007679  54.8786567  44.6380702 134.9897556  55.7611282  44.2674635
 134.1325059  54.5258117  44.4435239 126.5090176  64.0266636  48.9983542
 127.2218148  64.6614100  48.9259443 126.0180205  64.1230502  48.1823544
 128.2307703  57.9317888  40.5700834 127.2963982  58.0519351  40.4005538
 128.4084371  57.0290355  40.3060843 123.7312891  51.3163584  42.7234095
 123.3610678  50.7634624  43.4115000 124.2271983  50.7121717  42.1709095
 131.6180254  53.7735208  41.1050868 132.0840706  54.6063199  41.0311170
 132.0687755  53.3080189  41.8096126 121.5602089  61.7761079  49.8189113
 122.2611549  62.4097562  49.9718507 121.0897204  62.1175811  49.0584752
 129.6856485  60.1179029  38.1037020 129.9616329  60.0035623  39.0130894
 128.8160984  59.7196514  38.0649193 129.5896917  46.1415795  45.1441769
 128.6759997  46.3720021  45.3123976 130.0190018  46.2254239  45.9955801
 129.3603375  54.3305686  47.6441663 128.7074826  54.5781594  46.9894116
 129.7383755  53.5169825  47.3104140 126.3210549  64.3665380  41.7469833
 126.5032944  63.5487036  42.2097586 127.1443535  64.5833072  41.3094723
 126.6552715  63.2933565  39.0084882 127.1840481  62.7826019  38.3955044
 126.9180934  62.9776095  39.8730415 125.4090948  55.0725498  54.1307700
 124.7331585  54.9719627  54.8010075 126.2318582  54.9164711  54.5943697
 117.1569807  61.3097434  46.7520215 117.7423244  60.5641122  46.8848120
 116.9594646  61.6201391  47.6356879 120.0108463  64.3448681  41.7682658
 119.3418838  64.8294809  41.2846698 119.8721332  64.5917902  42.6826036
 111.7487462  53.8803034  45.4724659 111.7871562  53.3466625  46.2661777
 111.2427755  53.3538240  44.8535636 124.1513731  66.3792425  48.3665316
 124.7032039  66.5424046  49.1314401 124.4919925  66.9696863  47.6945341
 119.1278224  48.7267575  48.9687201 119.1919551  49.5882406  48.5564599
 119.0645345  48.1141576  48.2359559 118.6030497  50.7990707  52.6160235
 119.2302536  50.4167785  53.2297759 117.7458416  50.5804909  52.9815928
 129.0024606  61.2053683  54.2213971 129.5464510  61.8183641  53.7268925
 128.4211450  61.7633261  54.7380984 115.3796040  52.6067136  38.5478590
 115.6749481  51.6977815  38.4945644 114.4784076  52.5854876  38.2259592
 127.2882119  64.3274401  45.3528998 127.1633258  63.5264140  44.8439944
 127.9461210  64.8220594  44.8642968 118.9090287  50.6823133  44.5306139
 118.1876873  51.2959101  44.3913612 119.6983543  51.2180898  44.4522785
 129.3517027  62.1283421  46.9808548 128.4047362  62.0088772  46.9086875
 129.6999800  61.2405919  47.0634810 121.7116600  48.0177560  50.8046790
 122.2351002  48.2639856  51.5673100 121.4928934  48.8497594  50.3849928
 117.1083881  50.2881234  38.6717915 116.7796588  49.4078613  38.4893021
 117.4623252  50.2328903  39.5594304 126.3563460  61.9236137  43.1812901
 126.2088423  60.9952844  43.3620471 127.1816954  61.9456228  42.6969976
 120.2225705  50.5754204  39.0393393 120.5621777  51.1040125  38.3172001
 120.6697825  50.9134610  39.8151959 129.9597582  62.7464696  44.2677773
 130.8844130  62.5407557  44.1302225 129.7912885  62.4981097  45.1767115
 122.9169145  48.9591255  48.4896461 122.5765966  48.1599068  48.8917141
 122.2108152  49.2592965  47.9173294 123.5685617  46.0440567  46.9423784
 124.3911686  45.5701045  46.8202674 123.8123681  46.8231051  47.4422470
 122.2093852  49.0728825  37.2386686 122.9302214  49.4510078  36.7350402
 121.5859156  49.7917702  37.3421664 126.3524975  49.7773974  38.1745018
 126.5688589  50.6598612  37.8733846 125.8719042  49.3860188  37.4450660
 121.0924196  52.7359688  44.7515763 120.9468777  53.0499991  45.6440044
 120.6149400  53.3544588  44.1986661 122.9520579  49.7262236  44.7996652
 122.9382148  48.8303329  44.4628950 123.6693007  49.7332899  45.4334938
 124.8046710  50.1599576  46.8449779 124.5464487  51.0816647  46.8434110
 124.2731750  49.7630010  47.5350244 129.7492898  63.2650363  39.6239865
 129.9229776  62.6996785  38.8713717 130.2421790  64.0651258  39.4419355
 115.5669858  55.2765032  47.6903424 115.0223326  56.0524840  47.8223698
 116.4449208  55.6235837  47.5322545 122.3557475  48.6076616  40.0684222
 122.4773386  47.6793262  40.2675110 122.0659517  48.6215302  39.1562538
 125.2248665  46.2931526  43.2050942 125.2470362  46.3570859  42.2502922
 125.6416724  45.4536035  43.3991448 135.6032289  56.0286786  41.2430165
 136.0463435  55.2794111  40.8449288 134.7258800  56.0196922  40.8603897
 130.7368071  62.5817127  36.7236763 131.4318975  63.2023820  36.9424078
 131.0791221  61.7312479  36.9989141 116.3535880  54.4034928  50.5833581
 115.6117616  54.5517564  51.1698211 116.0328624  54.6643194  49.7200330
 132.6359494  60.0316833  38.2524094 133.1610818  60.3704106  37.5273414
 132.5481846  59.0963848  38.0687229 124.2979543  63.9450907  50.3813971
 124.6066669  63.7000053  51.2536670 125.0955025  64.1497545  49.8932841
 124.3200155  66.0988816  42.6119347 123.8805145  65.6065195  43.3052204
 125.0708272  65.5561784  42.3711422 116.7992494  62.2900357  42.6143975
 117.6250514  61.9904129  42.2342619 116.4486546  61.5207980  43.0633764
 121.7674027  61.6426825  44.6841649 121.1454036  60.9797530  44.3843877
 122.4378894  61.6687957  44.0015297 115.0001099  60.2086684  43.5732909
 114.1633007  59.7808858  43.3916910 114.9724744  60.4019127  44.5103700
 121.8398554  50.1208613  54.2774155 121.8886710  50.9970736  53.8951924
 122.3821068  49.5786006  53.7045798 132.3253400  60.6649737  53.5575292
 131.5348944  60.6473875  53.0179791 132.0886755  61.2038030  54.3124328
 132.4451275  57.5142203  50.8708020 132.4949280  57.3492210  51.8123543
 132.3365198  56.6469462  50.4805901 121.3287534  60.1930749  38.1600109
 121.4775654  60.8766213  37.5066782 122.1353977  60.1735839  38.6749565
 129.7355037  53.4973131  52.1867327 130.6364900  53.3579596  51.8951325
 129.8103012  53.6627586  53.1265505 124.0697843  50.8739986  51.0320513
 123.2001152  51.1673552  50.7603102 124.3057323  51.4580431  51.7527777
 133.9469472  59.9339144  51.1150042 133.6554280  60.2969125  51.9513503
 133.3341603  59.2206153  50.9363374 135.1465154  57.4992024  43.6352612
 135.9812046  57.9381828  43.7990173 135.2824283  57.0230677  42.8160858
 132.1956660  55.0571759  49.5830100 132.6710782  55.2499405  48.7748951
 131.2722225  55.1130945  49.3373484 119.0840167  56.2195926  39.1661178
 118.8386209  55.3158256  39.3641388 119.2536081  56.2213077  38.2240656
 126.7736877  47.0919603  48.5485934 127.2918820  47.8280630  48.2232422
 126.4192009  47.3983596  49.3832693 118.3535814  51.9524284  36.6647340
 117.6605059  52.0268639  36.0087376 118.1087566  51.1884627  37.1868857
 127.0249471  43.5119885  44.0686830 127.3051224  42.8443074  44.6947257
 127.8100078  43.7048981  43.5561494 124.8282939  62.6878879  35.6311857
 124.2556906  63.3069066  35.1782329 125.4015733  63.2378241  36.1651779
 130.8958329  51.9337519  47.8158406 131.8475752  52.0335617  47.8370630
 130.7261779  51.1415788  48.3256490 128.9172709  49.0193102  48.0017806
 128.3222641  49.2998115  47.3064295 128.6322405  49.5087003  48.7734548
 128.0480199  62.9716029  36.7620439 128.9810872  62.9061591  36.9653315
 127.9603412  63.8072296  36.3034972 130.6768216  62.2881900  33.7224387
 130.5981847  61.9541763  34.6160145 131.4977882  62.7803667  33.7215859
 133.3746407  55.1543639  46.9300705 133.3422727  54.2159640  47.1160389
 133.9847031  55.2327676  46.1966530 125.2129738  54.0239692  32.9727909
 126.1588842  53.8945900  33.0416327 124.8343983  53.2854354  33.4497337
 133.5240895  51.9454682  46.9758988 133.0079944  51.1613139  46.7888917
 134.4080844  51.6173399  47.1405508 131.1851622  45.6895698  42.9354801
 130.9876443  45.3810786  43.8198133 131.7951328  46.4157337  43.0652731
 139.1922957  56.2159646  46.0706742 139.9226345  55.9544934  46.6314445
 138.5829902  55.4788368  46.1108810 137.2738254  54.3567508  46.6681193
 136.5471417  54.2223473  46.0597685 136.8585541  54.6644337  47.4737911
 125.0968430  58.0757438  54.4328566 126.0171440  58.2536037  54.6268613
 125.0618013  57.1313483  54.2808265 123.3972655  51.9489668  32.9082794
 122.4904110  51.6522781  32.9845508 123.6748636  51.6519486  32.0417081
 114.3150595  53.2696032  43.3581841 113.9953380  52.4161340  43.0656215
 113.7684023  53.4844610  44.1139808 118.0930503  55.9858473  47.0751347
 118.3116513  56.9175580  47.0939381 118.5056277  55.6266447  47.8606151
 125.0134721  46.4926558  39.0627036 124.2035449  46.1473643  39.4382282
 125.7019138  46.1834102  39.6514647 126.9425269  45.5704605  40.6851332
 127.4956307  45.9900058  41.3441356 127.1795355  44.6440353  40.7274288
 122.9658368  51.5591678  56.4654096 122.8655095  52.5086035  56.3966187
 122.7479910  51.2309917  55.5930166 122.1671440  48.8076603  33.0494774
 123.0290603  49.1331502  33.3090591 122.3521784  48.0208099  32.5367839
 114.1838855  56.8898943  45.3274962 113.4902327  56.4752896  44.8144917
 114.9311846  56.9319480  44.7308381 130.3204076  47.6805130  40.1929997
 129.7402745  48.3389934  39.8108049 130.0540009  46.8582475  39.7817414
 128.7707642  47.0810188  42.3951317 129.2707421  47.1926722  41.5865636
 129.4143250  46.7771240  43.0352125 122.8289638  54.9888817  55.2819158
 122.3456720  55.7889177  55.4883047 122.9150577  54.9996762  54.3286602
 116.0975598  56.8217197  43.2040977 116.0746286  56.9204884  42.2522860
 116.4076234  57.6682348  43.5258143 118.7562976  58.8793352  47.3187592
 119.7106229  58.8477294  47.2517523 118.5575499  58.4183976  48.1337818
 119.3462358  57.4494468  49.8858389 120.1655247  57.9438547  49.9093227
 119.6199166  56.5326436  49.8575957 129.1028954  49.8405220  39.2486345
 128.2154809  50.1254871  39.0306540 129.5182943  49.6798984  38.4013622
 132.4543490  49.8651741  42.9640684 133.2303880  50.3548194  43.2365301
 131.7291624  50.2909795  43.4212554 134.8916049  50.5779360  44.0214625
 135.4860540  50.3375096  43.3107933 134.9642632  49.8586491  44.6488161
 117.1113204  64.4212971  44.3357790 116.9767672  63.6613372  43.7695788
 116.6945267  65.1453871  43.8686579 128.2472167  59.6049895  33.3434365
 128.9508018  59.8099897  33.9592021 127.5234816  60.1726657  33.6083448
 129.0769978  55.3559756  39.4636635 129.0205179  55.8128308  38.6244267
 129.6298320  54.5950441  39.2859478 132.8874784  51.1449488  40.2886755
 132.6311718  50.7446124  41.1194962 132.2627652  51.8593282  40.1636894
 137.1987122  53.8845561  42.7958046 136.6386679  53.9538751  43.5689608
 136.5930625  53.7086546  42.0757542 120.2682330  65.3182288  44.5476232
 120.1514714  66.2627721  44.4454923 119.4474777  65.0155850  44.9362031
 130.1558865  60.0432424  35.3932825 130.9904469  59.6113623  35.2110300
 129.9943208  59.8714438  36.3209719 129.8104757  56.5464537  36.7589164
 129.7553561  56.3808809  35.8177608 129.1850812  57.2540570  36.9151354
 114.5997272  51.7832602  50.5850586 115.2456136  51.2731556  51.0737812
 114.3914423  52.5201283  51.1594012 127.1250664  58.8513449  56.0842727
 127.9941824  59.0254102  55.7229362 126.6457416  59.6707866  55.9618456
 123.1200883  46.0472646  36.3374483 123.1079552  46.9914486  36.4942754
 124.0124304  45.8642792  36.0433944 121.2936844  65.9710550  47.7632161
 122.1964091  66.0034161  48.0798656 121.0674215  65.0411001  47.7778496
 123.0490446  64.7241537  44.4242239 122.0986077  64.7243398  44.3106612
 123.3522933  63.9774271  43.9078274 126.9353002  42.6415423  40.5920419
 126.1685398  42.0873910  40.7377102 127.3463707  42.7137292  41.4534571
 118.9394763  48.9300219  54.6825601 119.8026225  48.5737024  54.8928925
 118.3660174  48.5914114  55.3701005 138.7843140  70.5602075  45.4888002
 139.4221550  70.4408823  44.7851342 138.6663983  71.5082919  45.5475954
 135.5932846  70.5129503  45.4249526 135.2551358  70.3970568  44.5370061
 136.4622614  70.1120668  45.4050533 131.4519662  72.3664980  41.4146417
 130.8884527  72.2754917  40.6462705 131.3372057  71.5464884  41.8948910
 136.0752629  71.6664355  51.3835732 136.0641270  71.2717153  50.5116236
 136.2373269  70.9330428  51.9769503 128.9984094  73.8616171  44.2530638
 129.7905386  73.5206996  43.8376937 129.2380744  73.9711146  45.1732791
 137.0319221  76.0335947  36.7260882 136.3807200  76.6190028  36.3394896
 137.8263583  76.5642142  36.7855920 130.9574848  73.1225085  37.1248017
 131.7305724  72.5754072  36.9860892 131.3100247  73.9869334  37.3362478
 132.7959890  74.4501467  50.3314916 132.5049756  75.3547098  50.2161582
 133.4316875  74.4917995  51.0458985 133.7216097  71.8278315  46.9216276
 134.3179669  71.6034338  46.2073238 133.7791069  71.0863061  47.5241723
 133.2941126  69.2817751  34.7566467 133.5466646  68.7599272  33.9949930
 132.3565685  69.1183896  34.8593150 138.3384408  68.2853529  42.5641210
 139.1247498  67.8672952  42.2131627 138.6023113  69.1899621  42.7322858
 138.5094486  73.7226379  37.2629867 137.8740319  73.7961006  37.9750771
 138.1791892  74.3119978  36.5848946 133.0137414  71.1845857  36.9590841
 132.8973672  70.5090760  37.6271926 133.1239674  70.6978231  36.1422995
 135.3568955  70.6456004  40.6637531 134.9927163  70.1186625  41.3750452
 136.2136071  70.2554473  40.4904016 134.9974442  65.6745904  35.6598879
 135.1648845  66.5426140  36.0269350 134.8071611  65.8373185  34.7360168
 137.7549775  74.1362882  47.3264710 137.4550499  75.0387921  47.2180517
 137.4100835  73.8695066  48.1785862 131.2062257  70.5876679  43.3601414
 130.2812753  70.4552893  43.5679106 131.4546670  71.3670899  43.8571356
 141.1546919  66.6545423  45.0062147 140.2463797  66.5860831  44.7120908
 141.1034515  67.1317368  45.8343972 134.9763663  68.1303561  36.6445546
 134.8563288  68.5760612  37.4831026 134.2816252  68.4788879  36.0859084
 128.5671068  70.2309953  44.1945203 128.6963449  70.4844432  45.1084615
 127.8868519  70.8237661  43.8749858 132.7370555  80.9007203  40.2935677
 132.6594585  81.8515028  40.3724158 132.1332199  80.5553075  40.9510604
 135.2287785  68.0735068  52.9497044 134.4521119  68.6328988  52.9399909
 135.8678348  68.5591851  53.4711914 133.4834157  70.8820522  52.5115011
 134.2248842  71.4205566  52.2349835 132.7771143  71.5086810  52.6686563
 138.9589497  73.0249662  51.1087173 139.3672853  72.5832073  50.3641805
 138.2366758  72.4502290  51.3621366 135.3120567  67.9622269  48.4820730
 136.1581762  68.3861682  48.6255379 135.2519205  67.3055893  49.1759293
 139.2818312  73.5850853  44.8639462 138.6527174  73.7496567  44.1615529
 138.8943974  73.9992462  45.6350426 138.4620012  65.6226637  50.1401903
 138.2180944  66.3768698  49.6036179 138.7379943  66.0011985  50.9749150
 140.4158475  72.1665250  48.8179169 140.6275370  72.8097009  48.1413550
 140.3688223  71.3327566  48.3501099 138.0184704  64.7783070  45.7215741
 137.1569183  65.0764324  46.0132479 138.0447139  64.9953469  44.7896774
 134.8346273  73.3225261  42.1289547 135.2984619  73.6012964  41.3394169
 134.5703072  72.4208705  41.9462637 131.7270355  72.8696742  45.0669310
 132.2971712  73.2984011  44.4286794 132.3178466  72.5879327  45.7653496
 133.7715160  69.4448413  38.9379112 134.4739203  69.8969457  39.4053038
 133.4395788  68.8032232  39.5659005 132.2195521  68.0360170  53.3130321
 131.5894182  68.7176451  53.5465718 132.1131609  67.9243251  52.3683459
 127.5140494  67.7031966  44.2396245 126.7239547  67.9589494  43.7636356
 128.0051741  68.5180304  44.3448286 129.4655239  68.0676545  41.1979722
 128.6686402  68.1795239  41.7163218 129.2380831  68.4063197  40.3320613
 135.2960907  74.5921248  49.1462237 135.3605339  75.0541655  49.9820409
 134.5871830  73.9618613  49.2744547 125.7978196  67.9562456  46.6711236
 126.0486235  68.8409466  46.9368812 126.3337745  67.7767058  45.8986328
 135.0108924  76.2589356  39.0141217 134.8754599  77.1040891  39.4426065
 135.5518737  76.4608633  38.2507151 131.4976264  62.3380936  55.6755572
 131.1043209  61.7847134  56.3503216 132.3142404  62.6491514  56.0662090
 128.4638322  73.7764794  39.5869142 128.9762842  74.5708044  39.7374707
 129.1161034  73.0791084  39.5202744 130.2733206  76.8930550  41.6691895
 130.4499835  77.8148515  41.4812879 131.0690040  76.5788969  42.0986275
 134.4144225  63.7538815  53.2675829 135.1553938  64.3545968  53.1880291
 134.6462148  63.0116452  52.7093871 129.5585563  68.9395182  51.5454058
 129.4439078  68.0380439  51.8461157 128.7030081  69.1858879  51.1938875
 136.6377401  76.8812922  53.1441559 136.1941255  76.0949301  52.8262464
 137.2994614  77.0692073  52.4785450 131.3964522  78.4108724  47.6702238
 131.9471947  78.2825787  46.8979232 130.5575998  78.7103613  47.3197130
 138.7358639  77.1615722  51.1722960 138.7177114  77.9824603  50.6803230
 139.6578559  77.0369797  51.3973102 135.1931693  74.6759852  52.0146469
 135.7260030  73.9148140  51.7845777 134.6645774  74.3833503  52.7570623
 138.3601388  59.7819918  47.5440110 138.0165657  60.6721559  47.4679221
 138.7280350  59.5921575  46.6809696 126.4287238  72.1053448  40.3628713
 127.2662460  72.5150456  40.1462420 126.6065506  71.1652890  40.3328907
 138.3251670  69.7728529  36.0512546 137.8098294  70.5433133  36.2900933
 138.0528979  69.0993665  36.6745607 135.9098781  64.6178230  41.1097784
 135.0540378  64.2285080  40.9303423 136.3225733  64.6970190  40.2497570
 137.4397928  62.1524573  45.5089344 136.9362724  62.1154708  44.6957149
 137.7328535  63.0617315  45.5686000 133.6840814  62.2363302  44.5155525
 134.5493811  62.0406111  44.1561415 133.7518323  62.0073654  45.4424882
 138.1137974  67.6455621  37.8772327 137.8088109  67.9601770  38.7282470
 139.0668416  67.7237041  37.9199660 136.5584405  73.8045844  39.5265281
 136.0305767  73.0698604  39.2138518 136.0571908  74.5820520  39.2805249
 131.2903133  64.4665510  41.8871892 131.8646885  64.2440692  41.1545085
 131.8774116  64.5354205  42.6400494 140.3482710  70.3539237  42.6936269
 140.8614592  70.9869229  43.1957979 140.9983934  69.7540433  42.3279629
 131.6172720  66.4969971  35.9067778 130.7810032  66.8344658  36.2277052
 131.4777490  66.3618951  34.9694915 133.5925801  61.3406759  40.6146962
 132.9390213  61.0255776  39.9903576 133.5506275  60.7182500  41.3406785
 134.7037006  71.6226054  32.5300254 133.7964067  71.3915308  32.7291403
 135.2008038  70.8263674  32.7174235 137.6105085  80.3323562  35.4496940
 136.9366783  80.6355258  36.0581898 137.9970907  81.1352642  35.1002397
 136.8263541  67.8288693  44.9394609 135.9086103  68.0503640  44.7816297
 137.2423685  67.9035003  44.0806317 137.6098589  69.2280109  40.0697290
 138.3570408  69.7401506  39.7604412 137.8790178  68.9064161  40.9301683
 135.8825239  71.7238649  37.0524244 134.9736458  71.4397682  37.1496714
 135.9120323  72.1437728  36.1927551 141.1144507  75.3345239  40.8215411
 140.6606834  74.4936149  40.8780602 140.4838473  75.9706637  41.1590192
 140.0577426  66.2637225  42.0516079 139.3200183  65.7514611  42.3826321
 140.3104200  65.8237606  41.2399356 139.5577446  77.1721735  41.7565230
 139.8500420  77.7326793  41.0377595 140.0676066  77.4650296  42.5118389
 140.1589053  59.0413477  42.6457848 140.4647930  58.1810840  42.3583763
 140.8841658  59.6331097  42.4456842 126.4513409  69.4444163  41.0339446
 126.2537809  68.8513524  40.3090513 125.8960073  69.1396374  41.7515385
 134.4310133  69.3367270  43.1534039 134.4858743  68.3841106  43.0776516
 133.6201335  69.4926709  43.6375338 135.5801327  73.2647393  34.3912322
 135.1420757  72.5483252  33.9317960 136.3211768  73.4923508  33.8297414
 132.3702493  67.9544330  40.9124418 131.5570359  68.2538500  41.3189610
 132.8661487  67.5600018  41.6298900 134.5211071  77.9502087  42.8458683
 134.4787250  78.1762933  41.9167215 135.4373770  77.7165461  42.9944484
 137.9676705  68.4186154  49.7439312 138.3226092  68.6457627  50.6033778
 138.6148836  68.7504531  49.1216567 131.8616568  65.5262685  46.5285653
 132.5015947  65.3851444  45.8308616 131.0294098  65.2397199  46.1524255
 132.6376872  74.8265116  42.6420646 133.4317470  74.3315436  42.4403220
 131.9268564  74.2982979  42.2788351 137.4571716  77.2083211  46.9933013
 137.5108738  77.7774147  47.7610729 136.5886498  77.3785096  46.6287050
 128.9459635  68.9708197  38.7180398 128.0157223  68.9092653  38.9350360
 129.0417107  68.4484150  37.9217039 128.8645184  65.4963010  41.3058640
 129.1252002  66.4108343  41.1967800 129.6862357  65.0287453  41.4555253
 130.3370110  66.9100767  48.4757464 131.0093163  66.7018129  47.8270113
 129.5099896  66.7122853  48.0362697 136.2395682  63.5362708  50.4923125
 135.5923597  64.2352658  50.3987602 137.0096697  63.9698852  50.8599373
 139.6474480  73.8011560  53.5673679 139.4959986  73.5722112  52.6503762
 139.6379159  74.7582162  53.5805024 136.4159816  71.3743473  48.5519945
 137.3451876  71.5254633  48.3788912 135.9950846  71.4627494  47.6968592
 135.2148148  75.3994138  46.3218483 135.0759233  75.0312922  47.1944421
 134.4262744  75.9141777  46.1502440 135.8096300  80.5003234  37.6644019
 135.9848055  80.0291277  38.4789642 135.1229088  81.1269000  37.8925280
 136.7653363  74.7775740  43.7107320 136.4303195  74.7376510  44.6064970
 136.2657309  74.1120456  43.2377731 130.7397607  70.1843370  49.2359902
 130.6017405  69.4523609  49.8371441 131.6502530  70.0952270  48.9544089
 139.7012555  72.1231775  33.9844380 139.0841725  71.3978603  33.8877433
 139.2329043  72.8841135  33.6411454 133.3679907  69.8963330  48.7243581
 134.0779526  69.2556522  48.6830200 133.3249216  70.1476224  49.6469762
 132.0808841  66.8828547  50.5439221 131.5446198  66.4319286  51.1960817
 131.4925550  67.0174456  49.8009685 130.3757385  83.6492597  44.4383879
 130.6153983  84.2811121  45.1162898 129.5326581  83.2980637  44.7249239
 131.4911100  66.3417199  33.1065684 130.6140567  66.2206000  32.7427931
 131.9668853  65.5503277  32.8544573 123.0113241  71.1294359  43.2007191
 123.6984280  70.8156089  42.6128207 122.8561369  72.0335723  42.9274443
 127.8147963  66.0184555  47.6292215 127.7306151  65.4110225  46.8942625
 126.9930669  66.5093573  47.6301712 134.8885247  79.4571719  46.8425383
 134.8155418  80.2626691  47.3544688 134.4462640  79.6563685  46.0173405
 134.6775026  78.6943489  40.3528205 133.8942548  79.2365169  40.4466429
 135.3767772  79.2117469  40.7522446 137.9871677  64.5038119  42.9962410
 138.4840376  63.7508081  42.6763480 137.2158658  64.5402435  42.4305620
 137.3483930  79.3558553  48.9983542 138.0611903  79.9906018  48.9259443
 136.8573959  79.4522419  48.1823544 139.0701457  73.2609806  40.5700834
 138.1357736  73.3811268  40.4005538 139.2478126  72.3582273  40.3060843
 134.5706645  66.6455502  42.7234095 134.2004433  66.0926542  43.4115000
 135.0665738  66.0413635  42.1709095 132.3995844  77.1052997  49.8189113
 133.1005303  77.7389480  49.9718507 131.9290959  77.4467728  49.0584752
 140.5250240  75.4470947  38.1037020 140.8010084  75.3327541  39.0130894
 139.6554738  75.0488431  38.0649193 140.4290671  61.4707712  45.1441769
 139.5153751  61.7011939  45.3123976 140.8583773  61.5546156  45.9955801
 140.1997130  69.6597604  47.6441663 139.5468580  69.9073512  46.9894116
 140.5777510  68.8461742  47.3104140 137.1604304  79.6957297  41.7469833
 137.3426698  78.8778953  42.2097586 137.9837290  79.9124990  41.3094723
 137.4946469  78.6225482  39.0084882 138.0234236  78.1117937  38.3955044
 137.7574689  78.3068013  39.8730415 136.2484703  70.4017415  54.1307700
 135.5725340  70.3011545  54.8010075 137.0712337  70.2456629  54.5943697
 127.9963562  76.6389352  46.7520215 128.5816999  75.8933040  46.8848120
 127.7988400  76.9493308  47.6356879 130.8502217  79.6740599  41.7682658
 130.1812592  80.1586727  41.2846698 130.7115087  79.9209820  42.6826036
 122.5881217  69.2094952  45.4724659 122.6265316  68.6758543  46.2661777
 122.0821510  68.6830157  44.8535636 134.9907486  81.7084343  48.3665316
 135.5425794  81.8715964  49.1314401 135.3313679  82.2988780  47.6945341
 129.9671979  64.0559492  48.9687201 130.0313305  64.9174323  48.5564599
 129.9039099  63.4433494  48.2359559 129.4424252  66.1282625  52.6160235
 130.0696290  65.7459702  53.2297759 128.5852170  65.9096827  52.9815928
 139.8418360  76.5345600  54.2213971 140.3858264  77.1475558  53.7268925
 139.2605205  77.0925179  54.7380984 126.2189794  67.9359054  38.5478590
 126.5143235  67.0269733  38.4945644 125.3177830  67.9146794  38.2259592
 138.1275873  79.6566318  45.3528998 138.0027012  78.8556058  44.8439944
 138.7854964  80.1512512  44.8642968 129.7484041  66.0115051  44.5306139
 129.0270627  66.6251018  44.3913612 130.5377297  66.5472816  44.4522785
 140.1910781  77.4575338  46.9808548 139.2441117  77.3380689  46.9086875
 140.5393555  76.5697836  47.0634810 132.5510355  63.3469477  50.8046790
 133.0744757  63.5931774  51.5673100 132.3322688  64.1789512  50.3849928
 127.9477636  65.6173152  38.6717915 127.6190342  64.7370531  38.4893021
 128.3017007  65.5620820  39.5594304 137.1957215  77.2528055  43.1812901
 137.0482177  76.3244762  43.3620471 138.0210708  77.2748145  42.6969976
 131.0619459  65.9046122  39.0393393 131.4015532  66.4332043  38.3172001
 131.5091579  66.2426528  39.8151959 133.7562900  64.2883172  48.4896461
 133.4159720  63.4890985  48.8917141 133.0501906  64.5884883  47.9173294
 134.4079372  61.3732485  46.9423784 135.2305441  60.8992963  46.8202674
 134.6517435  62.1522968  47.4422470 133.0487606  64.4020743  37.2386686
 133.7695969  64.7801996  36.7350402 132.4252910  65.1209620  37.3421664
 137.1918729  65.1065892  38.1745018 137.4082343  65.9890530  37.8733846
 136.7112796  64.7152106  37.4450660 131.9317950  68.0651605  44.7515763
 131.7862531  68.3791908  45.6440044 131.4543154  68.6836506  44.1986661
 133.7914333  65.0554153  44.7996652 133.7775902  64.1595247  44.4628950
 134.5086761  65.0624817  45.4334938 135.6440464  65.4891494  46.8449779
 135.3858242  66.4108564  46.8434110 135.1125504  65.0921928  47.5350244
 140.5886653  78.5942281  39.6239865 140.7623530  78.0288703  38.8713717
 141.0815544  79.3943176  39.4419355 126.4063613  70.6056950  47.6903424
 125.8617081  71.3816758  47.8223698 127.2842962  70.9527754  47.5322545
 133.1951229  63.9368534  40.0684222 133.3167140  63.0085180  40.2675110
 132.9053272  63.9507220  39.1562538 136.0642420  61.6223444  43.2050942
 136.0864116  61.6862777  42.2502922 136.4810479  60.7827953  43.3991448
 127.1929634  69.7326846  50.5833581 126.4511370  69.8809481  51.1698211
 126.8722379  69.9935112  49.7200330 135.1373297  79.2742824  50.3813971
 135.4460424  79.0291971  51.2536670 135.9348779  79.4789463  49.8932841
 135.1593909  81.4280734  42.6119347 134.7198899  80.9357113  43.3052204
 135.9102026  80.8853702  42.3711422 127.6386248  77.6192275  42.6143975
 128.4644268  77.3196047  42.2342619 127.2880300  76.8499897  43.0633764
 132.6067781  76.9718743  44.6841649 131.9847791  76.3089448  44.3843877
 133.2772648  76.9979875  44.0015297 125.8394853  75.5378601  43.5732909
 125.0026761  75.1100776  43.3916910 125.8118499  75.7311045  44.5103700
 132.6792309  65.4500531  54.2774155 132.7280464  66.3262654  53.8951924
 133.2214823  64.9077924  53.7045798 132.1681288  75.5222666  38.1600109
 132.3169409  76.2058131  37.5066782 132.9747732  75.5027756  38.6749565
 134.9091597  66.2031903  51.0320513 134.0394907  66.4965469  50.7603102
 135.1451078  66.7872348  51.7527777 129.9233921  71.5487844  39.1661178
 129.6779963  70.6450174  39.3641388 130.0929836  71.5504994  38.2240656
 137.6130631  62.4211520  48.5485934 138.1312575  63.1572547  48.2232422
 137.2585764  62.7275514  49.3832693 129.1929569  67.2816202  36.6647340
 128.4998814  67.3560557  36.0087376 128.9481321  66.5176545  37.1868857
 137.8643225  58.8411803  44.0686830 138.1444979  58.1734992  44.6947257
 138.6493832  59.0340898  43.5561494 135.6676694  78.0170797  35.6311857
 135.0950661  78.6360984  35.1782329 136.2409487  78.5670158  36.1651779
 139.7566463  64.3485020  48.0017806 139.1616395  64.6290033  47.3064295
 139.4716160  64.8378921  48.7734548 138.8873953  78.3007947  36.7620439
 139.8204627  78.2353509  36.9653315 138.7997166  79.1364214  36.3034972
 136.0523492  69.3531610  32.9727909 136.9982597  69.2237818  33.0416327
 135.6737737  68.6146271  33.4497337 135.9362185  73.4049356  54.4328566
 136.8565194  73.5827955  54.6268613 135.9011768  72.4605401  54.2808265
 134.2366409  67.2781586  32.9082794 133.3297865  66.9814699  32.9845508
 134.5142390  66.9811404  32.0417081 125.1544350  68.5987949  43.3581841
 124.8347134  67.7453258  43.0656215 124.6077778  68.8136527  44.1139808
 128.9324257  71.3150390  47.0751347 129.1510267  72.2467498  47.0939381
 129.3450031  70.9558365  47.8606151 135.8528475  61.8218476  39.0627036
 135.0429203  61.4765561  39.4382282 136.5412892  61.5126019  39.6514647
 137.7819023  60.8996522  40.6851332 138.3350062  61.3191976  41.3441356
 138.0189110  59.9732271  40.7274288 133.8052123  66.8883596  56.4654096
 133.7048850  67.8377953  56.3966187 133.5873665  66.5601835  55.5930166
 133.0065194  64.1368521  33.0494774 133.8684358  64.4623419  33.3090591
 133.1915538  63.3500017  32.5367839 125.0232610  72.2190861  45.3274962
 124.3296081  71.8044814  44.8144917 125.7705601  72.2611397  44.7308381
 139.6101397  62.4102105  42.3951317 140.1101175  62.5218640  41.5865636
 140.2537005  62.1063158  43.0352125 133.6683393  70.3180735  55.2819158
 133.1850474  71.1181095  55.4883047 133.7544332  70.3288680  54.3286602
 126.9369352  72.1509115  43.2040977 126.9140040  72.2496802  42.2522860
 127.2469989  72.9974265  43.5258143 129.5956730  74.2085270  47.3187592
 130.5499984  74.1769212  47.2517523 129.3969254  73.7475893  48.1337818
 130.1856112  72.7786386  49.8858389 131.0049001  73.2730464  49.9093227
 130.4592920  71.8618354  49.8575957 139.9422708  65.1697138  39.2486345
 139.0548564  65.4546789  39.0306540 140.3576698  65.0090901  38.4013622
 127.9506959  79.7504889  44.3357790 127.8161427  78.9905290  43.7695788
 127.5339021  80.4745789  43.8686579 139.0865922  74.9341813  33.3434365
 139.7901772  75.1391815  33.9592021 138.3628571  75.5018575  33.6083448
 139.9163732  70.6851674  39.4636635 139.8598934  71.1420225  38.6244267
 140.4692075  69.9242359  39.2859478 131.1076085  80.6474206  44.5476232
 130.9908469  81.5919639  44.4454923 130.2868531  80.3447768  44.9362031
 140.6498512  71.8756455  36.7589164 140.5947315  71.7100727  35.8177608
 140.0244567  72.5832488  36.9151354 125.4391027  67.1124520  50.5850586
 126.0849890  66.6023474  51.0737812 125.2308178  67.8493201  51.1594012
 137.9644419  74.1805367  56.0842727 138.8335578  74.3546019  55.7229362
 137.4851170  74.9999784  55.9618456 133.9594637  61.3764564  36.3374483
 133.9473307  62.3206404  36.4942754 134.8518059  61.1934710  36.0433944
 132.1330599  81.3002468  47.7632161 133.0357846  81.3326078  48.0798656
 131.9067969  80.3702919  47.7778496 133.8884201  80.0533455  44.4242239
 132.9379832  80.0535316  44.3106612 134.1916687  79.3066189  43.9078274
 137.7746756  57.9707341  40.5920419 137.0079152  57.4165827  40.7377102
 138.1857461  58.0429210  41.4534571 129.7788518  64.2592137  54.6825601
 130.6419979  63.9028941  54.8928925 129.2053928  63.9206031  55.3701005
 139.8377848  89.1908089  44.2530638 140.6299140  88.8498914  43.8376937
 140.0774499  89.3003064  45.1732791 139.4064822  85.5601870  44.1945203
 139.5357204  85.8136349  45.1084615 138.7262274  86.1529578  43.8749858
 138.3534248  83.0323883  44.2396245 137.5633302  83.2881412  43.7636356
 138.8445495  83.8472221  44.3448286 140.3048993  83.3968463  41.1979722
 139.5080157  83.5087157  41.7163218 140.0774586  83.7355115  40.3320613
 136.6371951  83.2854374  46.6711236 136.8879989  84.1701384  46.9368812
 137.1731499  83.1058975  45.8986328 139.3032076  89.1056711  39.5869142
 139.8156597  89.8999962  39.7374707 139.9554789  88.4083002  39.5202744
 140.3979317  84.2687100  51.5454058 140.2832832  83.3672357  51.8461157
 139.5423835  84.5150796  51.1938875 137.2680993  87.4345366  40.3628713
 138.1056215  87.8442374  40.1462420 137.4459261  86.4944808  40.3328907
 137.2907164  84.7736081  41.0339446 137.0931564  84.1805442  40.3090513
 136.7353828  84.4688291  41.7515385 139.7853390  84.3000115  38.7180398
 138.8550978  84.2384570  38.9350360 139.8810862  83.7776068  37.9217039
 139.7038939  80.8254928  41.3058640 139.9645756  81.7400261  41.1967800
 140.5256111  80.3579370  41.4555253 133.8506995  86.4586276  43.2007191
 134.5378035  86.1448006  42.6128207 133.6955124  87.3627641  42.9274443
 138.6541717  81.3476473  47.6292215 138.5699906  80.7402142  46.8942625
 137.8324424  81.8385491  47.6301712 138.8357316  91.9681269  46.7520215
 139.4210753  91.2224957  46.8848120 138.6382155  92.2785226  47.6356879
 133.4274971  84.5386870  45.4724659 133.4659071  84.0050460  46.2661777
 132.9215264  84.0122075  44.8535636 140.8065733  79.3851410  48.9687201
 140.8707060  80.2466241  48.5564599 140.7432854  78.7725412  48.2359559
 140.2818006  81.4574543  52.6160235 140.9090045  81.0751620  53.2297759
 139.4245925  81.2388745  52.9815928 137.0583549  83.2650972  38.5478590
 137.3536990  82.3561650  38.4945644 136.1571585  83.2438711  38.2259592
 138.7871390  80.9465069  38.6717915 138.4584096  80.0662448  38.4893021
 139.1410761  80.8912738  39.5594304 137.2457367  85.9348867  47.6903424
 136.7010835  86.7108675  47.8223698 138.1236717  86.2819672  47.5322545
 138.0323389  85.0618764  50.5833581 137.2905125  85.2101399  51.1698211
 137.7116133  85.3227029  49.7200330 138.4780003  92.9484192  42.6143975
 139.3038023  92.6487964  42.2342619 138.1274055  92.1791815  43.0633764
 136.6788608  90.8670519  43.5732909 135.8420516  90.4392693  43.3916910
 136.6512253  91.0602962  44.5103700 140.7627676  86.8779762  39.1661178
 140.5173718  85.9742092  39.3641388 140.9323590  86.8796912  38.2240656
 140.0323323  82.6108119  36.6647340 139.3392568  82.6852474  36.0087376
 139.7875075  81.8468463  37.1868857 135.9938104  83.9279867  43.3581841
 135.6740889  83.0745175  43.0656215 135.4471532  84.1428445  44.1139808
 139.7718012  86.6442308  47.0751347 139.9904022  87.5759416  47.0939381
 140.1843786  86.2850282  47.8606151 135.8626364  87.5482778  45.3274962
 135.1689836  87.1336731  44.8144917 136.6099355  87.5903315  44.7308381
 137.7763107  87.4801032  43.2040977 137.7533795  87.5788720  42.2522860
 138.0863743  88.3266183  43.5258143 138.7900713  95.0796807  44.3357790
 138.6555181  94.3197208  43.7695788 138.3732776  95.8037707  43.8686579
 136.2784781  82.4416437  50.5850586 136.9243645  81.9315391  51.0737812
 136.0701932  83.1785119  51.1594012 100.2189293  11.9193572  27.0180984
 100.1413323  12.8701397  27.0969464  99.6150937  11.5739445  27.6755910
 102.4927662   7.2775725  25.7386524 102.3573337   8.1227261  26.1671371
 103.0337474   7.4795003  24.9752457  97.7551944   7.9116920  28.3937202
  97.9318572   8.8334884  28.2058186  98.5508778   7.5975339  28.8231582
  98.8783260   9.4295093  34.3947544  99.4290685   9.3012157  33.6224538
  98.0394735   9.7289982  34.0442437 105.0923822  11.3509931  22.1742247
 104.4185521  11.6541628  22.7827204 105.4789644  12.1539011  21.8247704
 102.0029809   8.9688456  29.5703989 101.9605988   9.1949302  28.6412521
 102.9192508   8.7351831  29.7189791 104.9390454   8.2269581  33.7178320
 104.9927476   8.7960517  34.4856036 104.0705235   8.3971466  33.3532357
 103.2915037  11.5189604  24.3889326 103.4666793  11.0477647  25.2034948
 102.6047826  12.1455370  24.6170586  97.8576123  14.6678966  31.1629186
  98.0972721  15.2997491  31.8408205  97.0145319  14.3167006  31.4494545
 102.3703985  10.4758089  33.5670690 102.2974156  11.2813060  34.0789994
 101.9281378  10.6750055  32.7418711 102.1593764   9.7129859  27.0773511
 101.3761286  10.2551539  27.1711736 102.8586509  10.2303838  27.4767753
 104.8302668  10.3744923  35.7228849 105.5430640  11.0092388  35.6504750
 104.3392697  10.4708789  34.9068850  99.8814582   8.1239366  36.5434419
 100.5824041   8.7575849  36.6963814  99.4109697   8.4654098  35.7830059
 104.6423042  10.7143667  28.4715140 104.8245436   9.8965323  28.9342892
 105.4656028  10.9311359  28.0340030 104.9765207   9.6411852  25.7330189
 105.5052973   9.1304307  25.1200351 105.2393427   9.3254382  26.5975722
  95.4782300   7.6575721  33.4765522  96.0635737   6.9119409  33.6093426
  95.2807138   7.9679678  34.3602186  98.3320955  10.6926969  28.4927964
  97.6631330  11.1773096  28.0092005  98.1933825  10.9396189  29.4071343
 102.4726224  12.7270712  35.0910623 103.0244532  12.8902334  35.8559708
 102.8132417  13.3175150  34.4190648 105.6094611  10.6752688  32.0774305
 105.4845750   9.8742428  31.5685250 106.2673702  11.1698881  31.5888275
 102.6192035  10.2929194  37.1059277 102.9279161  10.0478341  37.9781977
 103.4167517  10.4975832  36.6178147 102.6412647  12.4467103  29.3364654
 102.2017637  11.9543482  30.0297510 103.3920764  11.9040071  29.0956729
  95.1204986   8.6378644  29.3389282  95.9463006   8.3382416  28.9587925
  94.7699038   7.8686267  29.7879070 100.0886519   7.9905113  31.4086955
  99.4666528   7.3275818  31.1089183 100.7591386   8.0166244  30.7260603
  93.3213591   6.5564971  30.2978215  92.4845499   6.1287145  30.1162217
  93.2937236   6.7497414  31.2349007 103.1495431   9.0357166  22.3557163
 102.5769399   9.6547353  21.9027635 103.7228225   9.5856528  22.8897085
 106.3692691   9.3194316  23.4865746 107.3023364   9.2539878  23.6898621
 106.2815904  10.1550583  23.0280278  95.4325697  10.7691259  31.0603096
  95.2980165  10.0091660  30.4941094  95.0157759  11.4932159  30.5931885
  98.5894823  11.6660576  31.2721539  98.4727207  12.6106008  31.1700229
  97.7687269  11.3634137  31.6607338  99.6149337  12.3188838  34.4877467
 100.5176583  12.3512448  34.8043962  99.3886707  11.3889289  34.5023803
 101.3702939  11.0719824  31.1487546 100.4198570  11.0721686  31.0351918
 101.6735425  10.3252559  30.6323581 117.1055632  16.9080363  32.2133308
 117.7434042  16.7887110  31.5096648 116.9876475  17.8561206  32.2721261
 113.9145339  16.8607791  32.1494833 113.5763850  16.7448855  31.2615368
 114.7835107  16.4598956  32.1295839 109.7732154  18.7143267  28.1391724
 109.2097019  18.6233204  27.3708012 109.6584549  17.8943171  28.6194217
 114.3965122  18.0142642  38.1081039 114.3853762  17.6195441  37.2361542
 114.5585761  17.2808715  38.7014810 107.3196586  20.2094459  30.9775944
 108.1117878  19.8685283  30.5622244 107.5593236  20.3189434  31.8978098
 115.3531713  22.3814235  23.4506189 114.7019693  22.9668315  23.0640203
 116.1476076  22.9120430  23.5101226 109.2787340  19.4703372  23.8493323
 110.0518216  18.9232359  23.7106199 109.6312739  20.3347621  24.0607785
 111.1172383  20.7979754  37.0560223 110.8262249  21.7025385  36.9406889
 111.7529367  20.8396282  37.7704292 112.0428590  18.1756603  33.6461582
 112.6392162  17.9512625  32.9318545 112.1003561  17.4341348  34.2487030
 116.6596901  14.6331816  29.2886516 117.4459990  14.2151240  28.9376933
 116.9235605  15.5377909  29.4568165 116.8306978  20.0704667  23.9875173
 116.1952811  20.1439293  24.6996078 116.5004384  20.6598266  23.3094252
 111.3349907  17.5324144  23.6836148 111.2186165  16.8569047  24.3517232
 111.4452167  17.0456518  22.8668301 113.6781448  16.9934291  27.3882837
 113.3139655  16.4664912  28.0995759 114.5348563  16.6032760  27.2149323
 116.0762268  20.4841170  34.0510016 115.7762991  21.3866208  33.9425823
 115.7313327  20.2173353  34.9031169 109.5274749  16.9354967  30.0846721
 108.6025246  16.8031181  30.2924412 109.7759162  17.7149186  30.5816663
 113.2976155  14.4781848  23.3690853 113.1775781  14.9238899  24.2076333
 112.6028744  14.8267166  22.8104391 106.8883560  16.5788240  30.9190510
 107.0175941  16.8322719  31.8329921 106.2081012  17.1715948  30.5995165
 111.0583048  27.2485490  27.0180984 110.9807077  28.1993315  27.0969464
 110.4544691  26.9031363  27.6755910 113.5500277  14.4213355  39.6742351
 112.7733611  14.9807276  39.6645215 114.1890840  14.9070138  40.1957221
 111.8046650  17.2298809  39.2360318 112.5461334  17.7683853  38.9595141
 111.0983635  17.8565098  39.3931870 117.2801989  19.3727949  37.8332479
 117.6885345  18.9310360  37.0887112 116.5579251  18.7980577  38.0866672
 113.6333059  14.3100556  35.2066036 114.4794254  14.7339970  35.3500685
 113.5731697  13.6534180  35.9004599 117.6030804  19.9329140  31.5884768
 116.9739666  20.0974854  30.8860836 117.2156466  20.3470749  32.3595732
 121.4820036  20.8683578  28.9429132 120.7971074  21.2482479  28.3926165
 121.5663885  21.4778904  29.6761080 118.7370967  18.5143537  35.5424475
 118.9487863  19.1575297  34.8658857 118.6900716  17.6805853  35.0746406
 113.1558766  19.6703548  28.8534853 113.6197111  19.9491251  28.0639476
 112.8915564  18.7686993  28.6707944 110.0482847  19.2175030  31.7914617
 110.6184204  19.6462298  31.1532101 110.6390959  18.9357614  32.4898802
 112.0927652  15.7926700  25.6624418 112.7951695  16.2447744  26.1298345
 111.7608280  15.1510519  26.2904312 110.5408013  14.3838457  40.0375628
 109.9106674  15.0654738  40.2711025 110.4344101  14.2721539  39.0928766
 105.8352986  14.0510253  30.9641552 105.0452040  14.3067782  30.4881663
 106.3264233  14.8658591  31.0693593 119.8516795  21.3915492  33.7146833
 120.6734239  20.9895679  33.4329514 119.8479198  21.2883726  34.6662949
 107.7867731  14.4154832  27.9225029 106.9898894  14.5273527  28.4408524
 107.5593323  14.7541484  27.0565919 113.6173399  20.9399535  35.8707543
 113.6817831  21.4019943  36.7065715 112.9084323  20.3096900  35.9989853
 104.1190689  14.3040743  33.3956543 104.3698727  15.1887753  33.6614119
 104.6550237  14.1245345  32.6231635 113.3321416  22.6067643  25.7386524
 113.1967091  23.4519179  26.1671371 113.8731229  22.8086921  24.9752457
 106.7850814  20.1243081  26.3114449 107.2975334  20.9186331  26.4620013
 107.4373527  19.4269371  26.2448050 108.5945699  23.2408837  28.3937202
 108.7712327  24.1626802  28.2058186 109.3902532  22.9267257  28.8231582
 107.8798055  15.2873469  38.2699365 107.7651570  14.3858726  38.5706464
 107.0242573  15.5337166  37.9184182 114.9589893  23.2291209  39.8686866
 114.5153747  22.4427588  39.5507770 115.6207106  23.4170360  39.2030757
 109.7177014  24.7587011  34.3947544 110.2684439  24.6304074  33.6224538
 108.8788490  25.0581900  34.0442437 117.0571131  23.5094009  37.8968267
 117.0389606  24.3302890  37.4048536 117.9791051  23.3848085  38.1218408
 113.5144185  21.0238139  38.7391775 114.0472522  20.2626427  38.5091083
 112.9858266  20.7311791  39.4815930 104.7499731  18.4531735  27.0874019
 105.5874953  18.8628744  26.8707727 104.9277998  17.5131177  27.0574213
 114.8796898  20.1524131  26.2510587 114.3518259  19.4176891  25.9383825
 114.3784400  20.9298808  26.0050556 119.8589744  18.3473152  31.3677634
 119.2013418  19.0372413  31.4557762 120.6630143  18.7369584  31.7111620
 109.6115625  10.8143798  28.6117199 110.1859377  10.5918979  27.8790392
 110.1986608  10.8832492  29.3645800 118.6695203  16.7017525  29.4181575
 119.1827084  17.3347516  29.9203285 119.3196426  16.1018720  29.0524935
 109.9385212  12.8448259  22.6313084 109.1022525  13.1822945  22.9522359
 109.7989982  12.7097238  21.6940221 115.9317577  26.6801849  22.1742247
 115.2579276  26.9833546  22.7827204 116.3183399  27.4830929  21.8247704
 115.1476033  14.1766980  31.6639916 114.2298595  14.3981927  31.5061604
 115.5636177  14.2513291  30.8051623 115.9311081  15.5758396  26.7942596
 116.6782900  16.0879793  26.4849718 116.2002671  15.2542449  27.6546990
 114.2037731  18.0716937  23.7769551 113.2948951  17.7875969  23.8742020
 114.2332815  18.4916015  22.9172857 119.4356999  21.6823526  27.5460718
 118.9819326  20.8414436  27.6025909 118.8050965  22.3184924  27.8835498
 117.8789938  23.5200023  28.4810536 118.1712912  24.0805080  27.7622902
 118.3888559  23.8128584  29.2363695 104.7725902  15.7922451  27.7584753
 104.5750302  15.1991811  27.0335819 104.2172566  15.4874661  28.4760692
 112.7522625  15.6845557  29.8779346 112.8071235  14.7319394  29.8021822
 111.9413827  15.8404996  30.3620644 110.6914985  14.3022617  27.6369725
 109.8782851  14.6016787  28.0434917 111.1873980  13.9078306  28.3544207
 112.8423563  24.2980374  29.5703989 112.7999742  24.5241220  28.6412521
 113.7586262  24.0643748  29.7189791 116.2889197  14.7664441  36.4684619
 116.6438585  14.9935914  37.3279084 116.9361328  15.0982818  35.8461874
 110.1829060  11.8740972  33.2530960 110.8228439  11.7329731  32.5553923
 109.3506591  11.5875486  32.8769562 122.0456314  19.9559404  32.1845219
 122.4792820  19.8634693  33.0328273 122.7587894  19.9316905  31.5465235
 110.9589364  21.1743403  29.3665952 111.7529962  20.6793723  29.1648527
 110.2481056  20.6461266  29.0033658 115.7784208  23.5561498  33.7178320
 115.8321231  24.1252435  34.4856036 114.9098990  23.7263383  33.3532357
 107.2672127  15.3186485  25.4425705 106.3369716  15.2570940  25.6595667
 107.3629599  14.7962437  24.6462346 107.1857677  11.8441297  28.0303946
 107.4464494  12.7586631  27.9213107 108.0074849  11.3765740  28.1800559
 108.6582602  13.2579055  35.2002771 109.3305655  13.0496417  34.5515420
 107.8312388  13.0601141  34.7608003 122.9071863  19.9983105  34.7178105
 123.1007753  20.9028915  34.9637379 122.8072481  19.5390524  35.5516690
 117.9686972  20.1489848  40.2918985 117.8172478  19.9200399  39.3749069
 117.9591651  21.1060449  40.3050330 114.7372308  17.7221760  35.2765252
 115.6664368  17.8732920  35.1034219 114.3163338  17.8105781  34.4213898
 113.5360640  21.7472425  33.0463789 113.3971726  21.3791209  33.9189727
 112.7475236  22.2620064  32.8747747 114.1308792  26.8481521  24.3889326
 114.3060548  26.3769564  25.2034948 113.4441580  27.4747287  24.6170586
 115.0865855  21.1254027  30.4352627 114.7515688  21.0854797  31.3310277
 114.5869801  20.4598743  29.9623037 109.0610099  16.5321658  35.9605208
 108.9229897  15.8001896  36.5616747 109.9715023  16.4430558  35.6789396
 111.6892400  16.2441617  35.4488888 112.3992018  15.6034809  35.4075506
 111.6461708  16.4954512  36.3715069 119.6779178  23.1808970  38.3695467
 119.6191725  22.4968190  37.7026050 120.0798697  23.9227960  37.9176093
 110.4021334  13.2306835  37.2684527 109.8658691  12.7797573  37.9206124
 109.8138042  13.3652744  36.5254992 108.6969877  29.9970884  31.1629186
 108.9366475  30.6289408  31.8408205 107.8539074  29.6458924  31.4494545
 119.6796586  21.1448554  36.6009447 118.7923364  20.8074476  36.7235846
 120.2495137  20.4131585  36.8378212 101.3325733  17.4772646  29.9252498
 102.0196773  17.1634376  29.3373513 101.1773862  18.3814010  29.6519750
 106.1360455  12.3662842  34.3537522 106.0518644  11.7588512  33.6187932
 105.3143161  12.8571861  34.3547018 113.2097739  25.8050006  33.5670690
 113.1367911  26.6104978  34.0789994 112.7675132  26.0041972  32.7418711
 112.9987519  25.0421776  27.0773511 112.2155041  25.5843457  27.1711736
 113.6980264  25.5595756  27.4767753 124.1613926  16.5556771  31.3626008
 124.1503802  17.4381487  30.9919941 123.2931306  16.2028322  31.1680545
 115.6696423  25.7036840  35.7228849 116.3824395  26.3384305  35.6504750
 115.1786451  25.8000706  34.9068850 117.3913950  19.6088093  27.2946140
 116.4570228  19.7289556  27.1250845 117.5690618  18.7060560  27.0306150
 112.8919138  12.9933789  29.4479401 112.5216925  12.4404829  30.1360307
 113.3878230  12.3891922  28.8954401 110.7208336  23.4531284  36.5434419
 111.4217796  24.0867767  36.6963814 110.2503451  23.7946015  35.7830059
 118.8462732  21.7949234  24.8282326 119.1222576  21.6805828  25.7376201
 117.9767231  21.3966719  24.7894500 118.5209622  16.0075891  34.3686970
 117.8681072  16.2551799  33.7139423 118.8990002  15.1940030  34.0349447
 115.4816796  26.0435585  28.4715140 115.6639191  25.2257241  28.9342892
 116.3049782  26.2603277  28.0340030 115.8158962  24.9703770  25.7330189
 116.3446728  24.4596224  25.1200351 116.0787181  24.6546300  26.5975722
 114.5697195  16.7495702  40.8553007 113.8937832  16.6489832  41.5255382
 115.3924829  16.5934916  41.3189004 106.3176054  22.9867639  33.4765522
 106.9029491  22.2411327  33.6093426 106.1200893  23.2971596  34.3602186
 109.1714709  26.0218886  28.4927964 108.5025085  26.5065014  28.0092005
 109.0327579  26.2688107  29.4071343 100.9093709  15.5573239  32.1969965
 100.9477808  15.0236830  32.9907083 100.4034002  15.0308445  31.5780942
 113.3119978  28.0562630  35.0910623 113.8638286  28.2194251  35.8559708
 113.6526171  28.6467068  34.4190648 108.2884471  10.4037780  35.6932508
 108.3525798  11.2652611  35.2809905 108.2251592   9.7911781  34.9604866
 107.7636744  12.4760912  39.3405542 108.3908783  12.0937990  39.9543066
 106.9064663  12.2575114  39.7061234 118.1630852  22.8823887  40.9459277
 118.7070756  23.4953846  40.4514232 117.5817697  23.4403466  41.4626290
 104.5402287  14.2837341  25.2723897 104.8355728  13.3748020  25.2190950
 103.6390322  14.2625081  24.9504899 116.4488365  26.0044605  32.0774305
 116.3239505  25.2034345  31.5685250 117.1067456  26.4990799  31.5888275
 108.0696534  12.3593338  31.2551445 107.3483119  12.9729306  31.1158919
 108.8589789  12.8951103  31.1768091 118.5123274  23.8053626  33.7053855
 117.5653609  23.6858977  33.6332182 118.8606047  22.9176124  33.7880117
 106.2690128  11.9651439  25.3963222 105.9402834  11.0848818  25.2138328
 106.6229499  11.9099108  26.2839611 115.5169707  23.6006342  29.9058207
 115.3694669  22.6723049  30.0865777 116.3423201  23.6226432  29.4215283
 109.3831951  12.2524409  25.7638699 109.7228024  12.7810330  25.0417308
 109.8304072  12.5904815  26.5397266 119.1203829  24.4234900  30.9923080
 120.0450376  24.2177762  30.8547531 118.9519132  24.1751302  31.9012422
 110.2530443  14.4129893  31.4761069 110.1075023  14.7270196  32.3685351
 109.7755646  15.0314793  30.9231968 113.9652956  11.8369781  33.5695086
 113.7070734  12.7586851  33.5679417 113.4337997  11.4400215  34.2595550
 118.9099145  24.9420568  26.3485172 119.0836023  24.3766990  25.5959024
 119.4028036  25.7421463  26.1664661 104.7276105  16.9535237  34.4148730
 104.1829573  17.7295045  34.5469005 105.6055455  17.3006041  34.2567852
 119.8974318  24.2587332  23.4482070 120.5925222  24.8794025  23.6669384
 120.2397468  23.4082684  23.7234448 105.5142127  16.0805133  37.3078887
 104.7723863  16.2287769  37.8943518 105.1934871  16.3413399  36.4445637
 113.4585789  25.6221112  37.1059277 113.7672916  25.3770258  37.9781977
 114.2561271  25.8267750  36.6178147 113.4806401  27.7759021  29.3364654
 113.0411392  27.2835400  30.0297510 114.2314518  27.2331989  29.0956729
 105.9598740  23.9670562  29.3389282 106.7856760  23.6674334  28.9587925
 105.6092792  23.1978184  29.7879070 110.9280274  23.3197030  31.4086955
 110.3060283  22.6567735  31.1089183 111.5985140  23.3458162  30.7260603
 104.1607345  21.8856888  30.2978215 103.3239254  21.4579063  30.1162217
 104.1330991  22.0789332  31.2349007 111.0004801  11.7978818  41.0019461
 111.0492957  12.6740941  40.6197231 111.5427315  11.2556211  40.4291105
 121.4859647  22.3419942  40.2820599 120.6955190  22.3244080  39.7425098
 121.2493001  22.8808235  41.0369635 121.6057522  19.1912408  37.5953327
 121.6555527  19.0262415  38.5368850 121.4971445  18.3239667  37.2051208
 110.4893780  21.8700954  24.8845416 110.6381901  22.5536418  24.2312089
 111.2960224  21.8506044  25.3994872 118.8961284  15.1743336  38.9112634
 119.7971147  15.0349801  38.6196632 118.9709259  15.3397791  39.8510811
 113.2304089  12.5510191  37.7565820 112.3607399  12.8443757  37.4848409
 113.4663570  13.1350636  38.4773084 123.1075719  21.6109349  37.8395349
 122.8160527  21.9739330  38.6758810 122.4947850  20.8976358  37.6608681
 121.3562907  16.7341964  36.3075407 121.8317028  16.9269610  35.4994258
 120.4328472  16.7901150  36.0618790 108.2446413  17.8966131  25.8906485
 107.9992455  16.9928461  26.0886695 108.4142328  17.8983282  24.9485963
 107.5142061  13.6294489  23.3892646 106.8211306  13.7038844  22.7332682
 107.2693813  12.8654832  23.9114163 113.9889186  24.3649084  22.3557163
 113.4163153  24.9839271  21.9027635 114.5621980  24.9148446  22.8897085
 117.2086446  24.6486234  23.4865746 118.1417119  24.5831796  23.6898621
 117.1209659  25.4842501  23.0280278 122.5352654  16.8313844  33.6546012
 122.5028974  15.8929845  33.8405696 123.1453277  16.9097881  32.9211837
 126.4344501  16.0337713  33.3926500 125.7077664  15.8993678  32.7842991
 126.0191787  16.3414542  34.1983218 114.2574677  19.7527643  41.1573873
 115.1777686  19.9306242  41.3513919 114.2224260  18.8083688  41.0053572
 103.4756842  14.9466237  30.0827148 103.1559626  14.0931545  29.7901522
 102.9290270  15.1614815  30.8385115 107.2536750  17.6628678  33.7996654
 107.4722759  18.5945785  33.8184688 107.6662523  17.3036652  34.5851458
 112.1264615  13.2361883  43.1899403 112.0261342  14.1856240  43.1211494
 111.9086157  12.9080122  42.3175473 103.3445102  18.5669148  32.0520269
 102.6508573  18.1523101  31.5390224 104.0918093  18.6089685  31.4553688
 111.9895885  16.6659022  42.0064465 111.5062967  17.4659382  42.2128354
 112.0756824  16.6766967  41.0531909 105.2581845  18.4987402  29.9286284
 105.2352533  18.5975089  28.9768167 105.5682481  19.3452553  30.2503450
 107.9169222  20.5563557  34.0432898 108.8712476  20.5247499  33.9762830
 107.7181746  20.0954181  34.8583124 108.5068605  19.1264673  36.6103696
 109.3261494  19.6208752  36.6338533 108.7805412  18.2096641  36.5821264
 106.2719451  26.0983176  31.0603096 106.1373919  25.3383577  30.4941094
 105.8551513  26.8224076  30.5931885 109.4288577  26.9952493  31.2721539
 109.3120961  27.9397926  31.1700229 108.6081023  26.6926055  31.6607338
 103.7603519  13.4602807  37.3095893 104.4062382  12.9501761  37.7983118
 103.5520670  14.1971488  37.8839318 116.2856911  20.5283654  42.8088034
 117.1548071  20.7024307  42.4474669 115.8063662  21.3478071  42.6863763
 110.4543091  27.6480755  34.4877467 111.3570338  27.6804366  34.8043962
 110.2280461  26.7181206  34.5023803 112.2096693  26.4011742  31.1487546
 111.2592324  26.4013603  31.0351918 112.5129179  25.6544476  30.6323581
 108.1001010  10.6070424  41.4070907 108.9632471  10.2507229  41.6174232
 107.5266420  10.2684319  42.0946312 127.9449387  32.2372280  32.2133308
 128.5827797  32.1179028  31.5096648 127.8270230  33.1853124  32.2721261
 124.7539093  32.1899708  32.1494833 124.4157605  32.0740773  31.2615368
 125.6228861  31.7890873  32.1295839 120.6125909  34.0435185  28.1391724
 120.0490774  33.9525122  27.3708012 120.4978304  33.2235089  28.6194217
 125.2358876  33.3434560  38.1081039 125.2247517  32.9487358  37.2361542
 125.3979515  32.6100633  38.7014810 118.1590341  35.5386376  30.9775944
 118.9511633  35.1977201  30.5622244 118.3986991  35.6481351  31.8978098
 126.1925467  37.7106152  23.4506189 125.5413447  38.2960233  23.0640203
 126.9869830  38.2412347  23.5101226 120.1181095  34.7995290  23.8493323
 120.8911971  34.2524277  23.7106199 120.4706493  35.6639539  24.0607785
 121.9566137  36.1271672  37.0560223 121.6656003  37.0317303  36.9406889
 122.5923121  36.1688199  37.7704292 122.8822344  33.5048520  33.6461582
 123.4785916  33.2804543  32.9318545 122.9397316  32.7633266  34.2487030
 127.4990655  29.9623734  29.2886516 128.2853744  29.5443157  28.9376933
 127.7629360  30.8669826  29.4568165 127.6700733  35.3996584  23.9875173
 127.0346566  35.4731211  24.6996078 127.3398139  35.9890183  23.3094252
 122.1743661  32.8616062  23.6836148 122.0579919  32.1860965  24.3517232
 122.2845921  32.3748436  22.8668301 124.5175202  32.3226209  27.3882837
 124.1533409  31.7956830  28.0995759 125.3742318  31.9324678  27.2149323
 130.4224503  23.6120541  34.6514103 130.0907827  24.4815952  34.4275318
 129.8270116  23.2956825  35.3308134 126.9156022  35.8133087  34.0510016
 126.6156745  36.7158126  33.9425823 126.5707082  35.5465271  34.9031169
 120.3668504  32.2646884  30.0846721 119.4419000  32.1323098  30.2924412
 120.6152917  33.0441103  30.5816663 130.3153166  28.3315628  31.7307454
 129.4070043  28.2631036  31.4366215 130.2640762  28.8087572  32.5589279
 124.1369910  29.8073766  23.3690853 124.0169535  30.2530817  24.2076333
 123.4422498  30.1559084  22.8104391 117.7277315  31.9080158  30.9190510
 117.8569696  32.1614637  31.8329921 117.0474766  32.5007866  30.5995165
 121.8976802  42.5777408  27.0180984 121.8200832  43.5285233  27.0969464
 121.2938446  42.2323280  27.6755910 124.3894032  29.7505273  39.6742351
 123.6127366  30.3099193  39.6645215 125.0284595  30.2362056  40.1957221
 132.1814812  26.5332066  33.5085327 131.5389193  26.8264599  32.8625122
 131.6769741  26.4184986  34.3138524 122.6440404  32.5590726  39.2360318
 123.3855088  33.0975770  38.9595141 121.9377390  33.1857015  39.3931870
 128.1195744  34.7019867  37.8332479 128.5279100  34.2602277  37.0887112
 127.3973005  34.1272494  38.0866672 124.4726814  29.6392474  35.2066036
 125.3188009  30.0631887  35.3500685 124.4125451  28.9826098  35.9004599
 128.4424558  35.2621058  31.5884768 127.8133421  35.4266772  30.8860836
 128.0550220  35.6762667  32.3595732 132.3213790  36.1975495  28.9429132
 131.6364828  36.5774397  28.3926165 132.4057640  36.8070822  29.6761080
 127.6226259  27.2996842  36.8647210 127.3787191  28.0538903  36.3281486
 127.8986190  27.6782190  37.6994457 129.5764722  33.8435454  35.5424475
 129.7881617  34.4867214  34.8658857 129.5294470  33.0097771  35.0746406
 127.1790951  26.4553275  32.4461048 126.3175430  26.7534529  32.7377785
 127.2053386  26.6723674  31.5142080 123.9952520  34.9995466  28.8534853
 124.4590866  35.2783169  28.0639476 123.7309318  34.0978910  28.6707944
 120.8876601  34.5466947  31.7914617 121.4577958  34.9754216  31.1532101
 121.4784713  34.2649532  32.4898802 122.9321406  31.1218618  25.6624418
 123.6345450  31.5739662  26.1298345 122.6002035  30.4802437  26.2904312
 121.3801768  29.7130375  40.0375628 120.7500428  30.3946656  40.2711025
 121.2737856  29.6013456  39.0928766 116.6746740  29.3802171  30.9641552
 115.8845794  29.6359699  30.4881663 117.1657988  30.1950509  31.0693593
 130.6910550  36.7207410  33.7146833 131.5127994  36.3187597  33.4329514
 130.6872953  36.6175644  34.6662949 118.6261486  29.7446750  27.9225029
 117.8292649  29.8565444  28.4408524 118.3987078  30.0833402  27.0565919
 124.4567153  36.2691453  35.8707543 124.5211586  36.7311860  36.7065715
 123.7478077  35.6388818  35.9989853 114.9584443  29.6332661  33.3956543
 115.2092482  30.5179671  33.6614119 115.4943992  29.4537263  32.6231635
 124.1715171  37.9359561  25.7386524 124.0360846  38.7811096  26.1671371
 124.7124983  38.1378838  24.9752457 120.6582511  24.0151141  42.4000879
 120.2649456  23.4617339  43.0748523 121.4748651  24.3261719  42.7907396
 117.6244568  35.4534999  26.3114449 118.1369089  36.2478249  26.4620013
 118.2767281  34.7561289  26.2448050 119.4339453  38.5700755  28.3937202
 119.6106081  39.4918720  28.2058186 120.2296287  38.2559174  28.8231582
 123.5750472  25.4309020  39.9921135 124.3160185  26.0316173  39.9125598
 123.8068394  24.6886657  39.4339178 118.7191810  30.6165387  38.2699365
 118.6045325  29.7150644  38.5706464 117.8636327  30.8629084  37.9184182
 125.7983647  38.5583127  39.8686866 125.3547502  37.7719506  39.5507770
 126.4600861  38.7462278  39.2030757 120.5570768  40.0878929  34.3947544
 121.1078194  39.9595992  33.6224538 119.7182244  40.3873818  34.0442437
 127.8964885  38.8385927  37.8968267 127.8783361  39.6594808  37.4048536
 128.8184805  38.7140002  38.1218408 124.3537940  36.3530057  38.7391775
 124.8866276  35.5918345  38.5091083 123.8252021  36.0603708  39.4815930
 127.5207635  21.4590123  34.2685417 127.1771904  22.3491764  34.1924528
 127.8886597  21.2691780  33.4055002 115.5893485  33.7823653  27.0874019
 116.4268707  34.1920661  26.8707727 115.7671753  32.8423095  27.0574213
 125.0705028  26.2948434  27.8343091 124.2146625  25.9055285  27.6548729
 125.4831980  26.3740395  26.9742876 126.6004175  23.8294778  32.2334650
 126.0968970  23.7924913  31.4202456 126.8934782  24.7387520  32.2931307
 122.8447061  23.9133507  31.2400832 123.7100058  23.7176316  30.8806722
 122.9124570  23.6843859  32.1670189 125.7190652  35.4816049  26.2510587
 125.1912014  34.7468809  25.9383825 125.2178155  36.2590725  26.0050556
 130.6983498  33.6765070  31.3677634 130.0407173  34.3664331  31.4557762
 131.5023897  34.0661501  31.7111620 120.4509380  26.1435715  28.6117199
 121.0253132  25.9210897  27.8790392 121.0380362  26.2124410  29.3645800
 129.5088957  32.0309442  29.4181575 130.0220839  32.6639434  29.9203285
 130.1590181  31.4310638  29.0524935 120.7778967  28.1740176  22.6313084
 119.9416279  28.5114863  22.9522359 120.6383737  28.0389156  21.6940221
 122.7532048  23.0176964  27.3392268 122.0996460  22.7025981  26.7148883
 122.7112522  22.3952705  28.0652091 126.7711331  42.0093767  22.1742247
 126.0973030  42.3125463  22.7827204 127.1577153  42.8122847  21.8247704
 125.9869788  29.5058898  31.6639916 125.0692349  29.7273845  31.5061604
 126.4029932  29.5805208  30.8051623 126.7704836  30.9050313  26.7942596
 127.5176655  31.4171711  26.4849718 127.0396425  30.5834366  27.6546990
 125.0431486  33.4008854  23.7769551 124.1342705  33.1167887  23.8742020
 125.0726570  33.8207933  22.9172857 130.2750753  37.0115444  27.5460718
 129.8213080  36.1706354  27.6025909 129.6444720  37.6476842  27.8835498
 128.7183693  38.8491940  28.4810536 129.0106667  39.4096997  27.7622902
 129.2282313  39.1420501  29.2363695 115.6119656  31.1214368  27.7584753
 115.4144056  30.5283729  27.0335819 115.0566320  30.8166578  28.4760692
 123.5916380  31.0137475  29.8779346 123.6464990  30.0611311  29.8021822
 122.7807582  31.1696914  30.3620644 121.5308740  29.6314535  27.6369725
 120.7176605  29.9308705  28.0434917 122.0267734  29.2370223  28.3544207
 123.6817318  39.6272291  29.5703989 123.6393497  39.8533138  28.6412521
 124.5980017  39.3935666  29.7189791 127.1282952  30.0956359  36.4684619
 127.4832339  30.3227832  37.3279084 127.7755083  30.4274736  35.8461874
 121.0222815  27.2032890  33.2530960 121.6622194  27.0621649  32.5553923
 120.1900345  26.9167403  32.8769562 132.8850068  35.2851322  32.1845219
 133.3186575  35.1926611  33.0328273 133.5981649  35.2608822  31.5465235
 121.7983118  36.5035320  29.3665952 122.5923717  36.0085641  29.1648527
 121.0874811  35.9753184  29.0033658 126.6177963  38.8853416  33.7178320
 126.6714985  39.4544352  34.4856036 125.7492744  39.0555301  33.3532357
 118.1065882  30.6478402  25.4425705 117.1763470  30.5862858  25.6595667
 118.2023354  30.1254355  24.6462346 118.0251431  27.1733215  28.0303946
 118.2858248  28.0878548  27.9213107 118.8468603  26.7057658  28.1800559
 119.4976356  28.5870972  35.2002771 120.1699410  28.3788334  34.5515420
 118.6706143  28.3893058  34.7608003 133.7465618  35.3275023  34.7178105
 133.9401508  36.2320833  34.9637379 133.6466236  34.8682442  35.5516690
 125.4001928  25.2132913  37.2168432 124.7529843  25.9122863  37.1232908
 126.1702944  25.6469057  37.5844680 128.8080726  35.4781765  40.2918985
 128.6566233  35.2492317  39.3749069 128.7985406  36.4352367  40.3050330
 125.5766063  33.0513678  35.2765252 126.5058123  33.2024838  35.1034219
 125.1557093  33.1397699  34.4213898 124.3754394  37.0764342  33.0463789
 124.2365480  36.7083127  33.9189727 123.5868991  37.5911982  32.8747747
 124.9702546  42.1773439  24.3889326 125.1454302  41.7061482  25.2034948
 124.2835334  42.8039205  24.6170586 125.9259610  36.4545945  30.4352627
 125.5909442  36.4146715  31.3310277 125.4263555  35.7890661  29.9623037
 119.9003854  31.8613575  35.9605208 119.7623652  31.1293814  36.5616747
 120.8108777  31.7722475  35.6789396 122.5286154  31.5733535  35.4488888
 123.2385773  30.9326727  35.4075506 122.4855462  31.8246429  36.3715069
 130.5172933  38.5100888  38.3695467 130.4585479  37.8260108  37.7026050
 130.9192451  39.2519878  37.9176093 121.2415088  28.5598752  37.2684527
 120.7052445  28.1089491  37.9206124 120.6531797  28.6944661  36.5254992
 119.5363632  45.3262802  31.1629186 119.7760230  45.9581326  31.8408205
 118.6932828  44.9750842  31.4494545 130.5190340  36.4740472  36.6009447
 129.6317119  36.1366394  36.7235846 131.0888891  35.7423503  36.8378212
 112.1719487  32.8064564  29.9252498 112.8590527  32.4926294  29.3373513
 112.0167616  33.7105928  29.6519750 116.9754209  27.6954760  34.3537522
 116.8912398  27.0880430  33.6187932 116.1536916  28.1863778  34.3547018
 124.0491494  41.1341924  33.5670690 123.9761665  41.9396896  34.0789994
 123.6068887  41.3333890  32.7418711 123.8381273  40.3713694  27.0773511
 123.0548795  40.9135374  27.1711736 124.5374018  40.8887674  27.4767753
 127.1477923  26.1808324  29.7207717 127.6446623  25.4278286  29.4008787
 126.3764905  26.2172640  29.1550926 135.0007681  31.8848689  31.3626008
 134.9897557  32.7673405  30.9919941 134.1325060  31.5320240  31.1680545
 126.5090177  41.0328758  35.7228849 127.2218149  41.6676223  35.6504750
 126.0180206  41.1292624  34.9068850 128.2307704  34.9380011  27.2946140
 127.2963983  35.0581473  27.1250845 128.4084372  34.0352478  27.0306150
 123.7312892  28.3225707  29.4479401 123.3610680  27.7696747  30.1360307
 124.2271985  27.7183840  28.8954401 121.5602091  38.7823202  36.5434419
 122.2611550  39.4159685  36.6963814 121.0897206  39.1237933  35.7830059
 129.6856486  37.1241151  24.8282326 129.9616330  37.0097746  25.7376201
 128.8160985  36.7258636  24.7894500 129.5896918  23.1477917  31.8687076
 128.6759998  23.3782144  32.0369283 130.0190020  23.2316361  32.7201108
 129.3603377  31.3367809  34.3686970 128.7074827  31.5843717  33.7139423
 129.7383757  30.5231947  34.0349447 126.3210551  41.3727502  28.4715140
 126.5032945  40.5549158  28.9342892 127.1443537  41.5895195  28.0340030
 126.6552716  40.2995687  25.7330189 127.1840482  39.7888142  25.1200351
 126.9180936  39.9838218  26.5975722 125.4090950  32.0787620  40.8553007
 124.7331587  31.9781749  41.5255382 126.2318584  31.9226834  41.3189004
 117.1569809  38.3159557  33.4765522 117.7423246  37.5703245  33.6093426
 116.9594647  38.6263513  34.3602186 120.0108464  41.3510804  28.4927964
 119.3418839  41.8356932  28.0092005 119.8721334  41.5980025  29.4071343
 111.7487463  30.8865157  32.1969965 111.7871563  30.3528748  32.9907083
 111.2427756  30.3600362  31.5780942 124.1513733  43.3854548  35.0910623
 124.7032041  43.5486169  35.8559708 124.4919926  43.9758985  34.4190648
 119.1278226  25.7329697  35.6932508 119.1919552  26.5944528  35.2809905
 119.0645346  25.1203699  34.9604866 118.6030498  27.8052830  39.3405542
 119.2302537  27.4229907  39.9543066 117.7458417  27.5867032  39.7061234
 129.0024607  38.2115805  40.9459277 129.5464511  38.8245763  40.4514232
 128.4211452  38.7695384  41.4626290 115.3796041  29.6129259  25.2723897
 115.6749482  28.7039937  25.2190950 114.4784077  29.5916998  24.9504899
 127.2882120  41.3336523  32.0774305 127.1633259  40.5326263  31.5685250
 127.9461211  41.8282716  31.5888275 118.9090288  27.6885256  31.2551445
 118.1876874  28.3021223  31.1158919 119.6983544  28.2243020  31.1768091
 129.3517028  39.1345543  33.7053855 128.4047364  39.0150894  33.6332182
 129.6999801  38.2468041  33.7880117 121.7116602  25.0239682  37.5292097
 122.2351003  25.2701979  38.2918406 121.4928935  25.8559717  37.1095234
 117.1083883  27.2943357  25.3963222 116.7796589  26.4140736  25.2138328
 117.4623253  27.2391025  26.2839611 126.3563461  38.9298259  29.9058207
 126.2088424  38.0014967  30.0865777 127.1816955  38.9518350  29.4215283
 120.2225706  27.5816327  25.7638699 120.5621778  28.1102248  25.0417308
 120.6697826  27.9196733  26.5397266 129.9597583  39.7526818  30.9923080
 130.8844131  39.5469679  30.8547531 129.7912887  39.5043219  31.9012422
 122.9169147  25.9653377  35.2141768 122.5765967  25.1661190  35.6162447
 122.2108153  26.2655088  34.6418601 123.5685618  23.0502690  33.6669091
 124.3911688  22.5763168  33.5447981 123.8123682  23.8293173  34.1667777
 121.0924197  29.7421810  31.4761069 120.9468778  30.0562113  32.3685351
 120.6149401  30.3606711  30.9231968 122.9520580  26.7324358  31.5241959
 122.9382149  25.8365452  31.1874257 123.6693008  26.7395022  32.1580245
 124.8046711  27.1661698  33.5695086 124.5464489  28.0878769  33.5679417
 124.2731751  26.7692133  34.2595550 129.7492900  40.2712486  26.3485172
 129.9229777  39.7058908  25.5959024 130.2421791  41.0713380  26.1664661
 115.5669859  32.2827155  34.4148730 115.0223327  33.0586963  34.5469005
 116.4449209  32.6297959  34.2567852 122.3557476  25.6138739  26.7929529
 122.4773387  24.6855385  26.9920416 122.0659518  25.6277425  25.8807844
 125.2248666  23.2993649  29.9296249 125.2470363  23.3632982  28.9748228
 125.6416725  22.4598158  30.1236755 130.7368072  39.5879250  23.4482070
 131.4318977  40.2085943  23.6669384 131.0791222  38.7374601  23.7234448
 116.3535881  31.4097051  37.3078887 115.6117617  31.5579686  37.8943518
 116.0328625  31.6705317  36.4445637 124.2979544  40.9513029  37.1059277
 124.6066670  40.7062176  37.9781977 125.0955026  41.1559668  36.6178147
 124.3200156  43.1050939  29.3364654 123.8805146  42.6127318  30.0297510
 125.0708273  42.5623906  29.0956729 116.7992495  39.2962480  29.3389282
 117.6250515  38.9966252  28.9587925 116.4486547  38.5270102  29.7879070
 121.7674028  38.6488948  31.4086955 121.1454037  37.9859653  31.1089183
 122.4378895  38.6750080  30.7260603 115.0001100  37.2148806  30.2978215
 114.1633008  36.7870980  30.1162217 114.9724745  37.4081249  31.2349007
 121.8398556  27.1270736  41.0019461 121.8886711  28.0032859  40.6197231
 122.3821070  26.5848129  40.4291105 132.3253401  37.6711859  40.2820599
 131.5348945  37.6535998  39.7425098 132.0886756  38.2100153  41.0369635
 132.4451276  34.5204326  37.5953327 132.4949281  34.3554333  38.5368850
 132.3365200  33.6531585  37.2051208 121.3287535  37.1992871  24.8845416
 121.4775655  37.8828336  24.2312089 122.1353978  37.1797961  25.3994872
 129.7355039  30.5035254  38.9112634 130.6364901  30.3641718  38.6196632
 129.8103013  30.6689708  39.8510811 124.0697844  27.8802108  37.7565820
 123.2001153  28.1735674  37.4848409 124.3057324  28.4642553  38.4773084
 133.9469473  36.9401267  37.8395349 133.6554281  37.3031248  38.6758810
 133.3341604  36.2268275  37.6608681 132.1956661  32.0633882  36.3075407
 132.6710783  32.2561528  35.4994258 131.2722227  32.1193068  36.0618790
 119.0840168  33.2258049  25.8906485 118.8386210  32.3220379  26.0886695
 119.2536082  33.2275199  24.9485963 126.7736878  24.0981725  35.2731240
 127.2918822  24.8342752  34.9477729 126.4192011  24.4045719  36.1078000
 118.3535815  28.9586406  23.3892646 117.6605060  29.0330761  22.7332682
 118.1087567  28.1946750  23.9114163 124.8282940  39.6941002  22.3557163
 124.2556908  40.3131189  21.9027635 125.4015734  40.2440363  22.8897085
 130.8958330  28.9399642  34.5403712 131.8475753  29.0397739  34.5615936
 130.7261781  28.1477910  35.0501797 128.9172710  26.0255225  34.7263113
 128.3222642  26.3060238  34.0309602 128.6322407  26.5149126  35.4979854
 128.0480200  39.9778152  23.4865746 128.9810873  39.9123713  23.6898621
 127.9603413  40.8134419  23.0280278 133.3746408  32.1605761  33.6546012
 133.3422728  31.2221762  33.8405696 133.9847032  32.2389798  32.9211837
 133.5240897  28.9516805  33.7004295 133.0079945  28.1675262  33.5134224
 134.4080845  28.6235522  33.8650815 137.2738255  31.3629631  33.3926500
 136.5471419  31.2285596  32.7842991 136.8585542  31.6706460  34.1983218
 125.0968432  35.0819561  41.1573873 126.0171441  35.2598160  41.3513919
 125.0618015  34.1375606  41.0053572 114.3150597  30.2758154  30.0827148
 113.9953381  29.4223462  29.7901522 113.7684025  30.4906732  30.8385115
 118.0930504  32.9920595  33.7996654 118.3116514  33.9237703  33.8184688
 118.5056278  32.6328570  34.5851458 122.9658369  28.5653801  43.1899403
 122.8655096  29.5148158  43.1211494 122.7479911  28.2372040  42.3175473
 114.1838857  33.8961066  32.0520269 113.4902328  33.4815019  31.5390224
 114.9311848  33.9381602  31.4553688 122.8289639  31.9950940  42.0064465
 122.3456721  32.7951300  42.2128354 122.9150578  32.0058885  41.0531909
 116.0975599  33.8279320  29.9286284 116.0746287  33.9267007  28.9768167
 116.4076236  34.6744470  30.2503450 118.7562977  35.8855475  34.0432898
 119.7106230  35.8539417  33.9762830 118.5575501  35.4246098  34.8583124
 119.3462359  34.4556591  36.6103696 120.1655248  34.9500669  36.6338533
 119.6199167  33.5388559  36.5821264 117.1113206  41.4275094  31.0603096
 116.9767674  40.6675495  30.4941094 116.6945268  42.1515994  30.5931885
 120.2682332  42.3244411  31.2721539 120.1514716  43.2689844  31.1700229
 119.4474778  42.0217973  31.6607338 114.5997273  28.7894724  37.3095893
 115.2456137  28.2793678  37.7983118 114.3914424  29.5263406  37.8839318
 127.1250665  35.8575572  42.8088034 127.9941825  36.0316224  42.4474669
 126.6457417  36.6769989  42.6863763 121.2936846  42.9772673  34.4877467
 122.1964092  43.0096283  34.8043962 121.0674216  42.0473124  34.5023803
 123.0490448  41.7303659  31.1487546 122.0986079  41.7305521  31.0351918
 123.3522934  40.9836394  30.6323581 118.9394764  25.9362342  41.4070907
 119.8026226  25.5799146  41.6174232 118.3660175  25.5976236  42.0946312
 138.7843141  47.5664198  32.2133308 139.4221551  47.4470945  31.5096648
 138.6663984  48.5145042  32.2721261 135.5932848  47.5191626  32.1494833
 135.2551359  47.4032691  31.2615368 136.4622616  47.1182791  32.1295839
 131.4519663  49.3727102  28.1391724 130.8884528  49.2817039  27.3708012
 131.3372058  48.5527007  28.6194217 136.0752630  48.6726478  38.1081039
 136.0641271  48.2779276  37.2361542 136.2373270  47.9392550  38.7014810
 128.9984095  50.8678294  30.9775944 129.7905387  50.5269119  30.5622244
 129.2380745  50.9773269  31.8978098 137.0319222  53.0398070  23.4506189
 136.3807202  53.6252151  23.0640203 137.8263585  53.5704265  23.5101226
 130.9574849  50.1287207  23.8493323 131.7305725  49.5816194  23.7106199
 131.3100248  50.9931457  24.0607785 132.7959892  51.4563590  37.0560223
 132.5049758  52.3609220  36.9406889 133.4316876  51.4980117  37.7704292
 133.7216098  48.8340438  33.6461582 134.3179671  48.6096460  32.9318545
 133.7791070  48.0925184  34.2487030 138.3384410  45.2915652  29.2886516
 139.1247499  44.8735075  28.9376933 138.6023114  46.1961744  29.4568165
 138.5094487  50.7288502  23.9875173 137.8740320  50.8023129  24.6996078
 138.1791893  51.3182101  23.3094252 133.0137416  48.1907979  23.6836148
 132.8973674  47.5152883  24.3517232 133.1239676  47.7040353  22.8668301
 135.3568957  47.6518126  27.3882837 134.9927164  47.1248747  28.0995759
 136.2136072  47.2616595  27.2149323 137.7549777  51.1425005  34.0510016
 137.4550500  52.0450044  33.9425823 137.4100836  50.8757188  34.9031169
 131.2062258  47.5938802  30.0846721 130.2812755  47.4615016  30.2924412
 131.4546671  48.3733021  30.5816663 141.1546921  43.6607545  31.7307454
 140.2463798  43.5922954  31.4366215 141.1034516  44.1379490  32.5589279
 134.9763664  45.1365684  23.3690853 134.8563290  45.5822734  24.2076333
 134.2816253  45.4851001  22.8104391 128.5671069  47.2372075  30.9190510
 128.6963450  47.4906554  31.8329921 127.8868521  47.8299783  30.5995165
 132.7370557  57.9069325  27.0180984 132.6594586  58.8577150  27.0969464
 132.1332200  57.5615198  27.6755910 135.2287786  45.0797191  39.6742351
 134.4521120  45.6391111  39.6645215 135.8678349  45.5653974  40.1957221
 133.4834159  47.8882644  39.2360318 134.2248843  48.4267688  38.9595141
 132.7771144  48.5148933  39.3931870 138.9589498  50.0311785  37.8332479
 139.3672854  49.5894195  37.0887112 138.2366760  49.4564412  38.0866672
 135.3120568  44.9684391  35.2066036 136.1581763  45.3923805  35.3500685
 135.2519206  44.3118016  35.9004599 139.2818313  50.5912975  31.5884768
 138.6527175  50.7558689  30.8860836 138.8943975  51.0054585  32.3595732
 138.4620014  42.6288760  36.8647210 138.2180945  43.3830820  36.3281486
 138.7379944  43.0074107  37.6994457 140.4158476  49.1727372  35.5424475
 140.6275372  49.8159132  34.8658857 140.3688225  48.3389689  35.0746406
 138.0184705  41.7845193  32.4461048 137.1569184  42.0826446  32.7377785
 138.0447140  42.0015592  31.5142080 134.8346275  50.3287383  28.8534853
 135.2984620  50.6075086  28.0639476 134.5703073  49.4270828  28.6707944
 131.7270356  49.8758865  31.7914617 132.2971713  50.3046133  31.1532101
 132.3178468  49.5941450  32.4898802 133.7715161  46.4510536  25.6624418
 134.4739204  46.9031579  26.1298345 133.4395789  45.8094355  26.2904312
 132.2195522  45.0422292  40.0375628 131.5894183  45.7238573  40.2711025
 132.1131610  44.9305374  39.0928766 127.5140495  44.7094088  30.9641552
 126.7239549  44.9651617  30.4881663 128.0051742  45.5242426  31.0693593
 129.4655240  45.0738668  27.9225029 128.6686403  45.1857362  28.4408524
 129.2380832  45.4125320  27.0565919 135.2960908  51.5983371  35.8707543
 135.3605340  52.0603778  36.7065715 134.5871832  50.9680736  35.9989853
 125.7978198  44.9624579  33.3956543 126.0486236  45.8471589  33.6614119
 126.3337746  44.7829180  32.6231635 135.0108925  53.2651478  25.7386524
 134.8754600  54.1103014  26.1671371 135.5518738  53.4670756  24.9752457
 131.4976265  39.3443058  42.4000879 131.1043211  38.7909257  43.0748523
 132.3142405  39.6553637  42.7907396 128.4638323  50.7826916  26.3114449
 128.9762843  51.5770167  26.4620013 129.1161036  50.0853207  26.2448050
 130.2733208  53.8992673  28.3937202 130.4499836  54.8210637  28.2058186
 131.0690041  53.5851092  28.8231582 134.4144226  40.7600937  39.9921135
 135.1553939  41.3608090  39.9125598 134.6462149  40.0178575  39.4339178
 129.5585564  45.9457305  38.2699365 129.4439079  45.0442562  38.5706464
 128.7030082  46.1921001  37.9184182 136.6377402  53.8875045  39.8686866
 136.1941256  53.1011423  39.5507770 137.2994615  54.0754195  39.2030757
 131.3964523  55.4170846  34.3947544 131.9471948  55.2887910  33.6224538
 130.5575999  55.7165735  34.0442437 138.7358640  54.1677845  37.8968267
 138.7177115  54.9886726  37.4048536 139.6578560  54.0431920  38.1218408
 135.1931694  51.6821974  38.7391775 135.7260031  50.9210262  38.5091083
 134.6645775  51.3895626  39.4815930 138.3601389  36.7882040  34.2685417
 138.0165658  37.6783682  34.1924528 138.7280352  36.5983698  33.4055002
 126.4287240  49.1115571  27.0874019 127.2662462  49.5212579  26.8707727
 126.6065507  48.1715013  27.0574213 135.9098783  41.6240352  27.8343091
 135.0540379  41.2347202  27.6548729 136.3225735  41.7032313  26.9742876
 137.4397929  39.1586695  32.2334650 136.9362725  39.1216831  31.4202456
 137.7328536  40.0679438  32.2931307 133.6840815  39.2425425  31.2400832
 134.5493812  39.0468234  30.8806722 133.7518324  39.0135777  32.1670189
 136.5584407  50.8107967  26.2510587 136.0305768  50.0760726  25.9383825
 136.0571909  51.5882643  26.0050556 131.2903134  41.4727633  28.6117199
 131.8646886  41.2502815  27.8790392 131.8774117  41.5416328  29.3645800
 140.3482712  47.3601360  29.4181575 140.8614593  47.9931352  29.9203285
 140.9983935  46.7602555  29.0524935 131.6172721  43.5032094  22.6313084
 130.7810034  43.8406781  22.9522359 131.4777491  43.3681074  21.6940221
 133.5925802  38.3468882  27.3392268 132.9390214  38.0317899  26.7148883
 133.5506276  37.7244622  28.0652091 137.6105086  57.3385684  22.1742247
 136.9366785  57.6417381  22.7827204 137.9970908  58.1414765  21.8247704
 136.8263542  44.8350815  31.6639916 135.9086104  45.0565762  31.5061604
 137.2423686  44.9097126  30.8051623 137.6098590  46.2342231  26.7942596
 138.3570409  46.7463628  26.4849718 137.8790180  45.9126284  27.6546990
 135.8825240  48.7300772  23.7769551 134.9736460  48.4459805  23.8742020
 135.9120324  49.1499850  22.9172857 141.1144508  52.3407361  27.5460718
 140.6606835  51.4998271  27.6025909 140.4838474  52.9768760  27.8835498
 139.5577447  54.1783858  28.4810536 139.8500421  54.7388915  27.7622902
 140.0676068  54.4712419  29.2363695 126.4513411  46.4506286  27.7584753
 126.2537811  45.8575647  27.0335819 125.8960075  46.1458496  28.4760692
 134.4310134  46.3429392  29.8779346 134.4858744  45.3903229  29.8021822
 133.6201336  46.4988832  30.3620644 132.3702494  44.9606452  27.6369725
 131.5570360  45.2600623  28.0434917 132.8661489  44.5662141  28.3544207
 134.5211072  54.9564209  29.5703989 134.4787251  55.1825055  28.6412521
 135.4373771  54.7227584  29.7189791 137.9676706  45.4248277  36.4684619
 138.3226094  45.6519750  37.3279084 138.6148837  45.7566653  35.8461874
 131.8616569  42.5324808  33.2530960 132.5015948  42.3913567  32.5553923
 131.0294100  42.2459321  32.8769562 132.6376873  51.8327238  29.3665952
 133.4317471  51.3377558  29.1648527 131.9268565  51.3045101  29.0033658
 137.4571717  54.2145334  33.7178320 137.5108740  54.7836270  34.4856036
 136.5886499  54.3847219  33.3532357 128.9459636  45.9770320  25.4425705
 128.0157225  45.9154775  25.6595667 129.0417108  45.4546273  24.6462346
 128.8645185  42.5025133  28.0303946 129.1252003  43.4170466  27.9213107
 129.6862358  42.0349575  28.1800559 130.3370111  43.9162890  35.2002771
 131.0093164  43.7080252  34.5515420 129.5099897  43.7184976  34.7608003
 136.2395683  40.5424831  37.2168432 135.5923598  41.2414780  37.1232908
 137.0096698  40.9760975  37.5844680 139.6474481  50.8073683  40.2918985
 139.4959987  50.5784235  39.3749069 139.6379160  51.7644284  40.3050330
 136.4159817  48.3805596  35.2765252 137.3451877  48.5316755  35.1034219
 135.9950847  48.4689617  34.4213898 135.2148149  52.4056260  33.0463789
 135.0759235  52.0375045  33.9189727 134.4262745  52.9203900  32.8747747
 135.8096301  57.5065357  24.3889326 135.9848057  57.0353400  25.2034948
 135.1229089  58.1331123  24.6170586 136.7653364  51.7837863  30.4352627
 136.4303197  51.7438633  31.3310277 136.2657310  51.1182579  29.9623037
 130.7397608  47.1905493  35.9605208 130.6017406  46.4585732  36.5616747
 131.6502532  47.1014393  35.6789396 133.3679909  46.9025452  35.4488888
 134.0779527  46.2618644  35.4075506 133.3249217  47.1538347  36.3715069
 132.0808843  43.8890670  37.2684527 131.5446200  43.4381409  37.9206124
 131.4925551  44.0236579  36.5254992 130.3757386  60.6554719  31.1629186
 130.6153984  61.2873244  31.8408205 129.5326583  60.3042759  31.4494545
 123.0113242  48.1356481  29.9252498 123.6984282  47.8218211  29.3373513
 122.8561371  49.0397846  29.6519750 127.8147964  43.0246678  34.3537522
 127.7306153  42.4172347  33.6187932 126.9930670  43.5155696  34.3547018
 134.8885248  56.4633842  33.5670690 134.8155420  57.2688813  34.0789994
 134.4462641  56.6625808  32.7418711 134.6775028  55.7005612  27.0773511
 133.8942550  56.2427292  27.1711736 135.3767773  56.2179591  27.4767753
 137.9871678  41.5100241  29.7207717 138.4840377  40.7570204  29.4008787
 137.2158659  41.5464558  29.1550926 137.3483932  56.3620676  35.7228849
 138.0611904  56.9968141  35.6504750 136.8573960  56.4584542  34.9068850
 139.0701459  50.2671929  27.2946140 138.1357737  50.3873391  27.1250845
 139.2478127  49.3644395  27.0306150 134.5706647  43.6517624  29.4479401
 134.2004434  43.0988665  30.1360307 135.0665739  43.0475758  28.8954401
 132.3995845  54.1115119  36.5434419 133.1005305  54.7451602  36.6963814
 131.9290960  54.4529851  35.7830059 140.5250241  52.4533069  24.8282326
 140.8010085  52.3389664  25.7376201 139.6554740  52.0550554  24.7894500
 140.4290673  38.4769835  31.8687076 139.5153752  38.7074062  32.0369283
 140.8583774  38.5608279  32.7201108 140.1997131  46.6659727  34.3686970
 139.5468581  46.9135634  33.7139423 140.5777511  45.8523865  34.0349447
 137.1604305  56.7019420  28.4715140 137.3426700  55.8841076  28.9342892
 137.9837291  56.9187112  28.0340030 137.4946470  55.6287605  25.7330189
 138.0234237  55.1180060  25.1200351 137.7574690  55.3130135  26.5975722
 136.2484704  47.4079538  40.8553007 135.5725341  47.3073667  41.5255382
 137.0712338  47.2518752  41.3189004 127.9963563  53.6451474  33.4765522
 128.5817000  52.8995162  33.6093426 127.7988402  53.9555431  34.3602186
 130.8502218  56.6802722  28.4927964 130.1812594  57.1648849  28.0092005
 130.7115088  56.9271942  29.4071343 122.5881218  46.2157075  32.1969965
 122.6265317  45.6820665  32.9907083 122.0821511  45.6892280  31.5780942
 134.9907487  58.7146465  35.0910623 135.5425795  58.8778087  35.8559708
 135.3313680  59.3050903  34.4190648 129.9671980  41.0621615  35.6932508
 130.0313307  41.9236446  35.2809905 129.9039100  40.4495617  34.9604866
 129.4424253  43.1344748  39.3405542 130.0696292  42.7521825  39.9543066
 128.5852172  42.9158950  39.7061234 139.8418361  53.5407723  40.9459277
 140.3858265  54.1537681  40.4514232 139.2605206  54.0987301  41.4626290
 126.2189796  44.9421177  25.2723897 126.5143237  44.0331855  25.2190950
 125.3177831  44.9208916  24.9504899 138.1275874  56.6628441  32.0774305
 138.0027014  55.8618181  31.5685250 138.7854965  57.1574634  31.5888275
 129.7484043  43.0177173  31.2551445 129.0270628  43.6313141  31.1158919
 130.5377298  43.5534938  31.1768091 140.1910783  54.4637461  33.7053855
 139.2441118  54.3442812  33.6332182 140.5393556  53.5759959  33.7880117
 132.5510356  40.3531600  37.5292097 133.0744758  40.5993896  38.2918406
 132.3322689  41.1851635  37.1095234 127.9477637  42.6235274  25.3963222
 127.6190343  41.7432653  25.2138328 128.3017008  42.5682943  26.2839611
 137.1957216  54.2590177  29.9058207 137.0482178  53.3306885  30.0865777
 138.0210709  54.2810268  29.4215283 131.0619460  42.9108244  25.7638699
 131.4015533  43.4394165  25.0417308 131.5091581  43.2488650  26.5397266
 133.7562901  41.2945295  35.2141768 133.4159721  40.4953108  35.6162447
 133.0501907  41.5947006  34.6418601 134.4079373  38.3794607  33.6669091
 135.2305442  37.9055086  33.5447981 134.6517436  39.1585091  34.1667777
 131.9317952  45.0713728  31.4761069 131.7862532  45.3854031  32.3685351
 131.4543155  45.6898628  30.9231968 133.7914335  42.0616276  31.5241959
 133.7775903  41.1657369  31.1874257 134.5086763  42.0686940  32.1580245
 135.6440465  42.4953616  33.5695086 135.3858243  43.4170687  33.5679417
 135.1125506  42.0984051  34.2595550 140.5886654  55.6004403  26.3485172
 140.7623532  55.0350826  25.5959024 141.0815545  56.4005298  26.1664661
 126.4063614  47.6119072  34.4148730 125.8617082  48.3878880  34.5469005
 127.2842964  47.9589877  34.2567852 133.1951230  40.9430656  26.7929529
 133.3167142  40.0147302  26.9920416 132.9053273  40.9569342  25.8807844
 136.0642421  38.6285567  29.9296249 136.0864118  38.6924900  28.9748228
 136.4810480  37.7890075  30.1236755 127.1929636  46.7388969  37.3078887
 126.4511372  46.8871604  37.8943518 126.8722380  46.9997234  36.4445637
 135.1373298  56.2804947  37.1059277 135.4460425  56.0354094  37.9781977
 135.9348780  56.4851585  36.6178147 135.1593910  58.4342856  29.3364654
 134.7198901  57.9419235  30.0297510 135.9102027  57.8915824  29.0956729
 127.6386249  54.6254397  29.3389282 128.4644269  54.3258169  28.9587925
 127.2880301  53.8562020  29.7879070 132.6067783  53.9780866  31.4086955
 131.9847792  53.3151571  31.1089183 133.2772649  54.0041997  30.7260603
 125.8394854  52.5440724  30.2978215 125.0026763  52.1162898  30.1162217
 125.8118500  52.7373167  31.2349007 132.6792310  42.4562654  41.0019461
 132.7280465  43.3324776  40.6197231 133.2214824  41.9140047  40.4291105
 132.1681289  52.5284789  24.8845416 132.3169410  53.2120253  24.2312089
 132.9747733  52.5089879  25.3994872 134.9091598  43.2094026  37.7565820
 134.0394908  43.5027592  37.4848409 135.1451079  43.7934471  38.4773084
 129.9233922  48.5549967  25.8906485 129.6779964  47.6512297  26.0886695
 130.0929837  48.5567117  24.9485963 137.6130632  39.4273643  35.2731240
 138.1312576  40.1634670  34.9477729 137.2585765  39.7337636  36.1078000
 129.1929570  44.2878324  23.3892646 128.4998815  44.3622679  22.7332682
 128.9481322  43.5238668  23.9114163 135.6676695  55.0232919  22.3557163
 135.0950662  55.6423107  21.9027635 136.2409489  55.5732281  22.8897085
 139.7566464  41.3547143  34.7263113 139.1616396  41.6352155  34.0309602
 139.4716161  41.8441044  35.4979854 138.8873955  55.3070070  23.4865746
 139.8204628  55.2415631  23.6898621 138.7997168  56.1426336  23.0280278
 135.9362186  50.4111478  41.1573873 136.8565195  50.5890077  41.3513919
 135.9011769  49.4667524  41.0053572 125.1544351  45.6050072  30.0827148
 124.8347135  44.7515380  29.7901522 124.6077779  45.8198650  30.8385115
 128.9324259  48.3212513  33.7996654 129.1510268  49.2529621  33.8184688
 129.3450032  47.9620487  34.5851458 133.8052124  43.8945719  43.1899403
 133.7048851  44.8440076  43.1211494 133.5873666  43.5663958  42.3175473
 125.0232611  49.2252983  32.0520269 124.3296082  48.8106936  31.5390224
 125.7705602  49.2673520  31.4553688 133.6683394  47.3242858  42.0064465
 133.1850476  48.1243218  42.2128354 133.7544333  47.3350802  41.0531909
 126.9369354  49.1571237  29.9286284 126.9140042  49.2558924  28.9768167
 127.2469990  50.0036388  30.2503450 129.5956731  51.2147392  34.0432898
 130.5499985  51.1831335  33.9762830 129.3969255  50.7538016  34.8583124
 130.1856114  49.7848508  36.6103696 131.0049003  50.2792587  36.6338533
 130.4592921  48.8680476  36.5821264 127.9506960  56.7567012  31.0603096
 127.8161428  55.9967413  30.4941094 127.5339022  57.4807912  30.5931885
 131.1076086  57.6536329  31.2721539 130.9908470  58.5981761  31.1700229
 130.2868532  57.3509890  31.6607338 125.4391028  44.1186642  37.3095893
 126.0849891  43.6085596  37.7983118 125.2308179  44.8555324  37.8839318
 137.9644420  51.1867490  42.8088034 138.8335580  51.3608142  42.4474669
 137.4851171  52.0061906  42.6863763 132.1330600  58.3064591  34.4877467
 133.0357847  58.3388201  34.8043962 131.9067970  57.3765042  34.5023803
 133.8884202  57.0595577  31.1487546 132.9379833  57.0597439  31.0351918
 134.1916688  56.3128312  30.6323581 129.7788519  41.2654259  41.4070907
 130.6419980  40.9091064  41.6174232 129.2053929  40.9268154  42.0946312
 139.8377850  66.1970212  30.9775944 140.6299142  65.8561036  30.5622244
 140.0774500  66.3065187  31.8978098 139.4064824  62.5663993  30.9190510
 139.5357205  62.8198472  31.8329921 138.7262275  63.1591701  30.5995165
 138.3534249  60.0386006  30.9641552 137.5633303  60.2943535  30.4881663
 138.8445497  60.8534344  31.0693593 140.3048995  60.4030585  27.9225029
 139.5080158  60.5149280  28.4408524 140.0774587  60.7417238  27.0565919
 136.6371952  60.2916496  33.3956543 136.8879991  61.1763506  33.6614119
 137.1731501  60.1121098  32.6231635 139.3032077  66.1118834  26.3114449
 139.8156598  66.9062084  26.4620013 139.9554790  65.4145124  26.2448050
 140.3979319  61.2749222  38.2699365 140.2832834  60.3734479  38.5706464
 139.5423836  61.5212919  37.9184182 137.2680994  64.4407488  27.0874019
 138.1056216  64.8504497  26.8707727 137.4459262  63.5006931  27.0574213
 137.2907165  61.7798204  27.7584753 137.0931565  61.1867564  27.0335819
 136.7353829  61.4750414  28.4760692 139.7853391  61.3062238  25.4425705
 138.8550979  61.2446693  25.6595667 139.8810863  60.7838190  24.6462346
 139.7038940  57.8317050  28.0303946 139.9645757  58.7462384  27.9213107
 140.5256112  57.3641493  28.1800559 133.8506996  63.4648399  29.9252498
 134.5378036  63.1510129  29.3373513 133.6955125  64.3689764  29.6519750
 138.6541718  58.3538595  34.3537522 138.5699907  57.7464265  33.6187932
 137.8324425  58.8447614  34.3547018 138.8357318  68.9743392  33.4765522
 139.4210755  68.2287080  33.6093426 138.6382156  69.2847349  34.3602186
 133.4274972  61.5448992  32.1969965 133.4659072  61.0112583  32.9907083
 132.9215265  61.0184198  31.5780942 140.8065735  56.3913533  35.6932508
 140.8707061  57.2528364  35.2809905 140.7432855  55.7787534  34.9604866
 140.2818007  58.4636665  39.3405542 140.9090046  58.0813743  39.9543066
 139.4245926  58.2450867  39.7061234 137.0583550  60.2713094  25.2723897
 137.3536991  59.3623773  25.2190950 136.1571586  60.2500834  24.9504899
 138.7871392  57.9527192  25.3963222 138.4584098  57.0724571  25.2138328
 139.1410762  57.8974861  26.2839611 137.2457368  62.9410990  34.4148730
 136.7010836  63.7170798  34.5469005 138.1236718  63.2881795  34.2567852
 138.0323390  62.0680886  37.3078887 137.2905126  62.2163522  37.8943518
 137.7116134  62.3289152  36.4445637 138.4780004  69.9546315  29.3389282
 139.3038024  69.6550087  28.9587925 138.1274056  69.1853937  29.7879070
 136.6788609  67.8732641  30.2978215 135.8420517  67.4454816  30.1162217
 136.6512254  68.0665085  31.2349007 140.7627677  63.8841884  25.8906485
 140.5173719  62.9804214  26.0886695 140.9323591  63.8859035  24.9485963
 140.0323324  59.6170242  23.3892646 139.3392569  59.6914597  22.7332682
 139.7875076  58.8530585  23.9114163 135.9938105  60.9341990  30.0827148
 135.6740890  60.0807298  29.7901522 135.4471534  61.1490568  30.8385115
 139.7718013  63.6504431  33.7996654 139.9904023  64.5821538  33.8184688
 140.1843787  63.2912405  34.5851458 135.8626365  64.5544901  32.0520269
 135.1689837  64.1398854  31.5390224 136.6099356  64.5965438  31.4553688
 137.7763108  64.4863155  29.9286284 137.7533796  64.5850842  28.9768167
 138.0863745  65.3328306  30.2503450 138.7900715  72.0858929  31.0603096
 138.6555183  71.3259330  30.4941094 138.3732777  72.8099829  30.5931885
 136.2784782  59.4478560  37.3095893 136.9243646  58.9377514  37.7983118
 136.0701933  60.1847241  37.8839318   2.2488728  59.1913378 121.8711982
   1.5639766  59.5712280 121.3209016   2.3332577  59.8008705 122.6043930
   2.3867129  57.1968971 117.6393876   1.6096571  56.8580131 117.1949038
   3.0658610  57.2021594 116.9648841   2.7855626  56.2112678 120.1016798
   2.6473524  56.4014274 119.1737987   2.4291845  56.9732060 120.5584849
   5.5307228  56.0286791 120.8958322   5.9738374  55.2794116 120.4977445
   4.6533738  56.0196928 120.5132054   0.6643009  62.5817133 116.3764920
   1.3593914  63.2023825 116.5952235   1.0066159  61.7312484 116.6517298
   2.5634432  60.0316838 117.9052251   3.0885757  60.3704111 117.1801571
   2.4756785  59.0963854 117.7215386   0.6043154  62.2881905 113.3752544
   0.5256786  61.9541769 114.2688302   1.4252821  62.7803673 113.3744016
   8.7118079  70.5602081 125.1416159   9.3496488  70.4408828 124.4379499
   8.5938921  71.5082925 125.2004111   5.5207785  70.5129509 125.0777684
   5.1826296  70.3970573 124.1898218   6.3897553  70.1120674 125.0578690
   1.3794600  72.3664985 121.0674574   0.8159466  72.2754922 120.2990862
   1.2646996  71.5464890 121.5477067   6.9594159  76.0335953 116.3789039
   6.3082139  76.6190033 115.9923053   7.7538522  76.5642148 116.4384077
   0.8849786  73.1225090 116.7776174   1.6580662  72.5754077 116.6389050
   1.2375185  73.9869339 116.9890635   3.6491036  71.8278321 126.5744433
   4.2454608  71.6034343 125.8601396   3.7066007  71.0863066 127.1769881
   3.2216064  69.2817756 114.4094624   3.4741585  68.7599277 113.6478087
   2.2840623  69.1183902 114.5121307   8.2659347  68.2853534 122.2169367
   9.0522436  67.8672958 121.8659784   8.5298051  69.1899627 122.3851015
   8.4369424  73.7226385 116.9158024   7.8015257  73.7961011 117.6278928
   8.1066831  74.3119984 116.2377103  13.6667774  68.2228768 123.1202345
  14.3992946  67.6527984 123.3540175  12.9107130  67.8350368 123.5608851
   2.9412353  71.1845862 116.6118999   2.8248611  70.5090765 117.2800083
   3.0514613  70.6978236 115.7951152   5.2843894  70.6456009 120.3165688
   4.9202101  70.1186630 121.0278609   6.1411010  70.2554478 120.1432173
   4.9249381  65.6745909 115.3127036   5.0923783  66.5426145 115.6797507
   4.7346550  65.8373191 114.3888326   7.6824714  74.1362888 126.9792867
   7.3825437  75.0387927 126.8708674   7.3375774  73.8695071 127.8314020
  11.0821858  66.6545428 124.6590304  10.1738735  66.5860836 124.3649065
  11.0309454  67.1317373 125.4872130   4.9038602  68.1303566 116.2973703
   4.7838227  68.5760617 117.1359183   4.2091190  68.4788884 115.7387241
   2.6645494  80.9007208 119.9463834   2.5869524  81.8515033 120.0252315
   2.0607137  80.5553081 120.6038761  12.9483504  64.8561866 126.4368178
  12.3057884  65.1494400 125.7907973  12.4438433  64.7414787 127.2421375
  10.6023668  68.6025040 117.1254037  11.5141524  68.8352426 116.9501735
  10.0933315  69.1862084 116.5629116   8.8864436  73.0249667 130.7615330
   9.2947792  72.5832078 130.0169962   8.1641697  72.4502295 131.0149523
   9.2093250  73.5850858 124.5167619   8.5802113  73.7496572 123.8143687
   8.8218912  73.9992468 125.2878583  13.0882482  74.5205296 121.8711982
  12.4033520  74.9004197 121.3209016  13.1726331  75.1300622 122.6043930
  10.3433414  72.1665255 128.4707326  10.5550309  72.8097015 127.7941707
  10.2963162  71.3327571 128.0029256   7.9459643  64.7783076 125.3743898
   7.0844122  65.0764329 125.6660636   7.9722077  64.9953474 124.4424931
   4.7621212  73.3225266 121.7817704   5.2259558  73.6012969 120.9922326
   4.4978010  72.4208711 121.5990794   1.6545293  72.8696748 124.7197467
   2.2246650  73.2984016 124.0814952   2.2453405  72.5879332 125.4181653
   3.6990098  69.4448418 118.5907269   4.4014141  69.8969462 119.0581195
   3.3670727  68.8032237 119.2187162  11.4579242  75.0437210 126.6429683
  12.2796685  74.6417398 126.3612365  11.4541645  74.9405444 127.5945799
  19.5485235  71.3875959 122.9914655  18.7948943  70.8183357 122.8358659
  19.6832776  71.3538623 123.9385289   4.9383863  76.2589361 118.6669374
   4.8029538  77.1040897 119.0954222   5.4793675  76.4608639 117.9035308
   8.6633577  77.1615728 130.8251117   8.6452053  77.9824609 130.3331387
   9.5853497  77.0369803 131.0501259   8.2526609  69.7728534 115.7040703
   7.7373232  70.5433139 115.9429090   7.9803917  69.0993670 116.3273764
   5.8373720  64.6178235 120.7625941   4.9815316  64.2285085 120.5831580
   6.2500672  64.6970196 119.9025727   7.3672867  62.1524578 125.1617501
   6.8637662  62.1154713 124.3485306   7.6603474  63.0617321 125.2214158
  13.2260883  72.5260889 117.6393876  12.4490326  72.1872048 117.1949038
  13.9052364  72.5313512 116.9648841   8.0412912  67.6455626 117.5300484
   7.7363048  67.9601775 118.3810627   8.9943354  67.7237046 117.5727817
   6.4859344  73.8045849 119.1793438   5.9580706  73.0698609 118.8666675
   5.9846847  74.5820526 118.9333406  11.4652190  71.9994870 124.2960484
  10.8075865  72.6894131 124.3840613  12.2692589  72.3891302 124.6394471
   1.2178072  64.4665516 121.5400049   1.7921824  64.2440697 120.8073242
   1.8049054  64.5354210 122.2928651  10.2757649  70.3539243 122.3464426
  10.7889531  70.9869234 122.8486136  10.9258873  69.7540438 121.9807786
   1.5447659  66.4969977 115.5595935   0.7084971  66.8344663 115.8805209
   1.4052428  66.3618957 114.6223072   3.5200739  61.3406765 120.2675119
   2.8665152  61.0255782 119.6431734   3.4781214  60.7182505 120.9934942
   4.6311944  71.6226060 112.1828411   3.7239006  71.3915313 112.3819560
   5.1282976  70.8263679 112.3702392   7.5380023  80.3323567 115.1025097
   6.8641722  80.6355264 115.7110055   7.9245845  81.1352647 114.7530554
   6.7538480  67.8288698 124.5922766   5.8361041  68.0503645 124.4344455
   7.1698623  67.9035009 123.7334474   7.5373527  69.2280114 119.7225447
   8.2845346  69.7401511 119.4132569   7.8065117  68.9064167 120.5829840
   5.8100178  71.7238655 116.7052401   4.9011397  71.4397687 116.8024871
   5.8395261  72.1437733 115.8455708  11.0419445  75.3345244 120.4743569
  10.5881772  74.4936154 120.5308759  10.4113412  75.9706642 120.8118349
   9.9852365  66.2637230 121.7044236   9.2475121  65.7514616 122.0354479
  10.2379138  65.8237612 120.8927513   9.4852384  77.1721741 121.4093387
   9.7775359  77.7326798 120.6905752   9.9951005  77.4650302 122.1646546
  10.0863992  59.0413482 122.2986005  10.3922869  58.1810846 122.0111920
  10.8116597  59.6331102 122.0984999   4.3585072  69.3367275 122.8062196
   4.4133681  68.3841112 122.7304673   3.5476274  69.4926714 123.2903495
   5.5076265  73.2647398 114.0440480   5.0695695  72.5483257 113.5846117
   6.2486706  73.4923513 113.4825571   2.2977432  67.9544335 120.5652575
   1.4845297  68.2538506 120.9717767   2.7936426  67.5600024 121.2827057
   4.4486010  77.9502092 122.4986840   4.4062188  78.1762938 121.5695372
   5.3648708  77.7165466 122.6472641  13.6249380  71.5404595 120.1016798
  13.4867279  71.7306191 119.1737987  13.2685599  72.3023978 120.5584849
  13.6518760  73.6081122 125.1128070  14.0855267  73.5156411 125.9611124
  14.3650341  73.5838623 124.4748086   2.5651810  74.8265121 122.2948803
   3.3592409  74.3315441 122.0931378   1.8543503  74.2982984 121.9316508
   7.3846655  77.2083216 126.6461170   7.4383677  77.7774153 127.4138886
   6.5161436  77.3785101 126.2815207  14.5134309  73.6504823 127.6460955
  14.7070200  74.5550633 127.8920230  14.4134928  73.1912242 128.4799540
   9.5749418  73.8011566 133.2201836   9.4234925  73.5722117 132.3031919
   9.5654098  74.7582167 133.2333181   6.3434755  71.3743478 128.2048102
   7.2726815  71.5254638 128.0317069   5.9225785  71.4627499 127.3496749
   5.1423086  75.3994143 125.9746640   5.0034172  75.0312927 126.8472578
   4.3537683  75.9141782 125.8030598   5.7371238  80.5003239 117.3172176
   5.9122994  80.0291283 118.1317799   5.0504026  81.1269006 117.5453437
   6.6928301  74.7775746 123.3635477   6.3578134  74.7376516 124.2593127
   6.1932247  74.1120461 122.8905888   9.6287493  72.1231780 113.6372537
   9.0116664  71.3978608 113.5405590   9.1603982  72.8841140 113.2939611
  11.2841625  76.8330688 131.2978318  11.2254171  76.1489908 130.6308901
  11.6861143  77.5749678 130.8458943   1.4186039  66.3417204 112.7593841
   0.5415505  66.2206005 112.3956088   1.8943792  65.5503283 112.5072730
  11.2859032  74.7970272 129.5292297  10.3985811  74.4596194 129.6518696
  11.8557583  74.0653303 129.7661063   4.6049965  78.6943495 120.0056362
   3.8217487  79.2365175 120.0994586   5.3042710  79.2117474 120.4050603
   7.9146615  64.5038124 122.6490567   8.4115315  63.7508086 122.3291638
   7.1433597  64.5402441 122.0833777  15.7676373  70.2078490 124.2908859
  15.7566249  71.0903205 123.9202792  14.8993752  69.8550040 124.0963396
   7.2758869  79.3558559 128.6511699   7.9886841  79.9906023 128.5787601
   6.7848898  79.4522425 127.8351701   8.9976396  73.2609811 120.2228991
   8.0632675  73.3811274 120.0533695   9.1753064  72.3582278 119.9589001
   4.4981584  66.6455507 122.3762252   4.1279371  66.0926547 123.0643157
   4.9940676  66.0413641 121.8237252  12.3848947  69.1027131 120.7579025
  12.8509399  69.9355122 120.6839328  12.8356448  68.6372112 121.4624283
  10.4525178  75.4470952 117.7565177  10.7285022  75.3327546 118.6659051
   9.5829677  75.0488437 117.7177350  10.3565610  61.4707718 124.7969926
   9.4428690  61.7011944 124.9652133  10.7858711  61.5546162 125.6483959
  10.1272068  69.6597609 127.2969820   9.4743519  69.9073517 126.6422273
  10.5052448  68.8461748 126.9632298   7.0879242  79.6957303 121.3997991
   7.2701637  78.8778959 121.8625743   7.9112228  79.9124995 120.9622881
   7.4221408  78.6225488 118.6613039   7.9509174  78.1117942 118.0483201
   7.6849627  78.3068018 119.5258572   8.0550812  79.6566324 125.0057155
   7.9301951  78.8556063 124.4968101   8.7129903  80.1512517 124.5171125
  10.1185720  77.4575344 126.6336706   9.1716056  77.3380695 126.5615032
  10.4668493  76.5697842 126.7162967   7.1232153  77.2528060 122.8341058
   6.9757116  76.3244767 123.0148628   7.9485647  77.2748151 122.3498133
   0.9894398  65.9046127 118.6921550   1.3290470  66.4332048 117.9700158
   1.4366518  66.2426533 119.4680116  10.7266275  78.0756619 123.9205931
  11.6512823  77.8699480 123.7830382  10.5581579  77.8273020 124.8295272
   2.9762545  64.4020749 116.8914843   3.6970907  64.7802001 116.3878560
   2.3527849  65.1209625 116.9949821   7.1193668  65.1065897 117.8273175
   7.3357282  65.9890535 117.5262003   6.6387735  64.7152111 117.0978817
   1.8592889  68.0651611 124.4043920   1.7137470  68.3791914 125.2968201
   1.3818093  68.6836511 123.8514818   3.7189272  65.0554159 124.4524809
   3.7050841  64.1595252 124.1157107   4.4361700  65.0624822 125.0863095
  10.5161591  78.5942286 119.2768022  10.6898469  78.0288708 118.5241874
  11.0090483  79.3943181 119.0947512   3.1226168  63.9368539 119.7212379
   3.2442079  63.0085185 119.9203267   2.8328210  63.9507225 118.8090695
   5.9917358  61.6223449 122.8579099   6.0139055  61.6862782 121.9031079
   6.4085417  60.7827958 123.0519605  16.3700983  71.3578709 120.8958322
  16.8132129  70.6086034 120.4977445  15.4927493  71.3488845 120.5132054
  11.5036764  77.9109050 116.3764920  12.1987668  78.5315743 116.5952235
  11.8459914  77.0604402 116.6517298  13.4028187  75.3608756 117.9052251
  13.9279511  75.6996029 117.1801571  13.3150540  74.4255771 117.7215386
   5.0868848  81.4280739 122.2647504   4.6473838  80.9357118 122.9580361
   5.8376965  80.8853707 122.0239579   2.5342720  76.9718748 124.3369806
   1.9122729  76.3089453 124.0372034   3.2047587  76.9979880 123.6543454
  13.0922093  75.9941660 133.2103449  12.3017637  75.9765798 132.6707948
  12.8555448  76.5329953 133.9652486  13.2119968  72.8434126 130.5236178
  13.2617973  72.6784133 131.4651700  13.1033891  71.9761385 130.1334058
   2.0956227  75.5222672 117.8128266   2.2444347  76.2058136 117.1594939
   2.9022670  75.5027762 118.3277722  14.7138165  75.2631067 130.7678199
  14.4222973  75.6261048 131.6041660  14.1010296  74.5498076 130.5891531
  15.9133847  72.8283947 123.2880769  16.7480739  73.2673751 123.4518330
  16.0492976  72.3522600 122.4689015  12.9625353  70.3863682 129.2358257
  13.4379475  70.5791328 128.4277108  12.0390919  70.4422868 128.9901641
   5.5951632  78.0170802 115.2840014   5.0225599  78.6360989 114.8310486
   6.1684426  78.5670164 115.8179936  11.6627022  67.2629442 127.4686563
  12.6144445  67.3627540 127.4898787  11.4930473  66.4707711 127.9784647
   9.6841402  64.3485025 127.6545964   9.0891334  64.6290038 126.9592452
   9.3991098  64.8378926 128.4262705   8.8148892  78.3007952 116.4148596
   9.7479565  78.2353514 116.6181472   8.7272105  79.1364219 115.9563129
  11.4436909  77.6173823 113.3752544  11.3650540  77.2833686 114.2688302
  12.2646576  78.1095590 113.3744016  14.1415100  70.4835562 126.5828862
  14.1091420  69.5451563 126.7688546  14.7515724  70.5619599 125.8494687
   5.9798431  69.3531615 112.6256066   6.9257536  69.2237823 112.6944484
   5.6012676  68.6146277 113.1025495  14.2909588  67.2746605 126.6287146
  13.7748637  66.4905062 126.4417074  15.1749537  66.9465322 126.7933665
  11.9520315  61.0187621 122.5882958  11.7545136  60.7102709 123.4726290
  12.5620021  61.7449260 122.7180888  19.9591650  71.5451569 125.7234899
  20.6895038  71.2836857 126.2842602  19.3498595  70.8080291 125.7636967
  18.0406947  69.6859431 126.3209350  17.3140110  69.5515396 125.7125842
  17.6254234  69.9936260 127.1266068   4.1641348  67.2781591 112.5610952
   3.2572803  66.9814704 112.6373665   4.4417329  66.9811409 111.6945238
   5.7803414  61.8218481 118.7155193   4.9704142  61.4765566 119.0910439
   6.4687831  61.5126025 119.3042804   7.7093962  60.8996528 120.3379490
   8.2625001  61.3191981 120.9969513   7.9464048  59.9732276 120.3802446
   2.9340133  64.1368526 112.7022931   3.7959297  64.4623425 112.9618748
   3.1190477  63.3500022 112.1895997  11.0872769  63.0097053 119.8458154
  10.5071438  63.6681857 119.4636206  10.8208702  62.1874398 119.4345571
   9.5376335  62.4102111 122.0479474  10.0376114  62.5218645 121.2393793
  10.1811943  62.1063163 122.6880283   9.8697647  65.1697143 118.9014502
   8.9823502  65.4546794 118.6834697  10.2851636  65.0090907 118.0541779
  13.2212183  65.1943664 122.6168841  13.9972573  65.6840117 122.8893458
  12.4960317  65.6201718 123.0740711  15.6584742  65.9071284 123.6742782
  16.2529233  65.6667019 122.9636090  15.7311326  65.1878414 124.3016318
   9.0140861  74.9341818 112.9962522   9.7176711  75.1391820 113.6120178
   8.2903509  75.5018580 113.2611606   9.8438671  70.6851679 119.1164792
   9.7873872  71.1420231 118.2772425  10.3967013  69.9242364 118.9387635
  13.6543477  66.4741411 119.9414912  13.3980411  66.0738047 120.7723119
  13.0296345  67.1885205 119.8165051  17.9655815  69.2137484 122.4486203
  17.4055373  69.2830674 123.2217765  17.3599318  69.0378469 121.7285699
  10.9227558  75.3724347 115.0460982  11.7573162  74.9405546 114.8638457
  10.7611901  75.2006361 115.9737877  10.5773450  71.8756460 116.4117321
  10.5222254  71.7100732 115.4705765   9.9519505  72.5832493 116.5679511
   3.8869576  61.3764569 115.9902640   3.8748245  62.3206409 116.1470911
   4.7792997  61.1934715 115.6962101   3.8159140  80.0533460 124.0770396
   2.8654771  80.0535322 123.9634769   4.1191626  79.3066194 123.5606431
   7.7021695  57.9707346 120.2448577   6.9354091  57.4165833 120.3905259
   8.1132400  58.0429215 121.1062728  19.5511833  85.8893998 125.1416159
  20.1890243  85.7700746 124.4379499  19.4332676  86.8374842 125.2004111
  16.3601539  85.8421426 125.0777684  16.0220051  85.7262491 124.1898218
  17.2291307  85.4412591 125.0578690  12.2188355  87.6956903 121.0674574
  11.6553220  87.6046840 120.2990862  12.1040750  86.8756807 121.5477067
  16.8421322  86.9956278 131.0363889  16.8309963  86.6009076 130.1644393
  17.0041962  86.2622351 131.6297660   9.7652787  89.1908094 123.9058795
  10.5574079  88.8498919 123.4905094  10.0049437  89.3003069 124.8260948
  17.7987914  91.3627871 116.3789039  17.1475893  91.9481951 115.9923053
  18.5932277  91.8934065 116.4384077  11.7243541  88.4517008 116.7776174
  12.4974417  87.9045995 116.6389050  12.0768940  89.3161257 116.9890635
  14.4884790  87.1570238 126.5744433  15.0848363  86.9326261 125.8601396
  14.5459762  86.4154984 127.1769881  14.0609819  84.6109674 114.4094624
  14.3135339  84.0891195 113.6478087  13.1234378  84.4475819 114.5121307
  19.1053102  83.6145452 122.2169367  19.8916191  83.1964875 121.8659784
  19.3691806  84.5191544 122.3851015  19.2763179  89.0518302 116.9158024
  18.6409012  89.1252929 117.6278928  18.9460585  89.6411901 116.2377103
  24.5061529  83.5520685 123.1202345  25.2386701  82.9819902 123.3540175
  23.7500884  83.1642286 123.5608851  13.7806107  86.5137780 116.6118999
  13.6642366  85.8382683 117.2800083  13.8908367  86.0270154 115.7951152
  16.1237648  85.9747927 120.3165688  15.7595856  85.4478548 121.0278609
  16.9804764  85.5846396 120.1432173  22.0286949  77.2642259 127.5796954
  21.6970274  78.1337670 127.3558169  21.4332562  76.9478543 128.2590984
  15.7643135  81.0037827 115.3127036  15.9317538  81.8718063 115.6797507
  15.5740304  81.1665108 114.3888326  18.5218469  89.4654805 126.9792867
  18.2219192  90.3679844 126.8708674  18.1769528  89.1986989 127.8314020
  11.9730950  85.9168602 123.0129571  11.0481446  85.7844816 123.2207263
  12.2215363  86.6962822 123.5099514  21.9215612  81.9837346 124.6590304
  21.0132490  81.9152754 124.3649065  21.8703208  82.4609291 125.4872130
  15.7432356  83.4595484 116.2973703  15.6231981  83.9052535 117.1359183
  15.0484945  83.8080802 115.7387241   9.3339761  85.5601876 123.8473360
   9.4632142  85.8136355 124.7612772   8.6537212  86.1529584 123.5278015
  13.5039248  96.2299126 119.9463834  13.4263278  97.1806951 120.0252315
  12.9000892  95.8844998 120.6038761  23.7877259  80.1853784 126.4368178
  23.1451639  80.4786317 125.7907973  23.2832187  80.0706704 127.2421375
  21.4417422  83.9316957 117.1254037  22.3535278  84.1644344 116.9501735
  20.9327069  84.5154001 116.5629116  19.7258190  88.3541585 130.7615330
  20.1341546  87.9123996 130.0169962  19.0035452  87.7794213 131.0149523
  16.0789260  83.2914192 128.1348887  16.9250455  83.7153605 128.2783536
  16.0187898  82.6347816 128.8287450  20.0487005  88.9142776 124.5167619
  19.4195867  89.0788490 123.8143687  19.6612667  89.3284385 125.2878583
  23.9276237  89.8497214 121.8711982  23.2427275  90.2296115 121.3209016
  24.0120086  90.4592540 122.6043930  19.2288705  80.9518560 129.7930060
  18.9849637  81.7060621 129.2564336  19.5048636  81.3303908 130.6277307
  21.1827168  87.4957173 128.4707326  21.3944063  88.1388932 127.7941707
  21.1356916  86.6619489 128.0029256  18.7853397  80.1074993 125.3743898
  17.9237876  80.4056247 125.6660636  18.8115832  80.3245392 124.4424931
  15.6014967  88.6517184 121.7817704  16.0653312  88.9304887 120.9922326
  15.3371765  87.7500628 121.5990794  12.4939048  88.1988665 124.7197467
  13.0640405  88.6275934 124.0814952  13.0847159  87.9171250 125.4181653
  14.5383853  84.7740336 118.5907269  15.2407896  85.2261380 119.0581195
  14.2064481  84.1324155 119.2187162   8.2809187  83.0323889 123.8924402
   7.4908241  83.2881417 123.4164513   8.7720434  83.8472227 123.9976443
  22.2972996  90.3729128 126.6429683  23.1190440  89.9709315 126.3612365
  22.2935399  90.2697362 127.5945799  10.2323932  83.3968468 120.8507879
   9.4355095  83.5087162 121.3691375  10.0049524  83.7355120 119.9848770
  30.3878989  86.7167876 122.9914655  29.6342698  86.1475275 122.8358659
  30.5226530  86.6830541 123.9385289  15.7777617  91.5881279 118.6669374
  15.6423292  92.4332814 119.0954222  16.3187430  91.7900556 117.9035308
   9.2307015  89.1056717 119.2397299   9.7431535  89.8999967 119.3902864
   9.8829727  88.4083007 119.1730901  11.0401899  92.2222473 121.3220052
  11.2168528  93.1440438 121.1341036  11.8358733  91.9080892 121.7514432
  15.1812918  79.0830738 132.9203986  15.9222631  79.6837891 132.8408448
  15.4130841  78.3408375 132.3622028  19.5027332  92.4907645 130.8251117
  19.4845807  93.3116526 130.3331387  20.4247252  92.3661720 131.0501259
  19.1270081  75.1111841 127.1968268  18.7834350  76.0013482 127.1207378
  19.4949043  74.9213498 126.3337853   7.1955931  87.4345371 120.0156870
   8.0331153  87.8442379 119.7990577   7.3734199  86.4944813 119.9857064
  19.0920364  85.1020452 115.7040703  18.5766987  85.8725056 115.9429090
  18.8197672  84.4285588 116.3273764  16.6767475  79.9470153 120.7625941
  15.8209071  79.5577003 120.5831580  17.0894426  80.0262113 119.9025727
  18.2066621  77.4816496 125.1617501  17.7031417  77.4446631 124.3485306
  18.4997228  78.3909238 125.2214158  14.4509507  77.5655226 124.1683683
  15.3162504  77.3698034 123.8089572  14.5187016  77.3365577 125.0953039
  24.0654638  87.8552806 117.6393876  23.2884080  87.5163966 117.1949038
  24.7446119  87.8605430 116.9648841  18.8806667  82.9747544 117.5300484
  18.5756802  83.2893693 118.3810627  19.8337109  83.0528964 117.5727817
  17.3253099  89.1337767 119.1793438  16.7974460  88.3990527 118.8666675
  16.8240601  89.9112443 118.9333406  22.3045945  87.3286788 124.2960484
  21.6469619  88.0186049 124.3840613  23.1086344  87.7183220 124.6394471
  12.0571826  79.7957433 121.5400049  12.6315578  79.5732615 120.8073242
  12.6442809  79.8646128 122.2928651  21.1151403  85.6831160 122.3464426
  21.6283285  86.3161152 122.8486136  21.7652627  85.0832356 121.9807786
  12.3841413  81.8261894 115.5595935  11.5478726  82.1636581 115.8805209
  12.2446183  81.6910874 114.6223072  14.3594494  76.6698682 120.2675119
  13.7058906  76.3547700 119.6431734  14.3174968  76.0474423 120.9934942
  15.4705699  86.9517977 112.1828411  14.5632760  86.7207231 112.3819560
  15.9676731  86.1555597 112.3702392  18.3773778  95.6615485 115.1025097
  17.7035476  95.9647181 115.7110055  18.7639600  96.4644565 114.7530554
  17.5932234  83.1580616 124.5922766  16.6754796  83.3795563 124.4344455
  18.0092378  83.2326926 123.7334474  18.3767282  84.5572032 119.7225447
  19.1239101  85.0693429 119.4132569  18.6458872  84.2356084 120.5829840
  16.6493932  87.0530572 116.7052401  15.7405151  86.7689605 116.8024871
  16.6789016  87.4729651 115.8455708  21.8813200  90.6637162 120.4743569
  21.4275527  89.8228072 120.5308759  21.2507166  91.2998560 120.8118349
  20.8246119  81.5929148 121.7044236  20.0868876  81.0806534 122.0354479
  21.0772893  81.1529529 120.8927513  20.3246139  92.5013658 121.4093387
  20.6169113  93.0618716 120.6905752  20.8344759  92.7942219 122.1646546
  20.9257746  74.3705400 122.2986005  21.2316623  73.5102763 122.0111920
  21.6510351  74.9623020 122.0984999   7.2182103  84.7736086 120.6867603
   7.0206502  84.1805447 119.9618670   6.6628767  84.4688297 121.4043542
  15.1978826  84.6659193 122.8062196  15.2527436  83.7133029 122.7304673
  14.3870028  84.8218632 123.2903495  16.3470020  88.5939316 114.0440480
  15.9089450  87.8775175 113.5846117  17.0880461  88.8215431 113.4825571
  13.1371186  83.2836253 120.5652575  12.3239052  83.5830423 120.9717767
  13.6330180  82.8891941 121.2827057  15.2879764  93.2794010 122.4986840
  15.2455943  93.5054856 121.5695372  16.2042463  93.0457384 122.6472641
  18.7345398  83.7478077 129.3967469  19.0894786  83.9749550 130.2561935
  19.3817529  84.0796454 128.7744724  24.4643135  86.8696513 120.1016798
  24.3261033  87.0598109 119.1737987  24.1079354  87.6315896 120.5584849
  12.6285261  80.8554608 126.1813810  13.2684640  80.7143367 125.4836773
  11.7962791  80.5689122 125.8052412  24.4912514  88.9373040 125.1128070
  24.9249021  88.8448329 125.9611124  25.2044095  88.9130540 124.4748086
  13.4045565  90.1557039 122.2948803  14.1986163  89.6607359 122.0931378
  12.6937257  89.6274902 121.9316508  18.2240409  92.5375134 126.6461170
  18.2777432  93.1066070 127.4138886  17.3555191  92.7077019 126.2815207
   9.7128328  84.3000120 118.3708555   8.7825916  84.2384576 118.5878517
   9.8085800  83.7776073 117.5745197   9.6313877  80.8254933 120.9586797
   9.8920695  81.7400266 120.8495957  10.4531050  80.3579376 121.1083410
  11.1038803  82.2392690 128.1285621  11.7761856  82.0310052 127.4798270
  10.2768589  82.0414776 127.6890854  25.3528064  88.9796741 127.6460955
  25.5463954  89.8842551 127.8920230  25.2528682  88.5204160 128.4799540
  17.0064375  78.8654631 130.1451282  16.3592290  79.5644581 130.0515759
  17.7765390  79.2990775 130.5127531  20.4143173  89.1303483 133.2201836
  20.2628679  88.9014035 132.3031919  20.4047852  90.0874085 133.2333181
  17.1828509  86.7035396 128.2048102  18.1120569  86.8546556 128.0317069
  16.7619539  86.7919417 127.3496749  15.9816841  90.7286061 125.9746640
  15.8427926  90.3604845 126.8472578  15.1931437  91.2433700 125.8030598
  16.5764993  95.8295157 117.3172176  16.7516748  95.3583200 118.1317799
  15.8897781  96.4560923 117.5453437  17.5322056  90.1067663 123.3635477
  17.1971889  90.0668433 124.2593127  17.0326002  89.4412379 122.8905888
  20.4681248  87.4523698 113.6372537  19.8510418  86.7270526 113.5405590
  19.9997736  88.2133058 113.2939611  14.1348601  85.2255253 128.3771738
  14.8448219  84.5848445 128.3358357  14.0917909  85.4768147 129.2997919
  22.1235379  92.1622606 131.2978318  22.0647925  91.4781826 130.6308901
  22.5254898  92.9041596 130.8458943  12.8477535  82.2120470 130.1967378
  12.3114892  81.7611209 130.8488974  12.2594243  82.3466379 129.4537842
  12.2579793  81.6709122 112.7593841  11.3809260  81.5497923 112.3956088
  12.7337547  80.8795200 112.5072730  22.1252787  90.1262190 129.5292297
  21.2379565  89.7888112 129.6518696  22.6951338  89.3945221 129.7661063
   8.5816656  81.3476478 127.2820372   8.4974844  80.7402148 126.5470782
   7.7599362  81.8385496 127.2829869  15.4443720  94.0235412 120.0056362
  14.6611241  94.5657092 120.0994586  16.1436465  94.5409392 120.4050603
  18.7540370  79.8330042 122.6490567  19.2509069  79.0800004 122.3291638
  17.9827351  79.8694358 122.0833777  26.6070127  85.5370407 124.2908859
  26.5960003  86.4195123 123.9202792  25.7387506  85.1841958 124.0963396
  18.1152623  94.6850476 128.6511699  18.8280596  95.3197941 128.5787601
  17.6242652  94.7814342 127.8351701  19.8370150  88.5901729 120.2228991
  18.9026429  88.7103191 120.0533695  20.0146819  87.6874196 119.9589001
  15.3375338  81.9747425 122.3762252  14.9673126  81.4218465 123.0643157
  15.8334431  81.3705558 121.8237252  23.2242702  84.4319048 120.7579025
  23.6903154  85.2647040 120.6839328  23.6750202  83.9664030 121.4624283
  21.2918933  90.7762870 117.7565177  21.5678777  90.6619464 118.6659051
  20.4223432  90.3780354 117.7177350  21.1959364  76.7999635 124.7969926
  20.2822444  77.0303862 124.9652133  21.6252466  76.8838079 125.6483959
  20.9665823  84.9889527 127.2969820  20.3137273  85.2365435 126.6422273
  21.3446203  84.1753665 126.9632298  17.9272997  95.0249220 121.3997991
  18.1095391  94.2070876 121.8625743  18.7505983  95.2416913 120.9622881
  18.2615162  93.9517405 118.6613039  18.7902929  93.4409860 118.0483201
  18.5243382  93.6359936 119.5258572  11.6170910  95.0032522 121.4210815
  10.9481285  95.4878650 120.9374855  11.4783780  95.2501743 122.3354193
  10.7340672  79.3851415 128.6215358  10.7981999  80.2466246 128.2092756
  10.6707792  78.7725417 127.8887717   6.9858487  83.2650977 118.2006747
   7.2811928  82.3561656 118.1473801   6.0846523  83.2438717 117.8787749
  18.8944566  94.9858241 125.0057155  18.7695706  94.1847981 124.4968101
  19.5523657  95.4804435 124.5171125  10.5152734  81.3406974 124.1834296
   9.7939320  81.9542941 124.0441769  11.3045990  81.8764739 124.1050942
  20.9579474  92.7867261 126.6336706  20.0109810  92.6672612 126.5615032
  21.3062248  91.8989759 126.7162967  13.3179048  78.6761400 130.4574947
  13.8413450  78.9223697 131.2201257  13.0991381  79.5081435 130.0378085
   8.7146329  80.9465075 118.3246072   8.3859035  80.0662454 118.1421178
   9.0685700  80.8912743 119.2122461  17.9625908  92.5819978 122.8341058
  17.8150870  91.6536685 123.0148628  18.7879401  92.6040068 122.3498133
  11.8288152  81.2338045 118.6921550  12.1684225  81.7623966 117.9700158
  12.2760273  81.5718451 119.4680116  21.5660030  93.4048536 123.9205931
  22.4906577  93.1991398 123.7830382  21.3975333  93.1564937 124.8295272
  14.5231593  79.6175095 128.1424618  14.1828413  78.8182908 128.5445298
  13.8170599  79.9176806 127.5701451  15.1748065  76.7024408 126.5951941
  15.9974134  76.2284886 126.4730831  15.4186128  77.4814891 127.0950627
  13.8156299  79.7312666 116.8914843  14.5364662  80.1093919 116.3878560
  13.1921603  80.4501543 116.9949821  17.9587422  80.4357815 117.8273175
  18.1751036  81.3182453 117.5262003  17.4781489  80.0444029 117.0978817
  12.6986643  83.3943528 124.4043920  12.5531224  83.7083831 125.2968201
  12.2211847  84.0128429 123.8514818  14.5583026  80.3846076 124.4524809
  14.5444595  79.4887170 124.1157107  15.2755454  80.3916740 125.0863095
  16.4109157  80.8183417 126.4977937  16.1526935  81.7400487 126.4962267
  15.8794197  80.4213851 127.1878401  21.3555346  93.9234204 119.2768022
  21.5292223  93.3580626 118.5241874  21.8484237  94.7235099 119.0947512
  13.9619922  79.2660457 119.7212379  14.0835833  78.3377103 119.9203267
  13.6721965  79.2799143 118.8090695  16.8311113  76.9515367 122.8579099
  16.8532810  77.0154700 121.9031079  17.2479172  76.1119876 123.0519605
  27.2094737  86.6870627 120.8958322  27.6525883  85.9377952 120.4977445
  26.3321247  86.6780763 120.5132054  22.3430518  93.2400968 116.3764920
  23.0381423  93.8607661 116.5952235  22.6853668  92.3896319 116.6517298
  24.2421941  90.6900674 117.9052251  24.7673266  91.0287946 117.1801571
  24.1544294  89.7547689 117.7215386  15.9262602  96.7572657 122.2647504
  15.4867592  96.2649036 122.9580361  16.6770719  96.2145625 122.0239579
  13.3736474  92.3010666 124.3369806  12.7516484  91.6381371 124.0372034
  14.0441341  92.3271798 123.6543454  23.9315848  91.3233577 133.2103449
  23.1411391  91.3057716 132.6707948  23.6949202  91.8621871 133.9652486
  24.0513723  88.1726044 130.5236178  24.1011727  88.0076051 131.4651700
  23.9427646  87.3053303 130.1334058  12.9349981  90.8514589 117.8128266
  13.0838102  91.5350054 117.1594939  13.7416425  90.8319679 118.3277722
  21.3417485  84.1556972 131.8395484  22.2427348  84.0163437 131.5479482
  21.4165459  84.3211427 132.7793662  15.6760290  81.5323826 130.6848671
  14.8063600  81.8257392 130.4131259  15.9119771  82.1164271 131.4055934
  25.5531919  90.5922985 130.7678199  25.2616728  90.9552966 131.6041660
  24.9404051  89.8789993 130.5891531  26.7527602  88.1575865 123.2880769
  27.5874493  88.5965669 123.4518330  26.8886730  87.6814518 122.4689015
  23.8019108  85.7155600 129.2358257  24.2773229  85.9083246 128.4277108
  22.8784673  85.7714786 128.9901641  10.6902614  86.8779767 118.8189335
  10.4448656  85.9742097 119.0169545  10.8598529  86.8796917 117.8768813
  18.3799324  77.7503443 128.2014091  18.8981268  78.4864470 127.8760580
  18.0254457  78.0567437 129.0360850   9.9598262  82.6108125 116.3175497
   9.2667507  82.6852480 115.6615533   9.7150014  81.8468468 116.8397014
  18.6311918  74.1703726 123.7214988  18.9113672  73.5026915 124.3475414
  19.4162525  74.3632821 123.2089651  16.4345387  93.3462720 115.2840014
  15.8619354  93.9652907 114.8310486  17.0078180  93.8962081 115.8179936
  22.5020777  82.5921360 127.4686563  23.4538200  82.6919458 127.4898787
  22.3324227  81.7999628 127.9784647  20.5235156  79.6776943 127.6545964
  19.9285088  79.9581956 126.9592452  20.2384853  80.1670844 128.4262705
  19.6542647  93.6299870 116.4148596  20.5873320  93.5645432 116.6181472
  19.5665859  94.4656137 115.9563129  22.2830663  92.9465740 113.3752544
  22.2044295  92.6125604 114.2688302  23.1040330  93.4387508 113.3744016
  24.9808854  85.8127480 126.5828862  24.9485175  84.8743480 126.7688546
  25.5909478  85.8911516 125.8494687  16.8192185  84.6823533 112.6256066
  17.7651290  84.5529741 112.6944484  16.4406430  83.9438194 113.1025495
  25.1303343  82.6038523 126.6287146  24.6142392  81.8196980 126.4417074
  26.0143291  82.2757240 126.7933665  22.7914070  76.3479539 122.5882958
  22.5938891  76.0394627 123.4726290  23.4013775  77.0741177 122.7180888
  30.7985404  86.8743486 125.7234899  31.5288793  86.6128775 126.2842602
  30.1892350  86.1372208 125.7636967  28.8800701  85.0151349 126.3209350
  28.1533865  84.8807314 125.7125842  28.4647988  85.3228178 127.1266068
  15.0035102  82.6073509 112.5610952  14.0966558  82.3106622 112.6373665
  15.2811083  82.3103327 111.6945238   5.9213043  83.9279872 123.0109998
   5.6015827  83.0745181 122.7184372   5.3746471  84.1428450 123.7667965
  16.6197168  77.1510399 118.7155193  15.8097896  76.8057484 119.0910439
  17.3081585  76.8417942 119.3042804  18.5487716  76.2288445 120.3379490
  19.1018755  76.6483899 120.9969513  18.7857803  75.3024194 120.3802446
  13.7733887  79.4660444 112.7022931  14.6353051  79.7915342 112.9618748
  13.9584231  78.6791940 112.1895997  21.9266524  78.3388971 119.8458154
  21.3465193  78.9973775 119.4636206  21.6602456  77.5166315 119.4345571
  20.3770090  77.7394028 122.0479474  20.8769868  77.8510563 121.2393793
  21.0205698  77.4355081 122.6880283   7.7038045  87.4801038 122.8569134
   7.6808733  87.5788725 121.9051018   8.0138682  88.3266188 123.1786301
  20.7091402  80.4989061 118.9014502  19.8217257  80.7838712 118.6834697
  21.1245391  80.3382824 118.0541779  24.0605938  80.5235582 122.6168841
  24.8366328  81.0132034 122.8893458  23.3354072  80.9493636 123.0740711
  26.4978496  81.2363201 123.6742782  27.0922987  80.9958937 122.9636090
  26.5705080  80.5170332 124.3016318  19.8534615  90.2633736 112.9962522
  20.5570465  90.4683738 113.6120178  19.1297264  90.8310498 113.2611606
  20.6832425  86.0143597 119.1164792  20.6267627  86.4712148 118.2772425
  21.2360768  85.2534282 118.9387635  24.4937231  81.8033329 119.9414912
  24.2374165  81.4029964 120.7723119  23.8690099  82.5177123 119.8165051
  28.8049569  84.5429402 122.4486203  28.2449127  84.6122591 123.2217765
  28.1993072  84.3670387 121.7285699  21.7621312  90.7016265 115.0460982
  22.5966916  90.2697463 114.8638457  21.6005655  90.5298279 115.9737877
  21.4167205  87.2048378 116.4117321  21.3616008  87.0392650 115.4705765
  20.7913260  87.9124411 116.5679511  14.7263330  76.7056487 115.9902640
  14.7142000  77.6498327 116.1470911  15.6186752  76.5226633 115.6962101
  14.6552894  95.3825378 124.0770396  13.7048525  95.3827239 123.9634769
  14.9585380  94.6358112 123.5606431  18.5415450  73.2999264 120.2448577
  17.7747845  72.7457751 120.3905259  18.9526154  73.3721133 121.1062728
  30.3905588 101.2185916 125.1416159  31.0283997 101.0992663 124.4379499
  30.2726430 102.1666760 125.2004111  27.1995294 101.1713344 125.0777684
  26.8613805 101.0554409 124.1898218  28.0685062 100.7704509 125.0578690
  23.0582109 103.0248820 121.0674574  22.4946975 102.9338757 120.2990862
  22.9434505 102.2048725 121.5477067  27.6815077 102.3248196 131.0363889
  27.6703718 101.9300994 130.1644393  27.8435716 101.5914268 131.6297660
  20.6046541 104.5200012 123.9058795  21.3967833 104.1790837 123.4905094
  20.8443192 104.6294987 124.8260948  28.6381668 106.6919788 116.3789039
  27.9869648 107.2773869 115.9923053  29.4326031 107.2225983 116.4384077
  22.5637295 103.7808925 116.7776174  23.3368171 103.2337912 116.6389050
  22.9162694 104.6453175 116.9890635  25.3278545 102.4862156 126.5744433
  25.9242117 102.2618179 125.8601396  25.3853516 101.7446902 127.1769881
  24.9003573  99.9401591 114.4094624  25.1529094  99.4183113 113.6478087
  23.9628132  99.7767737 114.5121307  29.9446856  98.9437370 122.2169367
  30.7309945  98.5256793 121.8659784  30.2085560  99.8483462 122.3851015
  30.1156933 104.3810220 116.9158024  29.4802766 104.4544847 117.6278928
  29.7854340 104.9703819 116.2377103  35.3455283  98.8812603 123.1202345
  36.0780455  98.3111820 123.3540175  34.5894639  98.4934203 123.5608851
  24.6199862 101.8429697 116.6118999  24.5036120 101.1674601 117.2800083
  24.7302122 101.3562071 115.7951152  26.9631403 101.3039845 120.3165688
  26.5989610 100.7770465 121.0278609  27.8198519 100.9138314 120.1432173
  32.8680703  92.5934177 127.5796954  32.5364028  93.4629588 127.3558169
  32.2726317  92.2770461 128.2590984  26.6036890  96.3329744 115.3127036
  26.7711292  97.2009981 115.6797507  26.4134059  96.4957026 114.3888326
  29.3612223 104.7946723 126.9792867  29.0612946 105.6971762 126.8708674
  29.0163283 104.5278906 127.8314020  22.8124704 101.2460520 123.0129571
  21.8875201 101.1136734 123.2207263  23.0609118 102.0254739 123.5099514
  32.7609367  97.3129263 124.6590304  31.8526244  97.2444672 124.3649065
  32.7096963  97.7901208 125.4872130  26.5826111  98.7887402 116.2973703
  26.4625736  99.2344452 117.1359183  25.8878699  99.1372719 115.7387241
  20.1733516 100.8893794 123.8473360  20.3025897 101.1428272 124.7612772
  19.4930967 101.4821502 123.5278015  24.3433003 111.5591043 119.9463834
  24.2657033 112.5098869 120.0252315  23.7394646 111.2136916 120.6038761
  34.6271013  95.5145702 126.4368178  33.9845393  95.8078235 125.7907973
  34.1225942  95.3998622 127.2421375  32.2811177  99.2608875 117.1254037
  33.1929033  99.4936262 116.9501735  31.7720824  99.8445919 116.5629116
  30.5651945 103.6833503 130.7615330  30.9735301 103.2415913 130.0169962
  29.8429206 103.1086130 131.0149523  26.9183015  98.6206109 128.1348887
  27.7644210  99.0445523 128.2783536  26.8581652  97.9639734 128.8287450
  30.8880759 104.2434693 124.5167619  30.2589622 104.4080407 123.8143687
  30.5006421 104.6576303 125.2878583  34.7669991 105.1789131 121.8711982
  34.0821029 105.5588033 121.3209016  34.8513840 105.7884458 122.6043930
  30.0682460  96.2810478 129.7930060  29.8243392  97.0352538 129.2564336
  30.3442390  96.6595825 130.6277307  32.0220923 102.8249090 128.4707326
  32.2337818 103.4680850 127.7941707  31.9750671 101.9911407 128.0029256
  29.6247152  95.4366911 125.3743898  28.7631631  95.7348164 125.6660636
  29.6509586  95.6537310 124.4424931  26.4408721 103.9809101 121.7817704
  26.9047067 104.2596804 120.9922326  26.1765519 103.0792546 121.5990794
  23.3332802 103.5280583 124.7197467  23.9034159 103.9567851 124.0814952
  23.9240914 103.2463168 125.4181653  25.3777607 100.1032254 118.5907269
  26.0801650 100.5553297 119.0581195  25.0458236  99.4616073 119.2187162
  19.1202941  98.3615806 123.8924402  18.3301995  98.6173335 123.4164513
  19.6114188  99.1764144 123.9976443  33.1366751 105.7021046 126.6429683
  33.9584194 105.3001233 126.3612365  33.1329153 105.5989280 127.5945799
  21.0717686  98.7260386 120.8507879  20.2748850  98.8379080 121.3691375
  20.8443279  99.0647038 119.9848770  41.2272744 102.0459794 122.9914655
  40.4736452 101.4767192 122.8358659  41.3620285 102.0122459 123.9385289
  26.6171372 106.9173196 118.6669374  26.4817047 107.7624732 119.0954222
  27.1581184 107.1192474 117.9035308  20.0700769 104.4348634 119.2397299
  20.5825290 105.2291885 119.3902864  20.7223482 103.7374925 119.1730901
  21.8795654 107.5514391 121.3220052  22.0562282 108.4732355 121.1341036
  22.6752487 107.2372810 121.7514432  26.0206672  94.4122655 132.9203986
  26.7616386  95.0129808 132.8408448  26.2524595  93.6700293 132.3622028
  30.3421086 107.8199563 130.8251117  30.3239562 108.6408444 130.3331387
  31.2641006 107.6953638 131.0501259  29.9663835  90.4403758 127.1968268
  29.6228105  91.3305400 127.1207378  30.3342798  90.2505416 126.3337853
  18.0349686 102.7637289 120.0156870  18.8724908 103.1734297 119.7990577
  18.2127954 101.8236731 119.9857064  29.9314118 100.4312369 115.7040703
  29.4160741 101.2016974 115.9429090  29.6591426  99.7577506 116.3273764
  27.5161229  95.2762070 120.7625941  26.6602825  94.8868921 120.5831580
  27.9288181  95.3554031 119.9025727  29.0460376  92.8108413 125.1617501
  28.5425171  92.7738549 124.3485306  29.3390983  93.7201156 125.2214158
  25.2903262  92.8947143 124.1683683  26.1556258  92.6989952 123.8089572
  25.3580770  92.6657495 125.0953039  34.9048392 103.1844724 117.6393876
  34.1277835 102.8455884 117.1949038  35.5839873 103.1897347 116.9648841
  29.7200421  98.3039462 117.5300484  29.4150557  98.6185611 118.3810627
  30.6730863  98.3820881 117.5727817  28.1646853 104.4629685 119.1793438
  27.6368215 103.7282444 118.8666675  27.6634356 105.2404361 118.9333406
  33.1439699 102.6578705 124.2960484  32.4863373 103.3477967 124.3840613
  33.9480098 103.0475137 124.6394471  22.8965581  95.1249351 121.5400049
  23.4709333  94.9024533 120.8073242  23.4836563  95.1938046 122.2928651
  31.9545158 101.0123078 122.3464426  32.4677040 101.6453070 122.8486136
  32.6046382 100.4124274 121.9807786  23.2235168  97.1553812 115.5595935
  22.3872480  97.4928499 115.8805209  23.0839937  97.0202792 114.6223072
  25.1988248  91.9990600 120.2675119  24.5452661  91.6839617 119.6431734
  25.1568722  91.3766340 120.9934942  26.3099453 102.2809895 112.1828411
  25.4026515 102.0499149 112.3819560  26.8070485 101.4847514 112.3702392
  29.2167532 110.9907402 115.1025097  28.5429231 111.2939099 115.7110055
  29.6033354 111.7936483 114.7530554  28.4325989  98.4872534 124.5922766
  27.5148550  98.7087481 124.4344455  28.8486132  98.5618844 123.7334474
  29.2161036  99.8863949 119.7225447  29.9632855 100.3985346 119.4132569
  29.4852626  99.5648002 120.5829840  27.4887687 102.3822490 116.7052401
  26.5798906 102.0981523 116.8024871  27.5182770 102.8021569 115.8455708
  32.7206954 105.9929079 120.4743569  32.2669281 105.1519989 120.5308759
  32.0900921 106.6290478 120.8118349  31.6639874  96.9221065 121.7044236
  30.9262630  96.4098452 122.0354479  31.9166647  96.4821447 120.8927513
  31.1639893 107.8305576 121.4093387  31.4562868 108.3910633 120.6905752
  31.6738514 108.1234137 122.1646546  31.7651501  89.6997317 122.2986005
  32.0710378  88.8394681 122.0111920  32.4904106  90.2914938 122.0984999
  18.0575857 100.1028004 120.6867603  17.8600257  99.5097365 119.9618670
  17.5022521  99.7980214 121.4043542  26.0372581  99.9951111 122.8062196
  26.0921190  99.0424947 122.7304673  25.2263783 100.1510550 123.2903495
  27.1863774 103.9231234 114.0440480  26.7483204 103.2067093 113.5846117
  27.9274215 104.1507348 113.4825571  23.9764941  98.6128170 120.5652575
  23.1632806  98.9122341 120.9717767  24.4723935  98.2183859 121.2827057
  26.1273518 108.6085927 122.4986840  26.0849697 108.8346774 121.5695372
  27.0436217 108.3749302 122.6472641  29.5739152  99.0769995 129.3967469
  29.9288540  99.3041468 130.2561935  30.2211284  99.4088372 128.7744724
  35.3036889 102.1988431 120.1016798  35.1654788 102.3890027 119.1737987
  34.9473108 102.9607813 120.5584849  23.4679015  96.1846526 126.1813810
  24.1078395  96.0435285 125.4836773  22.6356546  95.8981039 125.8052412
  35.3306269 104.2664958 125.1128070  35.7642776 104.1740247 125.9611124
  36.0437850 104.2422458 124.4748086  24.2439319 105.4848956 122.2948803
  25.0379918 104.9899276 122.0931378  23.5331012 104.9566819 121.9316508
  29.0634164 107.8667052 126.6461170  29.1171186 108.4357988 127.4138886
  28.1948945 108.0368937 126.2815207  20.5522083  99.6292038 118.3708555
  19.6219671  99.5676493 118.5878517  20.6479555  99.1067991 117.5745197
  20.4707632  96.1546851 120.9586797  20.7314449  97.0692184 120.8495957
  21.2924804  95.6871293 121.1083410  21.9432557  97.5684608 128.1285621
  22.6155611  97.3601970 127.4798270  21.1162344  97.3706694 127.6890854
  36.1921818 104.3088658 127.6460955  36.3857708 105.2134469 127.8920230
  36.0922437 103.8496077 128.4799540  27.8458129  94.1946549 130.1451282
  27.1986044  94.8936499 130.0515759  28.6159145  94.6282693 130.5127531
  31.2536927 104.4595401 133.2201836  31.1022433 104.2305953 132.3031919
  31.2441607 105.4166002 133.2333181  28.0222263 102.0327314 128.2048102
  28.9514323 102.1838473 128.0317069  27.6013293 102.1211335 127.3496749
  26.8210595 106.0577978 125.9746640  26.6821681 105.6896763 126.8472578
  26.0325191 106.5725618 125.8030598  27.4158747 111.1587075 117.3172176
  27.5910503 110.6875118 118.1317799  26.7291535 111.7852841 117.5453437
  28.3715810 105.4359581 123.3635477  28.0365643 105.3960351 124.2593127
  27.8719756 104.7704297 122.8905888  31.3075002 102.7815615 113.6372537
  30.6904173 102.0562443 113.5405590  30.8391491 103.5424976 113.2939611
  24.9742355 100.5547170 128.3771738  25.6841974  99.9140362 128.3358357
  24.9311663 100.8060065 129.2997919  32.9629134 107.4914524 131.2978318
  32.9041680 106.8073744 130.6308901  33.3648652 108.2333514 130.8458943
  23.6871289  97.5412388 130.1967378  23.1508646  97.0903127 130.8488974
  23.0987997  97.6758297 129.4537842  23.0973548  97.0001040 112.7593841
  22.2203014  96.8789840 112.3956088  23.5731301  96.2087118 112.5072730
  32.9646541 105.4554108 129.5292297  32.0773320 105.1180029 129.6518696
  33.5345092 104.7237139 129.7661063  19.4210410  96.6768396 127.2820372
  19.3368599  96.0694065 126.5470782  18.5993117  97.1677414 127.2829869
  26.2837474 109.3527330 120.0056362  25.5004996 109.8949010 120.0994586
  26.9830219 109.8701310 120.4050603  29.5934124  95.1621959 122.6490567
  30.0902824  94.4091922 122.3291638  28.8221106  95.1986276 122.0833777
  37.4463882 100.8662325 124.2908859  37.4353758 101.7487040 123.9202792
  36.5781261 100.5133876 124.0963396  28.9546378 110.0142394 128.6511699
  29.6674350 110.6489859 128.5787601  28.4636407 110.1106260 127.8351701
  30.6763905 103.9193647 120.2228991  29.7420184 104.0395109 120.0533695
  30.8540573 103.0166113 119.9589001  26.1769093  97.3039342 122.3762252
  25.8066880  96.7510383 123.0643157  26.6728185  96.6997476 121.8237252
  34.0636456  99.7610966 120.7579025  34.5296908 100.5938957 120.6839328
  34.5143957  99.2955947 121.4624283  32.1312687 106.1054787 117.7565177
  32.4072531 105.9911382 118.6659051  31.2617186 105.7072272 117.7177350
  32.0353119  92.1291553 124.7969926  31.1216199  92.3595780 124.9652133
  32.4646220  92.2129997 125.6483959  31.8059577 100.3181445 127.2969820
  31.1531028 100.5657352 126.6422273  32.1839957  99.5045583 126.9632298
  28.7666751 110.3541138 121.3997991  28.9489146 109.5362794 121.8625743
  29.5899737 110.5708830 120.9622881  29.1008917 109.2809323 118.6613039
  29.6296683 108.7701778 118.0483201  29.3637136 108.9651853 119.5258572
  22.4564665 110.3324440 121.4210815  21.7875040 110.8170567 120.9374855
  22.3177534 110.5793660 122.3354193  21.5734427  94.7143333 128.6215358
  21.6375753  95.5758164 128.2092756  21.5101547  94.1017335 127.8887717
  17.8252242  98.5942895 118.2006747  18.1205683  97.6853573 118.1473801
  16.9240278  98.5730634 117.8787749  29.7338321 110.3150159 125.0057155
  29.6089460 109.5139899 124.4968101  30.3917412 110.8096352 124.5171125
  21.3546489  96.6698891 124.1834296  20.6333075  97.2834859 124.0441769
  22.1439745  97.2056656 124.1050942  31.7973229 108.1159179 126.6336706
  30.8503565 107.9964530 126.5615032  32.1456002 107.2281677 126.7162967
  24.1572802  94.0053318 130.4574947  24.6807204  94.2515614 131.2201257
  23.9385136  94.8373353 130.0378085  19.5540083  96.2756992 118.3246072
  19.2252790  95.3954371 118.1421178  19.9079454  96.2204661 119.2122461
  28.8019662 107.9111895 122.8341058  28.6544625 106.9828603 123.0148628
  29.6273156 107.9331986 122.3498133  22.6681907  96.5629962 118.6921550
  23.0077979  97.0915884 117.9700158  23.1154027  96.9010368 119.4680116
  32.4053784 108.7340454 123.9205931  33.3300332 108.5283315 123.7830382
  32.2369087 108.4856855 124.8295272  25.3625347  94.9467013 128.1424618
  25.0222168  94.1474826 128.5445298  24.6564354  95.2468724 127.5701451
  26.0141819  92.0316325 126.5951941  26.8367889  91.5576804 126.4730831
  26.2579883  92.8106809 127.0950627  24.6550054  95.0604584 116.8914843
  25.3758416  95.4385837 116.3878560  24.0315358  95.7793461 116.9949821
  28.7981177  95.7649733 117.8273175  29.0144791  96.6474371 117.5262003
  28.3175244  95.3735946 117.0978817  23.5380398  98.7235446 124.4043920
  23.3924979  99.0375749 125.2968201  23.0605602  99.3420346 123.8514818
  25.3976781  95.7137994 124.4524809  25.3838350  94.8179087 124.1157107
  26.1149209  95.7208658 125.0863095  27.2502912  96.1475334 126.4977937
  26.9920689  97.0692405 126.4962267  26.7187952  95.7505769 127.1878401
  32.1949100 109.2526121 119.2768022  32.3685978 108.6872544 118.5241874
  32.6877992 110.0527016 119.0947512  24.8013677  94.5952374 119.7212379
  24.9229588  93.6669021 119.9203267  24.5115719  94.6091060 118.8090695
  27.6704867  92.2807285 122.8579099  27.6926564  92.3446618 121.9031079
  28.0872926  91.4411793 123.0519605  38.0488491 102.0162544 120.8958322
  38.4919638 101.2669870 120.4977445  37.1715002 102.0072681 120.5132054
  33.1824273 108.5692886 116.3764920  33.8775177 109.1899578 116.5952235
  33.5247423 107.7188237 116.6517298  35.0815696 106.0192591 117.9052251
  35.6067020 106.3579864 117.1801571  34.9938048 105.0839607 117.7215386
  26.7656357 112.0864575 122.2647504  26.3261347 111.5940953 122.9580361
  27.5164474 111.5437542 122.0239579  24.2130229 107.6302584 124.3369806
  23.5910238 106.9673289 124.0372034  24.8835096 107.6563716 123.6543454
  34.7709602 106.6525495 133.2103449  33.9805146 106.6349634 132.6707948
  34.5342957 107.1913789 133.9652486  34.8907477 103.5017961 130.5236178
  34.9405482 103.3367969 131.4651700  34.7821400 102.6345220 130.1334058
  23.7743736 106.1806507 117.8128266  23.9231856 106.8641971 117.1594939
  24.5810179 106.1611597 118.3277722  32.1811239  99.4848889 131.8395484
  33.0821102  99.3455354 131.5479482  32.2559214  99.6503344 132.7793662
  26.5154045  96.8615744 130.6848671  25.6457354  97.1549310 130.4131259
  26.7513525  97.4456189 131.4055934  36.3925674 105.9214903 130.7678199
  36.1010482 106.2844883 131.6041660  35.7797805 105.2081911 130.5891531
  37.5921356 103.4867783 123.2880769  38.4268248 103.9257587 123.4518330
  37.7280485 103.0106436 122.4689015  34.6412862 101.0447517 129.2358257
  35.1166984 101.2375164 128.4277108  33.7178427 101.1006703 128.9901641
  21.5296369 102.2071685 118.8189335  21.2842411 101.3034015 119.0169545
  21.6992283 102.2088835 117.8768813  29.2193079  93.0795361 128.2014091
  29.7375022  93.8156388 127.8760580  28.8648211  93.3859354 129.0360850
  20.7992016  97.9400042 116.3175497  20.1061261  98.0144397 115.6615533
  20.5543768  97.1760386 116.8397014  29.4705673  89.4995644 123.7214988
  29.7507427  88.8318833 124.3475414  30.2556280  89.6924739 123.2089651
  27.2739141 108.6754637 115.2840014  26.7013108 109.2944825 114.8310486
  27.8471935 109.2253999 115.8179936  33.3414531  97.9213278 127.4686563
  34.2931954  98.0211375 127.4898787  33.1717982  97.1291546 127.9784647
  31.3628911  95.0068861 127.6545964  30.7678843  95.2873873 126.9592452
  31.0778607  95.4962762 128.4262705  30.4936401 108.9591788 116.4148596
  31.4267074 108.8937349 116.6181472  30.4059614 109.7948054 115.9563129
  33.1224418 108.2757658 113.3752544  33.0438049 107.9417522 114.2688302
  33.9434085 108.7679426 113.3744016  35.8202609 101.1419397 126.5828862
  35.7878929 100.2035398 126.7688546  36.4303233 101.2203434 125.8494687
  27.6585940 100.0115450 112.6256066  28.6045044  99.8821658 112.6944484
  27.2800185  99.2730112 113.1025495  35.9697097  97.9330441 126.6287146
  35.4536146  97.1488897 126.4417074  36.8537046  97.6049157 126.7933665
  33.6307824  91.6771456 122.5882958  33.4332645  91.3686544 123.4726290
  34.2407530  92.4033095 122.7180888  41.6379159 102.2035404 125.7234899
  42.3682547 101.9420692 126.2842602  41.0286104 101.4664126 125.7636967
  39.7194456 100.3443267 126.3209350  38.9927619 100.2099232 125.7125842
  39.3041743 100.6520095 127.1266068  25.8428857  97.9365427 112.5610952
  24.9360312  97.6398539 112.6373665  26.1204838  97.6395245 111.6945238
  16.7606797  99.2571790 123.0109998  16.4409582  98.4037098 122.7184372
  16.2140225  99.4720368 123.7667965  27.4590923  92.4802316 118.7155193
  26.6491651  92.1349401 119.0910439  28.1475340  92.1709860 119.3042804
  29.3881471  91.5580363 120.3379490  29.9412510  91.9775817 120.9969513
  29.6251557  90.6316111 120.3802446  24.6127642  94.7952362 112.7022931
  25.4746806  95.1207260 112.9618748  24.7977986  94.0083858 112.1895997
  32.7660278  93.6680888 119.8458154  32.1858947  94.3265692 119.4636206
  32.4996211  92.8458233 119.4345571  31.2163844  93.0685946 122.0479474
  31.7163623  93.1802481 121.2393793  31.8599452  92.7646999 122.6880283
  18.5431800 102.8092955 122.8569134  18.5202488 102.9080643 121.9051018
  18.8532436 103.6558106 123.1786301  31.5485156  95.8280979 118.9014502
  30.6611011  96.1130629 118.6834697  31.9639145  95.6674742 118.0541779
  34.8999692  95.8527500 122.6168841  35.6760082  96.3423952 122.8893458
  34.1747826  96.2785554 123.0740711  37.3372251  96.5655119 123.6742782
  37.9316742  96.3250855 122.9636090  37.4098834  95.8462249 124.3016318
  30.6928370 105.5925653 112.9962522  31.3964220 105.7975656 113.6120178
  29.9691018 106.1602415 113.2611606  31.5226180 101.3435515 119.1164792
  31.4661381 101.8004066 118.2772425  32.0754522 100.5826199 118.9387635
  35.3330986  97.1325246 119.9414912  35.0767920  96.7321882 120.7723119
  34.7083854  97.8469040 119.8165051  39.6443324  99.8721320 122.4486203
  39.0842882  99.9414509 123.2217765  39.0386827  99.6962304 121.7285699
  32.6015067 106.0308183 115.0460982  33.4360671 105.5989381 114.8638457
  32.4399410 105.8590196 115.9737877  32.2560959 102.5340296 116.4117321
  32.2009763 102.3684567 115.4705765  31.6307014 103.2416329 116.5679511
  25.5657085  92.0348405 115.9902640  25.5535754  92.9790245 116.1470911
  26.4580506  91.8518550 115.6962101  25.4946649 110.7117295 124.0770396
  24.5442280 110.7119157 123.9634769  25.7979135 109.9650030 123.5606431
  29.3809204  88.6291181 120.2448577  28.6141600  88.0749668 120.3905259
  29.7919909  88.7013050 121.1062728  41.2299342 116.5477834 125.1416159
  41.8677752 116.4284581 124.4379499  41.1120185 117.4958678 125.2004111
  38.0389048 116.5005262 125.0777684  37.7007560 116.3846326 124.1898218
  38.9078816 116.0996427 125.0578690  33.8975864 118.3540738 121.0674574
  33.3340729 118.2630675 120.2990862  33.7828259 117.5340643 121.5477067
  38.5208831 117.6540113 131.0363889  38.5097472 117.2592912 130.1644393
  38.6829471 116.9206186 131.6297660  31.4440296 119.8491930 123.9058795
  32.2361588 119.5082754 123.4905094  31.6836946 119.9586905 124.8260948
  39.4775423 122.0211706 116.3789039  38.8263402 122.6065786 115.9923053
  40.2719785 122.5517901 116.4384077  33.4031050 119.1100843 116.7776174
  34.1761926 118.5629830 116.6389050  33.7556449 119.9745092 116.9890635
  36.1672299 117.8154074 126.5744433  36.7635872 117.5910096 125.8601396
  36.2247271 117.0738819 127.1769881  35.7397328 115.2693509 114.4094624
  35.9922848 114.7475030 113.6478087  34.8021887 115.1059655 114.5121307
  40.7840610 114.2729287 122.2169367  41.5703700 113.8548711 121.8659784
  41.0479315 115.1775380 122.3851015  40.9550688 119.7102138 116.9158024
  40.3196521 119.7836764 117.6278928  40.6248094 120.2995737 116.2377103
  46.1849038 114.2104521 123.1202345  46.9174210 113.6403738 123.3540175
  45.4288393 113.8226121 123.5608851  35.4593616 117.1721615 116.6118999
  35.3429875 116.4966518 117.2800083  35.5695876 116.6853989 115.7951152
  37.8025157 116.6331762 120.3165688  37.4383365 116.1062383 121.0278609
  38.6592273 116.2430231 120.1432173  43.7074458 107.9226095 127.5796954
  43.3757783 108.7921506 127.3558169  43.1120071 107.6062379 128.2590984
  37.4430644 111.6621662 115.3127036  37.6105047 112.5301898 115.6797507
  37.2527813 111.8248944 114.3888326  40.2005977 120.1238641 126.9792867
  39.9006701 121.0263680 126.8708674  39.8557037 119.8570824 127.8314020
  33.6518459 116.5752438 123.0129571  32.7268955 116.4428652 123.2207263
  33.9002872 117.3546657 123.5099514  43.6003121 112.6421181 124.6590304
  42.6919999 112.5736589 124.3649065  43.5490717 113.1193126 125.4872130
  37.4219865 114.1179319 116.2973703  37.3019490 114.5636370 117.1359183
  36.7272454 114.4664637 115.7387241  31.0127270 116.2185711 123.8473360
  31.1419651 116.4720190 124.7612772  30.3324721 116.8113419 123.5278015
  35.1826757 126.8882961 119.9463834  35.1050787 127.8390786 120.0252315
  34.5788401 126.5428834 120.6038761  45.4664768 110.8437619 126.4368178
  44.8239148 111.1370153 125.7907973  44.9619696 110.7290540 127.2421375
  43.1204931 114.5900793 117.1254037  44.0322787 114.8228179 116.9501735
  42.6114578 115.1737837 116.5629116  41.4045699 119.0125420 130.7615330
  41.8129055 118.5707831 130.0169962  40.6822961 118.4378048 131.0149523
  37.7576769 113.9498027 128.1348887  38.6037964 114.3737441 128.2783536
  37.6975407 113.2931651 128.8287450  41.7274514 119.5726611 124.5167619
  41.0983376 119.7372325 123.8143687  41.3400176 119.9868221 125.2878583
  45.6063746 120.5081049 121.8711982  44.9214784 120.8879950 121.3209016
  45.6907595 121.1176376 122.6043930  40.9076214 111.6102396 129.7930060
  40.6637146 112.3644456 129.2564336  41.1836145 111.9887743 130.6277307
  42.8614677 118.1541008 128.4707326  43.0731572 118.7972768 127.7941707
  42.8144425 117.3203324 128.0029256  40.4640906 110.7658829 125.3743898
  39.6025385 111.0640082 125.6660636  40.4903341 110.9829227 124.4424931
  37.2802476 119.3101019 121.7817704  37.7440821 119.5888722 120.9922326
  37.0159274 118.4084464 121.5990794  34.1726557 118.8572501 124.7197467
  34.7427914 119.2859769 124.0814952  34.7634668 118.5755085 125.4181653
  36.2171362 115.4324171 118.5907269  36.9195405 115.8845215 119.0581195
  35.8851990 114.7907990 119.2187162  29.9596696 113.6907724 123.8924402
  29.1695750 113.9465253 123.4164513  30.4507943 114.5056062 123.9976443
  43.9760505 121.0312963 126.6429683  44.7977949 120.6293151 126.3612365
  43.9722908 120.9281197 127.5945799  31.9111441 114.0552303 120.8507879
  31.1142604 114.1670998 121.3691375  31.6837033 114.3938956 119.9848770
  52.0666498 117.3751712 122.9914655  51.3130207 116.8059110 122.8358659
  52.2014039 117.3414376 123.9385289  37.4565126 122.2465114 118.6669374
  37.3210801 123.0916650 119.0954222  37.9974939 122.4484392 117.9035308
  30.9094524 119.7640552 119.2397299  31.4219044 120.5583802 119.3902864
  31.5617236 119.0666843 119.1730901  32.7189408 122.8806308 121.3220052
  32.8956037 123.8024273 121.1341036  33.5146242 122.5664728 121.7514432
  36.8600427 109.7414573 132.9203986  37.6010140 110.3421726 132.8408448
  37.0918350 108.9992211 132.3622028  41.1814841 123.1491481 130.8251117
  41.1633316 123.9700362 130.3331387  42.1034761 123.0245556 131.0501259
  40.8057590 105.7695676 127.1968268  40.4621859 106.6597318 127.1207378
  41.1736552 105.5797334 126.3337853  28.8743440 118.0929206 120.0156870
  29.7118662 118.5026215 119.7990577  29.0521708 117.1528649 119.9857064
  40.7707872 115.7604287 115.7040703  40.2554496 116.5308892 115.9429090
  40.4985181 115.0869423 116.3273764  38.3554984 110.6053988 120.7625941
  37.4996580 110.2160838 120.5831580  38.7681935 110.6845949 119.9025727
  39.8854130 108.1400331 125.1617501  39.3818926 108.1030466 124.3485306
  40.1784737 109.0493074 125.2214158  36.1297016 108.2239061 124.1683683
  36.9950013 108.0281870 123.8089572  36.1974525 107.9949413 125.0953039
  45.7442147 118.5136642 117.6393876  44.9671589 118.1747801 117.1949038
  46.4233628 118.5189265 116.9648841  40.5594176 113.6331379 117.5300484
  40.2544311 113.9477528 118.3810627  41.5124618 113.7112799 117.5727817
  39.0040608 119.7921603 119.1793438  38.4761969 119.0574362 118.8666675
  38.5028110 120.5696279 118.9333406  43.9833454 117.9870623 124.2960484
  43.3257128 118.6769884 124.3840613  44.7873853 118.3767055 124.6394471
  33.7359335 110.4541269 121.5400049  34.3103087 110.2316450 120.8073242
  34.3230318 110.5229963 122.2928651  42.7938912 116.3414996 122.3464426
  43.3070794 116.9744988 122.8486136  43.4440136 115.7416191 121.9807786
  34.0628922 112.4845730 115.5595935  33.2266234 112.8220416 115.8805209
  33.9233692 112.3494710 114.6223072  36.0382003 107.3282518 120.2675119
  35.3846415 107.0131535 119.6431734  35.9962477 106.7058258 120.9934942
  37.1493208 117.6101813 112.1828411  36.2420269 117.3791066 112.3819560
  37.6464240 116.8139432 112.3702392  40.0561287 126.3199320 115.1025097
  39.3822985 126.6231017 115.7110055  40.4427109 127.1228400 114.7530554
  39.2719743 113.8164451 124.5922766  38.3542305 114.0379398 124.4344455
  39.6879887 113.8910762 123.7334474  40.0554791 115.2155867 119.7225447
  40.8026610 115.7277264 119.4132569  40.3246381 114.8939920 120.5829840
  38.3281441 117.7114408 116.7052401  37.4192660 117.4273440 116.8024871
  38.3576525 118.1313486 115.8455708  43.5600709 121.3220997 120.4743569
  43.1063036 120.4811907 120.5308759  42.9294675 121.9582395 120.8118349
  42.5033628 112.2512983 121.7044236  41.7656385 111.7390369 122.0354479
  42.7560402 111.8113365 120.8927513  42.0033648 123.1597494 121.4093387
  42.2956622 123.7202551 120.6905752  42.5132268 123.4526055 122.1646546
  42.6045255 105.0289235 122.2986005  42.9104132 104.1686599 122.0111920
  43.3297860 105.6206855 122.0984999  28.8969612 115.4319922 120.6867603
  28.6994011 114.8389282 119.9618670  28.3416276 115.1272132 121.4043542
  36.8766335 115.3243028 122.8062196  36.9314945 114.3716865 122.7304673
  36.0657537 115.4802467 123.2903495  38.0257529 119.2523151 114.0440480
  37.5876959 118.5359010 113.5846117  38.7667970 119.4799266 113.4825571
  34.8158695 113.9420088 120.5652575  34.0026561 114.2414259 120.9717767
  35.3117689 113.5475777 121.2827057  36.9667273 123.9377845 122.4986840
  36.9243452 124.1638691 121.5695372  37.8829972 123.7041219 122.6472641
  40.4132907 114.4061912 129.3967469  40.7682295 114.6333386 130.2561935
  41.0605038 114.7380289 128.7744724  46.1430644 117.5280348 120.1016798
  46.0048542 117.7181944 119.1737987  45.7866863 118.2899731 120.5584849
  34.3072770 111.5138443 126.1813810  34.9472149 111.3727203 125.4836773
  33.4750300 111.2272957 125.8052412  46.1700023 119.5956875 125.1128070
  46.6036530 119.5032164 125.9611124  46.8831604 119.5714376 124.4748086
  35.0833074 120.8140874 122.2948803  35.8773672 120.3191194 122.0931378
  34.3724766 120.2858737 121.9316508  39.9027918 123.1958969 126.6461170
  39.9564941 123.7649906 127.4138886  39.0342700 123.3660854 126.2815207
  31.3915837 114.9583956 118.3708555  30.4613425 114.8968411 118.5878517
  31.4873309 114.4359908 117.5745197  31.3101386 111.4838768 120.9586797
  31.5708204 112.3984102 120.8495957  32.1318559 111.0163211 121.1083410
  32.7826312 112.8976526 128.1285621  33.4549365 112.6893888 127.4798270
  31.9556098 112.6998612 127.6890854  47.0315573 119.6380576 127.6460955
  47.2251463 120.5426387 127.8920230  46.9316191 119.1787995 128.4799540
  38.6851884 109.5238467 130.1451282  38.0379799 110.2228416 130.0515759
  39.4552899 109.9574610 130.5127531  42.0930682 119.7887319 133.2201836
  41.9416188 119.5597870 132.3031919  42.0835361 120.7457920 133.2333181
  38.8616018 117.3619231 128.2048102  39.7908078 117.5130391 128.0317069
  38.4407048 117.4503252 127.3496749  37.6604350 121.3869896 125.9746640
  37.5215435 121.0188680 126.8472578  36.8718946 121.9017535 125.8030598
  38.2552502 126.4878992 117.3172176  38.4304257 126.0167036 118.1317799
  37.5685290 127.1144759 117.5453437  39.2109565 120.7651499 123.3635477
  38.8759398 120.7252269 124.2593127  38.7113511 120.0996215 122.8905888
  42.1468757 118.1107533 113.6372537  41.5297927 117.3854361 113.5405590
  41.6785245 118.8716893 113.2939611  35.8136110 115.8839088 128.3771738
  36.5235728 115.2432280 128.3358357  35.7705418 116.1351983 129.2997919
  43.8022888 122.8206441 131.2978318  43.7435434 122.1365661 130.6308901
  44.2042407 123.5625431 130.8458943  34.5265044 112.8704306 130.1967378
  33.9902401 112.4195044 130.8488974  33.9381752 113.0050215 129.4537842
  33.9367302 112.3292957 112.7593841  33.0596769 112.2081758 112.3956088
  34.4125056 111.5379036 112.5072730  43.8040295 120.7846025 129.5292297
  42.9167074 120.4471947 129.6518696  44.3738847 120.0529056 129.7661063
  30.2604165 112.0060314 127.2820372  30.1762353 111.3985983 126.5470782
  29.4386871 112.4969332 127.2829869  37.1231228 124.6819248 120.0056362
  36.3398750 125.2240928 120.0994586  37.8223974 125.1993227 120.4050603
  40.4327879 110.4913877 122.6490567  40.9296578 109.7383839 122.3291638
  39.6614860 110.5278194 122.0833777  48.2857636 116.1954243 124.2908859
  48.2747512 117.0778958 123.9202792  47.4175015 115.8425793 124.0963396
  39.7940132 125.3434312 128.6511699  40.5068105 125.9781776 128.5787601
  39.3030161 125.4398178 127.8351701  41.5157659 119.2485564 120.2228991
  40.5813938 119.3687027 120.0533695  41.6934328 118.3458031 119.9589001
  37.0162847 112.6331260 122.3762252  36.6460635 112.0802300 123.0643157
  37.5121940 112.0289394 121.8237252  44.9030211 115.0902884 120.7579025
  45.3690663 115.9230875 120.6839328  45.3537711 114.6247865 121.4624283
  42.9706442 121.4346705 117.7565177  43.2466286 121.3203299 118.6659051
  42.1010940 121.0364190 117.7177350  42.8746873 107.4583471 124.7969926
  41.9609953 107.6887697 124.9652133  43.3039975 107.5421915 125.6483959
  42.6453332 115.6473363 127.2969820  41.9924782 115.8949270 126.6422273
  43.0233712 114.8337501 126.9632298  39.6060506 125.6833056 121.3997991
  39.7882900 124.8654712 121.8625743  40.4293492 125.9000748 120.9622881
  39.9402671 124.6101241 118.6613039  40.4690438 124.0993695 118.0483201
  40.2030891 124.2943771 119.5258572  33.2958419 125.6616358 121.4210815
  32.6268794 126.1462485 120.9374855  33.1571289 125.9085578 122.3354193
  32.4128181 110.0435251 128.6215358  32.4769508 110.9050082 128.2092756
  32.3495301 109.4309252 127.8887717  28.6645996 113.9234812 118.2006747
  28.9599437 113.0145491 118.1473801  27.7634032 113.9022552 117.8787749
  40.5732075 125.6442077 125.0057155  40.4483215 124.8431816 124.4968101
  41.2311166 126.1388270 124.5171125  32.1940243 111.9990809 124.1834296
  31.4726829 112.6126777 124.0441769  32.9833499 112.5348574 124.1050942
  42.6366983 123.4451097 126.6336706  41.6897319 123.3256448 126.5615032
  42.9849757 122.5573595 126.7162967  34.9966557 109.3345236 130.4574947
  35.5200959 109.5807532 131.2201257  34.7778890 110.1665270 130.0378085
  30.3933838 111.6048910 118.3246072  30.0646544 110.7246289 118.1421178
  30.7473209 111.5496579 119.2122461  39.6413417 123.2403813 122.8341058
  39.4938379 122.3120520 123.0148628  40.4666910 123.2623904 122.3498133
  33.5075661 111.8921880 118.6921550  33.8471734 112.4207801 117.9700158
  33.9547782 112.2302286 119.4680116  43.2447539 124.0632372 123.9205931
  44.1694086 123.8575233 123.7830382  43.0762842 123.8148773 124.8295272
  36.2019102 110.2758931 128.1424618  35.8615922 109.4766744 128.5445298
  35.4958108 110.5760642 127.5701451  36.8535574 107.3608243 126.5951941
  37.6761643 106.8868721 126.4730831  37.0973637 108.1398727 127.0950627
  35.4943808 110.3896502 116.8914843  36.2152171 110.7677754 116.3878560
  34.8709112 111.1085378 116.9949821  39.6374931 111.0941651 117.8273175
  39.8538545 111.9766288 117.5262003  39.1568998 110.7027864 117.0978817
  34.3774152 114.0527364 124.4043920  34.2318733 114.3667667 125.2968201
  33.8999356 114.6712264 123.8514818  36.2370535 111.0429912 124.4524809
  36.2232104 110.1471005 124.1157107  36.9542963 111.0500575 125.0863095
  38.0896666 111.4767252 126.4977937  37.8314444 112.3984323 126.4962267
  37.5581706 111.0797686 127.1878401  43.0342855 124.5818039 119.2768022
  43.2079732 124.0164462 118.5241874  43.5271746 125.3818934 119.0947512
  35.6407431 109.9244292 119.7212379  35.7623342 108.9960938 119.9203267
  35.3509474 109.9382978 118.8090695  38.5098622 107.6099202 122.8579099
  38.5320318 107.6738536 121.9031079  38.9266681 106.7703711 123.0519605
  48.8882246 117.3454462 120.8958322  49.3313392 116.5961787 120.4977445
  48.0108756 117.3364598 120.5132054  44.0218027 123.8984803 116.3764920
  44.7168932 124.5191496 116.5952235  44.3641177 123.0480155 116.6517298
  45.9209450 121.3484509 117.9052251  46.4460775 121.6871782 117.1801571
  45.8331803 120.4131524 117.7215386  37.6050111 127.4156492 122.2647504
  37.1655101 126.9232871 122.9580361  38.3558228 126.8729460 122.0239579
  35.0523983 122.9594501 124.3369806  34.4303993 122.2965206 124.0372034
  35.7228850 122.9855633 123.6543454  45.6103356 121.9817413 133.2103449
  44.8198900 121.9641551 132.6707948  45.3736711 122.5205706 133.9652486
  45.7301232 118.8309879 130.5236178  45.7799236 118.6659886 131.4651700
  45.6215155 117.9637138 130.1334058  34.6137490 121.5098425 117.8128266
  34.7625611 122.1933889 117.1594939  35.4203934 121.4903515 118.3277722
  43.0204994 114.8140807 131.8395484  43.9214857 114.6747272 131.5479482
  43.0952968 114.9795262 132.7793662  37.3547799 112.1907662 130.6848671
  36.4851109 112.4841228 130.4131259  37.5907280 112.7748107 131.4055934
  47.2319428 121.2506821 130.7678199  46.9404237 121.6136801 131.6041660
  46.6191560 120.5373829 130.5891531  48.4315111 118.8159700 123.2880769
  49.2662002 119.2549504 123.4518330  48.5674239 118.3398353 122.4689015
  45.4806617 116.3739435 129.2358257  45.9560738 116.5667081 128.4277108
  44.5572182 116.4298621 128.9901641  32.3690123 117.5363602 118.8189335
  32.1236165 116.6325932 119.0169545  32.5386038 117.5380753 117.8768813
  40.0586833 108.4087279 128.2014091  40.5768777 109.1448306 127.8760580
  39.7041966 108.7151272 129.0360850  31.6385771 113.2691960 116.3175497
  30.9455016 113.3436315 115.6615533  31.3937523 112.5052304 116.8397014
  40.3099427 104.8287561 123.7214988  40.5901181 104.1610750 124.3475414
  41.0950034 105.0216657 123.2089651  38.1132896 124.0046555 115.2840014
  37.5406863 124.6236742 114.8310486  38.6865689 124.5545917 115.8179936
  44.1808286 113.2505195 127.4686563  45.1325708 113.3503293 127.4898787
  44.0111736 112.4583464 127.9784647  42.2022665 110.3360778 127.6545964
  41.6072597 110.6165791 126.9592452  41.9172362 110.8254679 128.4262705
  41.3330156 124.2883705 116.4148596  42.2660829 124.2229267 116.6181472
  41.2453368 125.1239972 115.9563129  43.9618172 123.6049576 113.3752544
  43.8831804 123.2709439 114.2688302  44.7827839 124.0971344 113.3744016
  46.6596363 116.4711315 126.5828862  46.6272683 115.5327316 126.7688546
  47.2696987 116.5495352 125.8494687  38.4979694 115.3407368 112.6256066
  39.4438799 115.2113576 112.6944484  38.1193939 114.6022030 113.1025495
  46.8090852 113.2622358 126.6287146  46.2929901 112.4780815 126.4417074
  47.6930800 112.9341075 126.7933665  44.4701579 107.0063374 122.5882958
  44.2726400 106.6978462 123.4726290  45.0801284 107.7325013 122.7180888
  52.4772913 117.5327322 125.7234899  53.2076302 117.2712610 126.2842602
  51.8679859 116.7956044 125.7636967  50.5588210 115.6735184 126.3209350
  49.8321374 115.5391149 125.7125842  50.1435497 115.9812013 127.1266068
  36.6822611 113.2657344 112.5610952  35.7754067 112.9690457 112.6373665
  36.9598592 112.9687162 111.6945238  27.6000552 114.5863708 123.0109998
  27.2803336 113.7329016 122.7184372  27.0533980 114.8012286 123.7667965
  38.2984677 107.8094234 118.7155193  37.4885405 107.4641319 119.0910439
  38.9869094 107.5001778 119.3042804  40.2275225 106.8872281 120.3379490
  40.7806264 107.3067734 120.9969513  40.4645312 105.9608029 120.3802446
  35.4521396 110.1244279 112.7022931  36.3140560 110.4499178 112.9618748
  35.6371740 109.3375775 112.1895997  43.6054033 108.9972806 119.8458154
  43.0252702 109.6557610 119.4636206  43.3389965 108.1750151 119.4345571
  42.0557599 108.3977864 122.0479474  42.5557377 108.5094398 121.2393793
  42.6993207 108.0938917 122.6880283  29.3825554 118.1384873 122.8569134
  29.3596242 118.2372560 121.9051018  29.6926191 118.9850024 123.1786301
  42.3878911 111.1572896 118.9014502  41.5004766 111.4422547 118.6834697
  42.8032900 110.9966660 118.0541779  45.7393447 111.1819417 122.6168841
  46.5153837 111.6715870 122.8893458  45.0141581 111.6077472 123.0740711
  48.1766005 111.8947037 123.6742782  48.7710496 111.6542772 122.9636090
  48.2492589 111.1754167 124.3016318  41.5322124 120.9217571 112.9962522
  42.2357974 121.1267574 113.6120178  40.8084773 121.4894333 113.2611606
  42.3619934 116.6727432 119.1164792  42.3055136 117.1295984 118.2772425
  42.9148277 115.9118117 118.9387635  46.1724740 112.4617164 119.9414912
  45.9161674 112.0613800 120.7723119  45.5477608 113.1760958 119.8165051
  50.4837078 115.2013237 122.4486203  49.9236636 115.2706427 123.2217765
  49.8780581 115.0254222 121.7285699  43.4408821 121.3600100 115.0460982
  44.2754425 120.9281299 114.8638457  43.2793164 121.1882114 115.9737877
  43.0954714 117.8632214 116.4117321  43.0403517 117.6976485 115.4705765
  42.4700769 118.5708246 116.5679511  36.4050839 107.3640323 115.9902640
  36.3929509 108.3082162 116.1470911  37.2974261 107.1810468 115.6962101
  36.3340403 126.0409213 124.0770396  35.3836034 126.0411075 123.9634769
  36.6372889 125.2941947 123.5606431  40.2202958 103.9583099 120.2448577
  39.4535354 103.4041586 120.3905259  40.6313663 104.0304968 121.1062728
  52.0693096 131.8769751 125.1416159  52.7071506 131.7576499 124.4379499
  51.9513939 132.8250595 125.2004111  48.8782803 131.8297179 125.0777684
  48.5401314 131.7138244 124.1898218  49.7472571 131.4288345 125.0578690
  44.7369618 133.6832656 121.0674574  44.1734484 133.5922593 120.2990862
  44.6222014 132.8632560 121.5477067  42.2834050 135.1783847 123.9058795
  43.0755342 134.8374672 123.4905094  42.5230701 135.2878822 124.8260948
  44.2424804 134.4392761 116.7776174  45.0155680 133.8921748 116.6389050
  44.5950203 135.3037010 116.9890635  47.0066054 133.1445991 126.5744433
  47.6029626 132.9202014 125.8601396  47.0641025 132.4030737 127.1769881
  46.5791082 130.5985427 114.4094624  46.8316603 130.0766948 113.6478087
  45.6415641 130.4351572 114.5121307  51.6234365 129.6021205 122.2169367
  52.4097454 129.1840628 121.8659784  51.8873069 130.5067297 122.3851015
  51.7944442 135.0394055 116.9158024  51.1590275 135.1128682 117.6278928
  51.4641849 135.6287654 116.2377103  57.0242792 129.5396438 123.1202345
  57.7567964 128.9695655 123.3540175  56.2682148 129.1518039 123.5608851
  46.2987371 132.5013533 116.6118999  46.1823629 131.8258436 117.2800083
  46.4089631 132.0145907 115.7951152  48.6418912 131.9623680 120.3165688
  48.2777119 131.4354301 121.0278609  49.4986028 131.5722149 120.1432173
  54.5468212 123.2518012 127.5796954  54.2151537 124.1213423 127.3558169
  53.9513826 122.9354296 128.2590984  48.2824399 126.9913580 115.3127036
  48.4498801 127.8593816 115.6797507  48.0921568 127.1540861 114.3888326
  44.4912213 131.9044355 123.0129571  43.5662710 131.7720569 123.2207263
  44.7396627 132.6838575 123.5099514  54.4396876 127.9713099 124.6590304
  53.5313753 127.9028507 124.3649065  54.3884472 128.4485044 125.4872130
  48.2613620 129.4471237 116.2973703  48.1413245 129.8928288 117.1359183
  47.5666208 129.7956555 115.7387241  41.8521025 131.5477629 123.8473360
  41.9813406 131.8012108 124.7612772  41.1718476 132.1405337 123.5278015
  56.3058522 126.1729537 126.4368178  55.6632902 126.4662070 125.7907973
  55.8013451 126.0582457 127.2421375  53.9598686 129.9192710 117.1254037
  54.8716542 130.1520097 116.9501735  53.4508333 130.5029754 116.5629116
  48.5970524 129.2789945 128.1348887  49.4431719 129.7029358 128.2783536
  48.5369161 128.6223569 128.8287450  52.5668268 134.9018529 124.5167619
  51.9377131 135.0664243 123.8143687  52.1793930 135.3160138 125.2878583
  56.4457500 135.8372967 121.8711982  55.7608538 136.2171868 121.3209016
  56.5301349 136.4468293 122.6043930  51.7469969 126.9394313 129.7930060
  51.5030901 127.6936374 129.2564336  52.0229899 127.3179661 130.6277307
  51.3034661 126.0950746 125.3743898  50.4419140 126.3932000 125.6660636
  51.3297095 126.3121145 124.4424931  48.1196230 134.6392937 121.7817704
  48.5834576 134.9180640 120.9922326  47.8553028 133.7376381 121.5990794
  45.0120311 134.1864418 124.7197467  45.5821668 134.6151687 124.0814952
  45.6028423 133.9047003 125.4181653  47.0565116 130.7616089 118.5907269
  47.7589159 131.2137133 119.0581195  46.7245745 130.1199908 119.2187162
  40.7990450 129.0199642 123.8924402  40.0089504 129.2757170 123.4164513
  41.2901697 129.8347980 123.9976443  42.7505195 129.3844221 120.8507879
  41.9536359 129.4962915 121.3691375  42.5230788 129.7230873 119.9848770
  62.9060253 132.7043629 122.9914655  62.1523961 132.1351028 122.8358659
  63.0407794 132.6706294 123.9385289  47.6994181 125.0706491 132.9203986
  48.4403895 125.6713644 132.8408448  47.9312104 124.3284129 132.3622028
  51.6451344 121.0987594 127.1968268  51.3015614 121.9889235 127.1207378
  52.0130307 120.9089251 126.3337853  39.7137195 133.4221124 120.0156870
  40.5512417 133.8318132 119.7990577  39.8915463 132.4820566 119.9857064
  51.6101627 131.0896205 115.7040703  51.0948250 131.8600809 115.9429090
  51.3378935 130.4161341 116.3273764  49.1948738 125.9345906 120.7625941
  48.3390334 125.5452756 120.5831580  49.6075690 126.0137866 119.9025727
  50.7247885 123.4692249 125.1617501  50.2212680 123.4322384 124.3485306
  51.0178492 124.3784992 125.2214158  46.9690771 123.5530979 124.1683683
  47.8343767 123.3573787 123.8089572  47.0368279 123.3241330 125.0953039
  56.5835901 133.8428559 117.6393876  55.8065344 133.5039719 117.1949038
  57.2627382 133.8481183 116.9648841  51.3987930 128.9623297 117.5300484
  51.0938066 129.2769446 118.3810627  52.3518372 129.0404717 117.5727817
  49.8434362 135.1213520 119.1793438  49.3155724 134.3866280 118.8666675
  49.3421865 135.8988197 118.9333406  54.8227208 133.3162541 124.2960484
  54.1650882 134.0061802 124.3840613  55.6267607 133.7058973 124.6394471
  44.5753090 125.7833186 121.5400049  45.1496842 125.5608368 120.8073242
  45.1624072 125.8521881 122.2928651  53.6332667 131.6706913 122.3464426
  54.1464549 132.3036905 122.8486136  54.2833891 131.0708109 121.9807786
  44.9022677 127.8137647 115.5595935  44.0659989 128.1512334 115.8805209
  44.7627446 127.6786627 114.6223072  46.8775757 122.6574435 120.2675119
  46.2240170 122.3423453 119.6431734  46.8356231 122.0350176 120.9934942
  47.9886962 132.9393730 112.1828411  47.0814024 132.7082984 112.3819560
  48.4857994 132.1431350 112.3702392  50.1113498 129.1456369 124.5922766
  49.1936059 129.3671316 124.4344455  50.5273641 129.2202679 123.7334474
  50.8948545 130.5447785 119.7225447  51.6420364 131.0569182 119.4132569
  51.1640135 130.2231837 120.5829840  49.1675196 133.0406325 116.7052401
  48.2586415 132.7565358 116.8024871  49.1970279 133.4605404 115.8455708
  54.3994463 136.6512915 120.4743569  53.9456790 135.8103825 120.5308759
  53.7688430 137.2874313 120.8118349  53.3427383 127.5804901 121.7044236
  52.6050139 127.0682287 122.0354479  53.5954156 127.1405282 120.8927513
  52.8427402 138.4889411 121.4093387  53.1350377 139.0494469 120.6905752
  53.3526023 138.7817972 122.1646546  53.4439010 120.3581153 122.2986005
  53.7497887 119.4978516 122.0111920  54.1691615 120.9498773 122.0984999
  39.7363366 130.7611839 120.6867603  39.5387766 130.1681200 119.9618670
  39.1810030 130.4564050 121.4043542  47.7160090 130.6534946 122.8062196
  47.7708699 129.7008782 122.7304673  46.9051292 130.8094385 123.2903495
  48.8651283 134.5815069 114.0440480  48.4270713 133.8650928 113.5846117
  49.6061724 134.8091184 113.4825571  45.6552450 129.2712006 120.5652575
  44.8420315 129.5706176 120.9717767  46.1511444 128.8767694 121.2827057
  51.2526661 129.7353830 129.3967469  51.6076049 129.9625303 130.2561935
  51.8998792 130.0672207 128.7744724  56.9824398 132.8572266 120.1016798
  56.8442297 133.0473862 119.1737987  56.6260617 133.6191649 120.5584849
  45.1466524 126.8430361 126.1813810  45.7865904 126.7019120 125.4836773
  44.3144055 126.5564875 125.8052412  45.9226828 136.1432792 122.2948803
  46.7167427 135.6483112 122.0931378  45.2118521 135.6150655 121.9316508
  42.2309592 130.2875873 118.3708555  41.3007180 130.2260329 118.5878517
  42.3267064 129.7651826 117.5745197  42.1495141 126.8130686 120.9586797
  42.4101958 127.7276019 120.8495957  42.9712313 126.3455129 121.1083410
  43.6220066 128.2268443 128.1285621  44.2943120 128.0185805 127.4798270
  42.7949853 128.0290529 127.6890854  49.5245638 124.8530384 130.1451282
  48.8773553 125.5520334 130.0515759  50.2946654 125.2866528 130.5127531
  49.7009772 132.6911149 128.2048102  50.6301832 132.8422309 128.0317069
  49.2800802 132.7795170 127.3496749  50.0503319 136.0943416 123.3635477
  49.7153152 136.0544186 124.2593127  49.5507265 135.4288132 122.8905888
  52.9862511 133.4399451 113.6372537  52.3691682 132.7146279 113.5405590
  52.5179000 134.2008811 113.2939611  46.6529864 131.2131006 128.3771738
  47.3629483 130.5724198 128.3358357  46.6099172 131.4643900 129.2997919
  45.3658798 128.1996224 130.1967378  44.8296155 127.7486962 130.8488974
  44.7775506 128.3342132 129.4537842  44.7761057 127.6584875 112.7593841
  43.8990523 127.5373676 112.3956088  45.2518810 126.8670953 112.5072730
  41.0997919 127.3352231 127.2820372  41.0156108 126.7277901 126.5470782
  40.2780626 127.8261250 127.2829869  51.2721633 125.8205795 122.6490567
  51.7690333 125.0675757 122.3291638  50.5008615 125.8570111 122.0833777
  59.1251391 131.5246160 124.2908859  59.1141267 132.4070876 123.9202792
  58.2568770 131.1717711 124.0963396  52.3551414 134.5777482 120.2228991
  51.4207693 134.6978944 120.0533695  52.5328082 133.6749949 119.9589001
  47.8556602 127.9623178 122.3762252  47.4854389 127.4094218 123.0643157
  48.3515694 127.3581311 121.8237252  55.7423965 130.4194801 120.7579025
  56.2084417 131.2522793 120.6839328  56.1931466 129.9539783 121.4624283
  53.8100196 136.7638623 117.7565177  54.0860040 136.6495217 118.6659051
  52.9404695 136.3656107 117.7177350  53.7140628 122.7875388 124.7969926
  52.8003708 123.0179615 124.9652133  54.1433729 122.8713832 125.6483959
  53.4847086 130.9765280 127.2969820  52.8318537 131.2241188 126.6422273
  53.8627466 130.1629418 126.9632298  43.2521936 125.3727169 128.6215358
  43.3163262 126.2341999 128.2092756  43.1889056 124.7601170 127.8887717
  39.5039751 129.2526730 118.2006747  39.7993192 128.3437409 118.1473801
  38.6027787 129.2314470 117.8787749  43.0333998 127.3282727 124.1834296
  42.3120584 127.9418694 124.0441769  43.8227254 127.8640492 124.1050942
  45.8360311 124.6637153 130.4574947  46.3594713 124.9099450 131.2201257
  45.6172645 125.4957188 130.0378085  41.2327592 126.9340828 118.3246072
  40.9040299 126.0538207 118.1421178  41.5866963 126.8788497 119.2122461
  44.3469416 127.2213798 118.6921550  44.6865488 127.7499719 117.9700158
  44.7941536 127.5594204 119.4680116  47.0412856 125.6050848 128.1424618
  46.7009677 124.8058661 128.5445298  46.3351863 125.9052559 127.5701451
  47.6929328 122.6900161 126.5951941  48.5155398 122.2160639 126.4730831
  47.9367392 123.4690645 127.0950627  46.3337563 125.7188419 116.8914843
  47.0545925 126.0969672 116.3878560  45.7102867 126.4377296 116.9949821
  50.4768686 126.4233568 117.8273175  50.6932300 127.3058206 117.5262003
  49.9962753 126.0319782 117.0978817  45.2167907 129.3819281 124.4043920
  45.0712488 129.6959584 125.2968201  44.7393111 130.0004182 123.8514818
  47.0764290 126.3721829 124.4524809  47.0625859 125.4762923 124.1157107
  47.7936718 126.3792493 125.0863095  48.9290421 126.8059170 126.4977937
  48.6708198 127.7276240 126.4962267  48.3975461 126.4089604 127.1878401
  46.4801186 125.2536210 119.7212379  46.6017097 124.3252856 119.9203267
  46.1903228 125.2674896 118.8090695  49.3492376 122.9391120 122.8579099
  49.3714073 123.0030453 121.9031079  49.7660435 122.0995629 123.0519605
  59.7276000 132.6746380 120.8958322  60.1707147 131.9253705 120.4977445
  58.8502511 132.6656516 120.5132054  54.8611782 139.2276721 116.3764920
  55.5562686 139.8483414 116.5952235  55.2034932 138.3772072 116.6517298
  56.7603205 136.6776427 117.9052251  57.2854529 137.0163699 117.1801571
  56.6725557 135.7423442 117.7215386  48.1941554 127.5199579 130.6848671
  47.3244863 127.8133146 130.4131259  48.4301034 128.1040024 131.4055934
  59.2708865 134.1451618 123.2880769  60.1055757 134.5841422 123.4518330
  59.4067994 133.6690271 122.4689015  43.2083878 132.8655520 118.8189335
  42.9629920 131.9617850 119.0169545  43.3779792 132.8672670 117.8768813
  50.8980588 123.7379196 128.2014091  51.4162531 124.4740223 127.8760580
  50.5435720 124.0443190 129.0360850  42.4779525 128.5983878 116.3175497
  41.7848770 128.6728233 115.6615533  42.2331277 127.8344221 116.8397014
  51.1493182 120.1579479 123.7214988  51.4294936 119.4902668 124.3475414
  51.9343789 120.3508575 123.2089651  55.0202040 128.5797113 127.4686563
  55.9719463 128.6795211 127.4898787  54.8505491 127.7875381 127.9784647
  53.0416420 125.6652696 127.6545964  52.4466352 125.9457709 126.9592452
  52.7566116 126.1546597 128.4262705  54.8011927 138.9341493 113.3752544
  54.7225558 138.6001357 114.2688302  55.6221593 139.4263261 113.3744016
  57.4990118 131.8003233 126.5828862  57.4666438 130.8619233 126.7688546
  58.1090742 131.8787269 125.8494687  49.3373449 130.6699286 112.6256066
  50.2832553 130.5405494 112.6944484  48.9587694 129.9313947 113.1025495
  57.6484606 128.5914276 126.6287146  57.1323655 127.8072733 126.4417074
  58.5324555 128.2632993 126.7933665  55.3095333 122.3355292 122.5882958
  55.1120154 122.0270380 123.4726290  55.9195039 123.0616931 122.7180888
  47.5216366 128.5949262 112.5610952  46.6147821 128.2982375 112.6373665
  47.7992347 128.2979080 111.6945238  38.4394306 129.9155625 123.0109998
  38.1197091 129.0620934 122.7184372  37.8927734 130.1304204 123.7667965
  49.1378432 123.1386152 118.7155193  48.3279160 122.7933237 119.0910439
  49.8262849 122.8293695 119.3042804  51.0668980 122.2164198 120.3379490
  51.6200019 122.6359652 120.9969513  51.3039066 121.2899947 120.3802446
  46.2915151 125.4536197 112.7022931  47.1534315 125.7791095 112.9618748
  46.4765495 124.6667693 112.1895997  54.4447787 124.3264724 119.8458154
  53.8646456 124.9849528 119.4636206  54.1783720 123.5042068 119.4345571
  52.8951353 123.7269781 122.0479474  53.3951132 123.8386316 121.2393793
  53.5386961 123.4230834 122.6880283  40.2219309 133.4676791 122.8569134
  40.1989997 133.5664478 121.9051018  40.5319945 134.3141941 123.1786301
  53.2272665 126.4864814 118.9014502  52.3398520 126.7714465 118.6834697
  53.6426654 126.3258577 118.0541779  56.5787201 126.5111335 122.6168841
  57.3547591 127.0007787 122.8893458  55.8535335 126.9369389 123.0740711
  59.0159760 127.2238954 123.6742782  59.6104251 126.9834690 122.9636090
  59.0886343 126.5046085 124.3016318  52.3715878 136.2509489 112.9962522
  53.0751729 136.4559491 113.6120178  51.6478527 136.8186251 113.2611606
  53.2013689 132.0019350 119.1164792  53.1448890 132.4587901 118.2772425
  53.7542031 131.2410035 118.9387635  57.0118495 127.7909082 119.9414912
  56.7555429 127.3905717 120.7723119  56.3871363 128.5052876 119.8165051
  61.3230833 130.5305155 122.4486203  60.7630391 130.5998344 123.2217765
  60.7174336 130.3546140 121.7285699  54.2802576 136.6892018 115.0460982
  55.1148180 136.2573216 114.8638457  54.1186919 136.5174032 115.9737877
  53.9348468 133.1924131 116.4117321  53.8797272 133.0268403 115.4705765
  53.3094523 133.9000164 116.5679511  47.2444594 122.6932240 115.9902640
  47.2323263 123.6374080 116.1470911  48.1368015 122.5102386 115.6962101
  51.0596713 119.2875017 120.2448577  50.2929109 118.7333504 120.3905259
  51.4707418 119.3596886 121.1062728  57.7169512 137.9866353 120.2675119
  57.0633924 137.6715370 119.6431734  57.6749986 137.3642093 120.9934942
  59.9772186 138.4678069 118.7155193  59.1672914 138.1225154 119.0910439
  60.6656603 138.1585613 119.3042804  61.9062734 137.5456116 120.3379490
  62.4593773 137.9651570 120.9969513  62.1432821 136.6191864 120.3802446
  58.0838348 138.0224158 115.9902640  58.0717018 138.9665998 116.1470911
  58.9761770 137.8394303 115.6962101  61.8990467 134.6166935 120.2448577
  61.1322863 134.0625421 120.3905259  62.3101172 134.6888803 121.1062728
   2.2488729  36.1975501 108.5957289   1.5639767  36.5774402 108.0454322
   2.3332578  36.8070827 109.3289237   2.3867130  34.2031094 104.3639183
   1.6096573  33.8642253 103.9194345   3.0658611  34.2083717 103.6894148
   2.7855627  33.2174800 106.8262105   2.6473526  33.4076396 105.8983294
   2.4291846  33.9794183 107.2830156   5.5307229  33.0348914 107.6203628
   5.9738375  32.2856239 107.2222752   4.6533740  33.0259050 107.2377360
   0.6643011  39.5879255 103.1010227   1.3593915  40.2085948 103.3197542
   1.0066161  38.7374607 103.3762605   2.5634434  37.0378961 104.6297558
   3.0885758  37.3766234 103.9046878   2.4756786  36.1025976 104.4460692
   0.6043156  39.2944028 100.0997850   0.5256787  38.9603891 100.9933608
   1.4252822  39.7865795 100.0989323   8.7118080  47.5664203 111.8661465
   9.3496490  47.4470951 111.1624806   8.5938923  48.5145047 111.9249418
   5.5207786  47.5191631 111.8022990   5.1826298  47.4032696 110.9143525
   6.3897554  47.1182796 111.7823996   1.3794602  49.3727108 107.7919881
   0.8159467  49.2817045 107.0236169   1.2646997  48.5527012 108.2722374
   6.9594160  53.0398075 103.1034346   6.3082140  53.6252156 102.7168360
   7.7538523  53.5704270 103.1629383   0.8849788  50.1287213 103.5021480
   1.6580664  49.5816200 103.3634356   1.2375187  50.9931462 103.7135942
   2.7234830  51.4563595 116.7088380   2.4324696  52.3609226 116.5935046
   3.3591815  51.4980122 117.4232449   3.6491037  48.8340443 113.2989739
   4.2454609  48.6096466 112.5846702   3.7066009  48.0925189 113.9015187
   3.2216065  46.2879879 101.1339930   3.4741586  45.7661400 100.3723393
   2.2840625  46.1246024 101.2366614   8.2659348  45.2915657 108.9414673
   9.0522438  44.8735080 108.5905091   8.5298053  46.1961749 109.1096322
   8.4369426  50.7288507 103.6403330   7.8015259  50.8023134 104.3524235
   8.1066832  51.3182106 102.9622410  13.6667775  45.2290890 109.8447652
  14.3992947  44.6590107 110.0785481  12.9107131  44.8412491 110.2854158
   2.9412354  48.1907985 103.3364305   2.8248612  47.5152888 104.0045390
   3.0514614  47.7040359 102.5196458   5.2843895  47.6518132 107.0410994
   4.9202102  47.1248753 107.7523916   6.1411011  47.2616601 106.8677480
   4.9249382  42.6808031 102.0372343   5.0923784  43.5488268 102.4042814
   4.7346551  42.8435313 101.1133632   7.6824715  51.1425010 113.7038173
   7.3825438  52.0450049 113.5953981   7.3375775  50.8757194 114.5559326
  11.0821859  43.6607551 111.3835611  10.1738736  43.5922959 111.0894372
  11.0309455  44.1379495 112.2117436   4.9038603  45.1365689 103.0219010
   4.7838228  45.5822740 103.8604490   4.2091191  45.4851007 102.4632548
   2.6645495  57.9069331 106.6709141   2.5869525  58.8577156 106.7497622
   2.0607139  57.5615203 107.3284067  12.9483505  41.8623989 113.1613485
  12.3057886  42.1556522 112.5153279  12.4438434  41.7476909 113.9666681
  10.6023669  45.6087162 103.8499344  11.5141525  45.8414549 103.6747041
  10.0933316  46.1924206 103.2874422   8.8864437  50.0311790 117.4860636
   9.2947793  49.5894200 116.7415269   8.1641698  49.4564417 117.7394829
   9.2093251  50.5912981 111.2412925   8.5802114  50.7558695 110.5388993
   8.8218914  51.0054590 112.0123889  13.0882483  51.5267418 108.5957289
  12.4033521  51.9066320 108.0454322  13.1726333  52.1362745 109.3289237
  10.3433415  49.1727377 115.1952633  10.5550310  49.8159137 114.5187014
  10.2963163  48.3389694 114.7274563   7.9459644  41.7845198 112.0989205
   7.0844123  42.0826452 112.3905942   7.9722079  42.0015597 111.1670237
   4.7621213  50.3287389 108.5063010   5.2259559  50.6075092 107.7167633
   4.4978011  49.4270833 108.3236101   1.6545294  49.8758870 111.4442774
   2.2246651  50.3046139 110.8060258   2.2453406  49.5941455 112.1426959
   3.6990099  46.4510541 105.3152576   4.4014143  46.9031585 105.7826502
   3.3670728  45.8094360 105.9432469  11.4579243  52.0499333 113.3674990
  12.2796687  51.6479520 113.0857672  11.4541646  51.9467567 114.3191106
   5.2235846  51.5983376 115.5235700   5.2880279  52.0603783 116.3593872
   4.5146770  50.9680741 115.6518010  19.5485236  48.3938081 109.7159961
  18.7948944  47.8245479 109.5603966  19.6832777  48.3600746 110.6630596
   4.9383864  53.2651484 105.3914681   4.8029539  54.1103019 105.8199529
   5.4793677  53.4670761 104.6280615   6.5652340  53.8875050 119.5215023
   6.1216195  53.1011429 119.2035927   7.2269554  54.0754201 118.8558914
   1.3239462  55.4170852 114.0475701   1.8746887  55.2887915 113.2752695
   0.4850937  55.7165741 113.6970594   8.6633578  54.1677850 117.5496424
   8.6452054  54.9886731 117.0576693   9.5853498  54.0431925 117.7746565
   8.2526610  46.7790657 102.4286009   7.7373234  47.5495261 102.6674397
   7.9803919  46.1055793 103.0519071   5.8373721  41.6240357 107.4871248
   4.9815318  41.2347208 107.3076886   6.2500673  41.7032318 106.6271033
   7.3672868  39.1586701 111.8862807   6.8637664  39.1216836 111.0730613
   7.6603475  40.0679443 111.9459464  13.2260884  49.5323011 104.3639183
  12.4490327  49.1934171 103.9194345  13.9052365  49.5375634 103.6894148
   8.0412913  44.6517749 104.2545791   7.7363049  44.9663898 105.1055934
   8.9943356  44.7299169 104.2973124   6.4859345  50.8107972 105.9038744
   5.9580707  50.0760732 105.5911982   5.9846848  51.5882648 105.6578713
  11.4652191  49.0056993 111.0205791  10.8075866  49.6956254 111.1085919
  12.2692591  49.3953424 111.3639777   1.2178073  41.4727638 108.2645356
   1.7921825  41.2502820 107.5318549   1.8049055  41.5416333 109.0173957
  10.2757650  47.3601365 109.0709733  10.7889532  47.9931357 109.5731442
  10.9258874  46.7602561 108.7053093   1.5447660  43.5032099 102.2841241
   0.7084972  43.8406786 102.6050516   1.4052430  43.3681079 101.3468378
   3.5200741  38.3468887 106.9920425   2.8665153  38.0317904 106.3677040
   3.4781215  37.7244628 107.7180248   4.6311945  48.6288182  98.9073718
   3.7239007  48.3977436  99.1064867   5.1282977  47.8325802  99.0947699
   7.5380024  57.3385690 101.8270404   6.8641723  57.6417386 102.4355362
   7.9245846  58.1414770 101.4775861   6.7538481  44.8350821 111.3168073
   5.8361042  45.0565768 111.1589761   7.1698625  44.9097131 110.4579780
   7.5373529  46.2342236 106.4470753   8.2845348  46.7463634 106.1377875
   7.8065118  45.9126289 107.3075147   5.8100179  48.7300777 103.4297708
   4.9011398  48.4459810 103.5270177   5.8395263  49.1499856 102.5701014
  11.0419446  52.3407367 107.1988875  10.5881773  51.4998277 107.2554066
  10.4113413  52.9768765 107.5363655   9.9852366  43.2699353 108.4289543
   9.2475123  42.7576739 108.7599785  10.2379139  42.8299734 107.6172820
   9.4852386  54.1783863 108.1338693   9.7775360  54.7388920 107.4151059
   9.9951006  54.4712424 108.8891852  10.0863993  36.0475605 109.0231312
  10.3922870  35.1872968 108.7357227  10.8116598  36.6393225 108.8230306
   4.3585073  46.3429398 109.5307503   4.4133683  45.3903234 109.4549980
   3.5476275  46.4988837 110.0148801   5.5076267  50.2709521 100.7685786
   5.0695697  49.5545380 100.3091424   6.2486708  50.4985636 100.2070878
   2.2977433  44.9606458 107.2897882   1.4845298  45.2600628 107.6963074
   2.7936427  44.5662146 108.0072364   4.4486011  54.9564214 109.2232147
   4.4062190  55.1825061 108.2940679   5.3648710  54.7227589 109.3717948
  13.6249382  48.5466718 106.8262105  13.4867280  48.7368314 105.8983294
  13.2685600  49.3086101 107.2830156  13.6518761  50.6143245 111.8373376
  14.0855268  50.5218534 112.6856430  14.3650342  50.5900745 111.1993392
   2.5651812  51.8327243 109.0194109   3.3592410  51.3377564 108.8176684
   1.8543504  51.3045107 108.6561815   7.3846656  54.2145339 113.3706477
   7.4383678  54.7836275 114.1384193   6.5161437  54.3847224 113.0060514
  14.5134311  50.6566946 114.3706262  14.7070201  51.5612756 114.6165537
  14.4134929  50.1974365 115.2044847   9.5749419  50.8073688 119.9447142
   9.4234926  50.5784240 119.0277226   9.5654099  51.7644290 119.9578487
   6.3434756  48.3805601 114.9293409   7.2726816  48.5316761 114.7562376
   5.9225786  48.4689622 114.0742055   5.1423088  52.4056265 112.6991946
   5.0034173  52.0375050 113.5717884   4.3537684  52.9203905 112.5275904
   5.7371240  57.5065362 104.0417483   5.9122995  57.0353405 104.8563106
   5.0504028  58.1331128 104.2698744   6.6928303  51.7837868 110.0880784
   6.3578135  51.7438638 110.9838434   6.1932248  51.1182584 109.6151194
   9.6287494  49.1293903 100.3617844   9.0116665  48.4040731 100.2650896
   9.1603983  49.8903263 100.0184918  11.2841626  53.8392811 118.0223624
  11.2254172  53.1552031 117.3554207  11.6861144  54.5811801 117.5704250
   1.4186040  43.3479327  99.4839148   0.5415507  43.2268128  99.1201395
   1.8943793  42.5565405  99.2318037  11.2859033  51.8032395 116.2537604
  10.3985812  51.4658317 116.3764003  11.8557584  51.0715426 116.4906369
   4.8160187  56.4633847 113.2198847   4.7430358  57.2688819 113.7318152
   4.3737580  56.6625813 112.3946868   4.6049966  55.7005617 106.7301669
   3.8217488  56.2427297 106.8239893   5.3042711  56.2179597 107.1295910
   7.9146616  41.5100247 109.3735874   8.4115316  40.7570209 109.0536944
   7.1433598  41.5464563 108.8079083  15.7676374  47.2140612 111.0154165
  15.7566250  48.0965328 110.6448099  14.8993753  46.8612163 110.8208703
   7.2758870  56.3620681 115.3757006   7.9886842  56.9968146 115.3032907
   6.7848899  56.4584547 114.5597008   8.9976397  50.2671934 106.9474297
   8.0632676  50.3873396 106.7779002   9.1753066  49.3644401 106.6834307
   4.4981585  43.6517630 109.1007559   4.1279373  43.0988670 109.7888464
   4.9940678  43.0475763 108.5482559  12.3848948  46.1089253 107.4824331
  12.8509401  46.9417245 107.4084634  12.8356449  45.6434235 108.1869590
   2.3270784  54.1115125 116.1962577   3.0280243  54.7451608 116.3491971
   1.8565899  54.4529856 115.4358216  10.4525180  52.4533074 104.4810484
  10.7285023  52.3389669 105.3904358   9.5829678  52.0550559 104.4422657
  10.3565611  38.4769840 111.5215233   9.4428691  38.7074067 111.6897440
  10.7858713  38.5608284 112.3729265  10.1272070  46.6659732 114.0215127
   9.4743520  46.9135640 113.3667580  10.5052450  45.8523870 113.6877604
   7.0879244  56.7019425 108.1243297   7.2701638  55.8841081 108.5871049
   7.9112230  56.9187118 107.6868187   7.4221409  55.6287610 105.3858346
   7.9509175  55.1180065 104.7728508   7.6849629  55.3130141 106.2503879
   4.9182426  58.7146471 114.7438780   5.4700734  58.8778092 115.5087865
   5.2588619  59.3050908 114.0718805   9.7693300  53.5407728 120.5987434
  10.3133204  54.1537686 120.1042389   9.1880145  54.0987307 121.1154447
   8.0550813  56.6628446 111.7302462   7.9301952  55.8618186 111.2213408
   8.7129904  57.1574639 111.2416432  10.1185721  54.4637466 113.3582012
   9.1716057  54.3442817 113.2860339  10.4668494  53.5759964 113.4408274
   7.1232155  54.2590182 109.5586364   6.9757117  53.3306890 109.7393934
   7.9485648  54.2810273 109.0743440   0.9894399  42.9108250 105.4166857
   1.3290471  43.4394171 104.6945465   1.4366519  43.2488656 106.1925423
  10.7266276  55.0818741 110.6451237  11.6512824  54.8761603 110.5075688
  10.5581580  54.8335142 111.5540579   2.9762546  41.4082871 103.6160149
   3.6970908  41.7864124 103.1123866   2.3527850  42.1271748 103.7195127
   7.1193669  42.1128020 104.5518482   7.3357283  42.9952658 104.2507310
   6.6387736  41.7214233 103.8224124   1.8592890  45.0713733 111.1289226
   1.7137471  45.3854036 112.0213508   1.3818094  45.6898634 110.5760125
   3.7189273  42.0616281 111.1770116   3.7050842  41.1657375 110.8402414
   4.4361701  42.0686945 111.8108402  10.5161593  55.6004409 106.0013329
  10.6898470  55.0350831 105.2487181  11.0090484  56.4005303 105.8192819
   3.1226169  40.9430662 106.4457686   3.2442080  40.0147308 106.6448573
   2.8328211  40.9569348 105.5336001   5.9917359  38.6285572 109.5824406
   6.0139056  38.6924905 108.6276385   6.4085418  37.7890081 109.7764912
  16.3700984  48.3640832 107.6203628  16.8132130  47.6148157 107.2222752
  15.4927494  48.3550968 107.2377360  11.5036765  54.9171173 103.1010227
  12.1987670  55.5377866 103.3197542  11.8459915  54.0666524 103.3762605
  13.4028188  52.3670879 104.6297558  13.9279512  52.7058151 103.9046878
  13.3150541  51.4317894 104.4460692   5.0648237  56.2804952 116.7587434
   5.3735363  56.0354099 117.6310134   5.8623719  56.4851591 116.2706305
   5.0868849  58.4342862 108.9892811   4.6473839  57.9419241 109.6825668
   5.8376966  57.8915829 108.7484886   2.5342721  53.9780871 111.0615113
   1.9122730  53.3151576 110.7617340   3.2047588  54.0042003 110.3788760
  13.0922094  53.0003782 119.9348756  12.3017638  52.9827921 119.3953255
  12.8555449  53.5392076 120.6897792  13.2119969  49.8496249 117.2481484
  13.2617974  49.6846256 118.1897007  13.1033893  48.9823508 116.8579365
   2.0956228  52.5284794 104.5373573   2.2444348  53.2120259 103.8840246
   2.9022671  52.5089884 105.0523029  14.7138166  52.2693190 117.4923506
  14.4222974  52.6323171 118.3286967  14.1010297  51.5560198 117.3136838
  15.9133848  49.8346070 110.0126076  16.7480740  50.2735874 110.1763636
  16.0492977  49.3584723 109.1934322  12.9625354  47.3925805 115.9603564
  13.4379476  47.5853451 115.1522415  12.0390920  47.4484991 115.7146947
   5.5951634  55.0232925 102.0085320   5.0225601  55.6423112 101.5555792
   6.1684427  55.5732286 102.5425242  11.6627023  44.2691565 114.1931869
  12.6144446  44.3689662 114.2144093  11.4930474  43.4769833 114.7029954
   9.6841403  41.3547148 114.3791270   9.0891335  41.6352161 113.6837759
   9.3991100  41.8441049 115.1508011   8.8148893  55.3070075 103.1393903
   9.7479566  55.2415637 103.3426778   8.7272106  56.1426342 102.6808435
  11.4436910  54.6235945 100.0997850  11.3650542  54.2895809 100.9933608
  12.2646577  55.1157713 100.0989323  14.1415101  47.4897684 113.3074169
  14.1091421  46.5513685 113.4933853  14.7515725  47.5681721 112.5739994
   5.9798432  46.3593737  99.3501373   6.9257537  46.2299946  99.4189791
   5.6012677  45.6208399  99.8270801  14.2909590  44.2808728 113.3532452
  13.7748638  43.4967185 113.1662381  15.1749538  43.9527445 113.5178972
  11.9520317  38.0249743 109.3128265  11.7545138  37.7164832 110.1971597
  12.5620022  38.7511382 109.4426195  19.9591651  48.5513691 112.4480206
  20.6895040  48.2898979 113.0087909  19.3498597  47.8142413 112.4882274
  18.0406948  46.6921554 113.0454657  17.3140112  46.5577519 112.4371149
  17.6254235  46.9998383 113.8511375   4.1641349  44.2843714  99.2856258
   3.2572805  43.9876827  99.3618972   4.4417330  43.9873532  98.4190544
   5.7803415  38.8280604 105.4400500   4.9704143  38.4827689 105.8155746
   6.4687832  38.5188147 106.0288111   7.7093963  37.9058650 107.0624796
   8.2625002  38.3254104 107.7214819   7.9464050  36.9794398 107.1047752
   2.9340134  41.1430649  99.4268237   3.7959298  41.4685547  99.6864055
   3.1190478  40.3562145  98.9141303  11.0872770  40.0159176 106.5703460
  10.5071439  40.6743980 106.1881513  10.8208703  39.1936520 106.1590878
   9.5376337  39.4164233 108.7724781  10.0376115  39.5280768 107.9639100
  10.1811945  39.1125286 109.4125589   9.8697648  42.1759266 105.6259809
   8.9823503  42.4608917 105.4080003  10.2851637  42.0153029 104.7787086
  13.2212184  42.2005787 109.3414148  13.9972575  42.6902239 109.6138765
  12.4960319  42.6263841 109.7986017  15.6584743  42.9133406 110.3988089
  16.2529234  42.6729142 109.6881397  15.7311327  42.1940537 111.0261625
   9.0140862  51.9403941  99.7207829   9.7176712  52.1453943 100.3365484
   8.2903511  52.5080702  99.9856912   9.8438672  47.6913802 105.8410099
   9.7873873  48.1482353 105.0017731  10.3967015  46.9304486 105.6632942
  13.6543478  43.4803534 106.6660218  13.3980412  43.0800169 107.4968426
  13.0296346  44.1947328 106.5410357  17.9655816  46.2199607 109.1731510
  17.4055374  46.2892796 109.9463072  17.3599319  46.0440592 108.4531006
  10.9227559  52.3786470 101.7706289  11.7573163  51.9467668 101.5883764
  10.7611902  52.2068483 102.6983183  10.5773451  48.8818583 103.1362628
  10.5222255  48.7162855 102.1951072   9.9519507  49.5894616 103.2924818
   3.8869577  38.3826692 102.7147946   3.8748247  39.3268532 102.8716217
   4.7792999  38.1996838 102.4207408   2.0605539  58.3064596 114.1405624
   2.9632785  58.3388206 114.4572119   1.8342909  57.3765047 114.1551960
   3.8159141  57.0595582 110.8015703   2.8654772  57.0597444 110.6880075
   4.1191627  56.3128317 110.2851738   7.7021696  34.9769469 106.9693883
   6.9354092  34.4227955 107.1150566   8.1132401  35.0491337 107.8308035
  19.5511834  62.8956121 111.8661465  20.1890244  62.7762868 111.1624806
  19.4332677  63.8436965 111.9249418  16.3601541  62.8483549 111.8022990
  16.0220052  62.7324614 110.9143525  17.2291309  62.4474714 111.7823996
  12.2188356  64.7019025 107.7919881  11.6553221  64.6108962 107.0236169
  12.1040751  63.8818930 108.2722374  16.8421324  64.0018401 117.7609196
  16.8309964  63.6071199 116.8889699  17.0041963  63.2684473 118.3542967
   9.7652788  66.1970217 110.6304102  10.5574080  65.8561042 110.2150401
  10.0049438  66.3065192 111.5506255  17.7987915  68.3689993 103.1034346
  17.1475895  68.9544074 102.7168360  18.5932278  68.8996188 103.1629383
  11.7243542  65.4579130 103.5021480  12.4974418  64.9108117 103.3634356
  12.0768941  66.3223380 103.7135942  13.5628585  66.7855513 116.7088380
  13.2718451  67.6901143 116.5935046  14.1985569  66.8272040 117.4232449
  14.4884792  64.1632361 113.2989739  15.0848364  63.9388383 112.5846702
  14.5459763  63.4217107 113.9015187  14.0609820  61.6171796 101.1339930
  14.3135341  61.0953318 100.3723393  13.1234379  61.4537942 101.2366614
  19.1053103  60.6207575 108.9414673  19.8916192  60.2026998 108.5905091
  19.3691807  61.5253667 109.1096322  19.2763180  66.0580425 103.6403330
  18.6409013  66.1315052 104.3524235  18.9460587  66.6474024 102.9622410
  24.5061530  60.5582808 109.8447652  25.2386702  59.9882025 110.0785481
  23.7500886  60.1704408 110.2854158  13.7806109  63.5199902 103.3364305
  13.6642367  62.8444806 104.0045390  13.8908369  63.0332276 102.5196458
  16.1237650  62.9810049 107.0410994  15.7595857  62.4540670 107.7523916
  16.9804766  62.5908518 106.8677480  22.0286950  54.2704382 114.3042261
  21.6970275  55.1399793 114.0803476  21.4332564  53.9540666 114.9836291
  15.7643137  58.0099949 102.0372343  15.9317539  58.8780186 102.4042814
  15.5740306  58.1727231 101.1133632  18.5218470  66.4716928 113.7038173
  18.2219193  67.3741967 113.5953981  18.1769529  66.2049111 114.5559326
  11.9730951  62.9230725 109.7374878  11.0481448  62.7906939 109.9452570
  12.2215364  63.7024944 110.2344820  21.9215614  58.9899468 111.3835611
  21.0132491  58.9214877 111.0894372  21.8703209  59.4671413 112.2117436
  15.7432357  60.4657607 103.0219010  15.6231983  60.9114657 103.8604490
  15.0484946  60.8142924 102.4632548   9.3339762  62.5663998 110.5718667
   9.4632143  62.8198477 111.4858079   8.6537214  63.1591706 110.2523322
  13.5039250  73.2361248 106.6709141  13.4263279  74.1869073 106.7497622
  12.9000893  72.8907121 107.3284067  15.9956479  60.4089114 119.3270508
  15.2189813  60.9683034 119.3173373  16.6347042  60.8945897 119.8485378
  23.7877260  57.1915907 113.1613485  23.1451640  57.4848440 112.5153279
  23.2832188  57.0768827 113.9666681  21.4417424  60.9379080 103.8499344
  22.3535280  61.1706467 103.6747041  20.9327071  61.5216124 103.2874422
  14.2502852  63.2174567 118.8888475  14.9917536  63.7559611 118.6123299
  13.5439837  63.8440856 119.0460027  19.7258191  65.3603708 117.4860636
  20.1341547  64.9186118 116.7415269  19.0035453  64.7856335 117.7394829
  16.0789261  60.2976314 114.8594193  16.9250457  60.7215728 115.0028842
  16.0187899  59.6409939 115.5532756  20.0487006  65.9204898 111.2412925
  19.4195868  66.0850612 110.5388993  19.6612668  66.3346508 112.0123889
  23.9276238  66.8559336 108.5957289  23.2427276  67.2358237 108.0454322
  24.0120087  67.4654663 109.3289237  19.2288707  57.9580683 116.5175367
  18.9849639  58.7122743 115.9809643  19.5048637  58.3366030 117.3522614
  21.1827169  64.5019295 115.1952633  21.3944065  65.1451055 114.5187014
  21.1356918  63.6681612 114.7274563  18.7853398  57.1137116 112.0989205
  17.9237877  57.4118369 112.3905942  18.8115833  57.3307515 111.1670237
  15.6014968  65.6579306 108.5063010  16.0653313  65.9367009 107.7167633
  15.3371766  64.7562751 108.3236101  12.4939049  65.2050788 111.4442774
  13.0640406  65.6338056 110.8060258  13.0847161  64.9233373 112.1426959
  14.5383854  61.7802459 105.3152576  15.2407897  62.2323502 105.7826502
  14.2064482  61.1386278 105.9432469  12.9864215  60.3714215 119.6903785
  12.3562876  61.0530496 119.9239182  12.8800303  60.2597297 118.7456923
   8.2809188  60.0386011 110.6169709   7.4908242  60.2943540 110.1409820
   8.7720435  60.8534349 110.7221750  22.2972997  67.3791251 113.3674990
  23.1190441  66.9771438 113.0857672  22.2935400  67.2759485 114.3191106
  10.2323933  60.4030591 107.5753186   9.4355096  60.5149285 108.0936681
  10.0049525  60.7417243 106.7094076  16.0629601  66.9275294 115.5235700
  16.1274033  67.3895701 116.3593872  15.3540525  66.2972659 115.6518010
   6.5646891  60.2916502 113.0484700   6.8154929  61.1763512 113.3142276
   7.1006439  60.1121103 112.2759792  30.3878990  63.7229999 109.7159961
  29.6342699  63.1537397 109.5603966  30.5226532  63.6892664 110.6630596
  15.7777618  68.5943401 105.3914681  15.6423293  69.4394937 105.8199529
  16.3187431  68.7962679 104.6280615  12.2644958  54.6734981 122.0529036
  11.8711904  54.1201180 122.7276680  13.0811098  54.9845560 122.4435554
   9.2307016  66.1118839 105.9642606   9.7431536  66.9062090 106.1148171
   9.8829729  65.4145130 105.8976207  11.0401901  69.2284596 108.0465359
  11.2168529  70.1502560 107.8586343  11.8358734  68.9143015 108.4759739
  15.1812919  56.0892860 119.6449293  15.9222632  56.6900013 119.5653755
  15.4130842  55.3470498 119.0867335  10.3254257  61.2749228 117.9227522
  10.2107772  60.3734485 118.2234621   9.4698775  61.5212924 117.5712339
  17.4046095  69.2166968 119.5215023  16.9609949  68.4303346 119.2035927
  18.0663308  69.4046118 118.8558914  12.1633216  70.7462769 114.0475701
  12.7140641  70.6179833 113.2752695  11.3244692  71.0457658 113.6970594
  19.5027333  69.4969768 117.5496424  19.4845808  70.3178649 117.0576693
  20.4247253  69.3723843 117.7746565  15.9600387  67.0113897 118.3919932
  16.4928724  66.2502185 118.1619240  15.4314468  66.7187549 119.1344087
  19.1270082  52.1173963 113.9213574  18.7834351  53.0075605 113.8452685
  19.4949045  51.9275621 113.0583159   7.1955933  64.4407494 106.7402176
   8.0331155  64.8504502 106.5235884   7.3734200  63.5006936 106.7102370
  19.0920365  62.1082574 102.4286009  18.5766988  62.8787179 102.6674397
  18.8197673  61.4347710 103.0519071  16.6767476  56.9532275 107.4871248
  15.8209072  56.5639126 107.3076886  17.0894428  57.0324236 106.6271033
  18.2066622  54.4878618 111.8862807  17.7031418  54.4508754 111.0730613
  18.4997229  55.3971361 111.9459464  14.4509508  54.5717348 110.8928989
  15.3162505  54.3760157 110.5334879  14.5187017  54.3427700 111.8198346
  24.0654639  64.8614929 104.3639183  23.2884082  64.5226088 103.9194345
  24.7446120  64.8667552 103.6894148  18.8806668  59.9809666 104.2545791
  18.5756804  60.2955816 105.1055934  19.8337110  60.0591086 104.2973124
  17.3253100  66.1399890 105.9038744  16.7974461  65.4052649 105.5911982
  16.8240603  66.9174566 105.6578713  22.3045946  64.3348910 111.0205791
  21.6469620  65.0248172 111.1085919  23.1086345  64.7245342 111.3639777
  12.0571827  56.8019556 108.2645356  12.6315579  56.5794738 107.5318549
  12.6442810  56.8708251 109.0173957  21.1151405  62.6893283 109.0709733
  21.6283286  63.3223275 109.5731442  21.7652629  62.0894478 108.7053093
  12.3841415  58.8324017 102.2841241  11.5478727  59.1698704 102.6050516
  12.2446184  58.6972997 101.3468378  14.3594495  53.6760805 106.9920425
  13.7058907  53.3609822 106.3677040  14.3174969  53.0536545 107.7180248
  15.4705700  63.9580100  98.9073718  14.5632762  63.7269353  99.1064867
  15.9676732  63.1617719  99.0947699  17.5932235  60.1642738 111.3168073
  16.6754797  60.3857685 111.1589761  18.0092379  60.2389049 110.4579780
  18.3767283  61.5634154 106.4470753  19.1239102  62.0755551 106.1377875
  18.6458873  61.2418207 107.3075147  16.6493933  64.0592695 103.4297708
  15.7405153  63.7751728 103.5270177  16.6789017  64.4791773 102.5701014
  21.8813201  67.6699284 107.1988875  21.4275528  66.8290194 107.2554066
  21.2507168  68.3060683 107.5363655  20.8246120  58.5991270 108.4289543
  20.0868877  58.0868657 108.7599785  21.0772894  58.1591652 107.6172820
  20.3246140  69.5075781 108.1338693  20.6169114  70.0680838 107.4151059
  20.8344761  69.8004342 108.8891852  20.9257748  51.3767522 109.0231312
  21.2316625  50.5164886 108.7357227  21.6510353  51.9685143 108.8230306
   7.2182104  61.7798209 107.4112910   7.0206504  61.1867570 106.6863976
   6.6628768  61.4750419 108.1288849  15.1978827  61.6721315 109.5307503
  15.2527437  60.7195152 109.4549980  14.3870029  61.8280755 110.0148801
  16.3470021  65.6001439 100.7685786  15.9089451  64.8837297 100.3091424
  17.0880462  65.8277553 100.2070878  13.1371187  60.2898375 107.2897882
  12.3239053  60.5892546 107.6963074  13.6330182  59.8954064 108.0072364
  15.2879765  70.2856132 109.2232147  15.2455944  70.5116978 108.2940679
  16.2042464  70.0519507 109.3717948  18.7345399  60.7540200 116.1212776
  19.0894787  60.9811673 116.9807241  19.3817530  61.0858576 115.4990031
  24.4643136  63.8758636 106.8262105  24.3261035  64.0660232 105.8983294
  24.1079355  64.6378018 107.2830156  12.6285262  57.8616731 112.9059117
  13.2684641  57.7205490 112.2082080  11.7962793  57.5751244 112.5297719
  24.4912516  65.9435163 111.8373376  24.9249022  65.8510452 112.6856430
  25.2044096  65.9192663 111.1993392  13.4045566  67.1619161 109.0194109
  14.1986165  66.6669481 108.8176684  12.6937258  66.6337024 108.6561815
  18.2240411  69.5437257 113.3706477  18.2777433  70.1128193 114.1384193
  17.3555192  69.7139142 113.0060514   9.7128330  61.3062243 105.0953862
   8.7825918  61.2446698 105.3123824   9.8085801  60.7838196 104.2990503
   9.6313879  57.8317056 107.6832104   9.8920696  58.7462389 107.5741264
  10.4531051  57.3641498 107.8328716  11.1038804  59.2454813 114.8530928
  11.7761857  59.0372175 114.2043577  10.2768590  59.0476899 114.4136160
  25.3528065  65.9858863 114.3706262  25.5463955  66.8904674 114.6165537
  25.2528683  65.5266282 115.2044847  17.0064376  55.8716754 116.8696589
  16.3592291  56.5706703 116.7761065  17.7765391  56.3052898 117.2372837
  20.4143174  66.1365606 119.9447142  20.2628680  65.9076158 119.0277226
  20.4047853  67.0936207 119.9578487  17.1828510  63.7097519 114.9293409
  18.1120570  63.8608678 114.7562376  16.7619540  63.7981540 114.0742055
  15.9816842  67.7348183 112.6991946  15.8427928  67.3666968 113.5717884
  15.1931438  68.2495823 112.5275904  16.5764994  72.8357280 104.0417483
  16.7516750  72.3645323 104.8563106  15.8897782  73.4623046 104.2698744
  17.5322057  67.1129786 110.0880784  17.1971890  67.0730556 110.9838434
  17.0326003  66.4474502 109.6151194  11.5066301  62.5197416 115.6133365
  11.3686099  61.7877655 116.2144904  12.4171225  62.4306316 115.3317553
  14.1348602  62.2317375 115.1017045  14.8448220  61.5910567 115.0603663
  14.0917910  62.4830270 116.0243226  22.1235380  69.1684729 118.0223624
  22.0647927  68.4843949 117.3554207  22.5254899  69.9103719 117.5704250
  12.8477536  59.2182593 116.9212684  12.3114893  58.7673332 117.5734281
  12.2594244  59.3528502 116.1783149  11.1426079  75.9846642 110.8157343
  11.3822678  76.6165167 111.4936362  10.2995276  75.6334682 111.1022702
  12.2579795  58.6771244  99.4839148  11.3809261  58.5560045  99.1201395
  12.7337548  57.8857323  99.2318037  22.1252788  67.1324312 116.2537604
  21.2379567  66.7950234 116.3764003  22.6951339  66.4007344 116.4906369
   3.7781935  63.4648404 109.5780655   4.4652975  63.1510134 108.9901671
   3.6230064  64.3689769 109.3047907   8.5816657  58.3538601 114.0065679
   8.4974846  57.7464270 113.2716089   7.7599363  58.8447619 114.0075175
  15.6553941  71.7925765 113.2198847  15.5824113  72.5980736 113.7318152
  15.2131334  71.9917731 112.3946868  15.4443721  71.0297535 106.7301669
  14.6611243  71.5719215 106.8239893  16.1436466  71.5471514 107.1295910
  18.7540371  56.8392164 109.3735874  19.2509070  56.0862127 109.0536944
  17.9827352  56.8756481 108.8079083  26.6070128  62.5432530 111.0154165
  26.5960005  63.4257245 110.6448099  25.7387508  62.1904081 110.8208703
  18.1152625  71.6912599 115.3757006  18.8280597  72.3260064 115.3032907
  17.6242653  71.7876465 114.5597008  19.8370152  65.5963852 106.9474297
  18.9026430  65.7165314 106.7779002  20.0146820  64.6936318 106.6834307
  15.3375340  58.9809547 109.1007559  14.9673127  58.4280588 109.7888464
  15.8334432  58.3767681 108.5482559  23.2242703  61.4381171 107.4824331
  23.6903155  62.2709162 107.4084634  23.6750203  60.9726152 108.1869590
  13.1664538  69.4407042 116.1962577  13.8673998  70.0743525 116.3491971
  12.6959653  69.7821774 115.4358216  21.1959366  53.8061758 111.5215233
  20.2822445  54.0365985 111.6897440  21.6252467  53.8900202 112.3729265
  20.9665824  61.9951650 114.0215127  20.3137274  62.2427557 113.3667580
  21.3446204  61.1815788 113.6877604  17.9272998  72.0311343 108.1243297
  18.1095393  71.2132999 108.5871049  18.7505984  72.2479035 107.6868187
  18.2615164  70.9579528 105.3858346  18.7902930  70.4471983 104.7728508
  18.5243383  70.6422058 106.2503879  17.0153397  62.7371461 120.5081164
  16.3394034  62.6365590 121.1783539  17.8381031  62.5810675 120.9717161
   8.7632256  68.9743397 113.1293679   9.3485693  68.2287085 113.2621583
   8.5657095  69.2847354 114.0130343  11.6170911  72.0094645 108.1456122
  10.9481287  72.4940772 107.6620162  11.4783781  72.2563865 109.0599500
   3.3549911  61.5448998 111.8498122   3.3934011  61.0112588 112.6435240
   2.8490204  61.0184203 111.2309100  15.7576180  74.0438388 114.7438780
  16.3094488  74.2070010 115.5087865  16.0982374  74.6342826 114.0718805
  10.7340673  56.3913538 115.3460665  10.7982000  57.2528369 114.9338062
  10.6707794  55.7787540 114.6133023  10.2092946  58.4636671 118.9933699
  10.8364985  58.0813748 119.6071223   9.3520865  58.2450873 119.3589391
  20.6087054  68.8699646 120.5987434  21.1526958  69.4829604 120.1042389
  20.0273899  69.4279224 121.1154447   6.9858489  60.2713100 104.9252054
   7.2811930  59.3623778 104.8719107   6.0846524  60.2500839 104.6033056
  18.8944567  71.9920364 111.7302462  18.7695707  71.1910104 111.2213408
  19.5523658  72.4866557 111.2416432  10.5152736  58.3469096 110.9079602
   9.7939321  58.9605064 110.7687076  11.3045991  58.8826861 110.8296248
  20.9579476  69.7929384 113.3582012  20.0109811  69.6734735 113.2860339
  21.3062249  68.9051882 113.4408274  13.3179049  55.6823523 117.1820254
  13.8413451  55.9285819 117.9446563  13.0991382  56.5143558 116.7623391
   8.7146330  57.9527197 105.0491379   8.3859036  57.0724576 104.8666485
   9.0685701  57.8974866 105.9367768  17.9625909  69.5882100 109.5586364
  17.8150871  68.6598808 109.7393934  18.7879403  69.6102191 109.0743440
  11.8288153  58.2400167 105.4166857  12.1684226  58.7686088 104.6945465
  12.2760274  58.5780573 106.1925423  21.5660031  70.4110659 110.6451237
  22.4906578  70.2053520 110.5075688  21.3975334  70.1627060 111.5540579
  14.5231594  56.6237218 114.8669925  14.1828415  55.8245031 115.2690604
  13.8170600  56.9238929 114.2946758  15.1748066  53.7086530 113.3197248
  15.9974135  53.2347009 113.1976138  15.4186130  54.4877014 113.8195934
  13.8156300  56.7374789 103.6160149  14.5364663  57.1156042 103.1123866
  13.1921605  57.4563666 103.7195127  17.9587423  57.4419938 104.5518482
  18.1751038  58.3244576 104.2507310  17.4781490  57.0506151 103.8224124
  12.6986645  60.4005651 111.1289226  12.5531225  60.7145954 112.0213508
  12.2211848  61.0190551 110.5760125  14.5583028  57.3908199 111.1770116
  14.5444596  56.4949292 110.8402414  15.2755456  57.3978863 111.8108402
  16.4109158  57.8245539 113.2223243  16.1526936  58.7462610 113.2207574
  15.8794199  57.4275974 113.9123707   7.1732307  62.9410995 114.0676887
   6.6285775  63.7170803 114.1997162   8.0511657  63.2881800 113.9096009
  13.9619924  56.2722579 106.4457686  14.0835835  55.3439225 106.6448573
  13.6721966  56.2861265 105.5336001  16.8311114  53.9577490 109.5824406
  16.8532811  54.0216823 108.6276385  17.2479173  53.1181998 109.7764912
  27.2094738  63.6932749 107.6203628  27.6525884  62.9440074 107.2222752
  26.3321249  63.6842886 107.2377360   7.9598329  62.0680892 116.9607044
   7.2180065  62.2163527 117.5471675   7.6391073  62.3289157 116.0973794
  15.9041991  71.6096870 116.7587434  16.2129118  71.3646017 117.6310134
  16.7017473  71.8143508 116.2706305  15.9262603  73.7634780 108.9892811
  15.4867594  73.2711158 109.6825668  16.6770720  73.2207747 108.7484886
   8.4054942  69.9546320 108.9917439   9.2312962  69.6550092 108.6116082
   8.0548994  69.1853943 109.4407228  13.3736476  69.3072789 111.0615113
  12.7516485  68.6443494 110.7617340  14.0441342  69.3333920 110.3788760
   6.6063547  67.8732647 109.9506373   5.7695456  67.4454821 109.7690374
   6.5787193  68.0665090 110.8877164  13.4461003  57.7854577 120.6547619
  13.4949159  58.6616699 120.2725388  13.9883517  57.2431970 120.0819262
  23.9315849  68.3295700 119.9348756  23.1411392  68.3119839 119.3953255
  23.6949203  68.8683994 120.6897792  24.0513724  65.1788166 117.2481484
  24.1011729  65.0138174 118.1897007  23.9427647  64.3115425 116.8579365
  12.9349982  67.8576712 104.5373573  13.0838103  68.5412176 103.8840246
  13.7416426  67.8381802 105.0523029  21.3417486  61.1619094 118.5640791
  22.2427349  61.0225559 118.2724789  21.4165461  61.3273549 119.5038968
  15.6760292  58.5385949 117.4093977  14.8063601  58.8319515 117.1376566
  15.9119772  59.1226394 118.1301241  25.5531921  67.5985108 117.4923506
  25.2616729  67.9615088 118.3286967  24.9404052  66.8852116 117.3136838
  26.7527603  65.1637988 110.0126076  27.5874494  65.6027792 110.1763636
  26.8886732  64.6876641 109.1934322  23.8019109  62.7217722 115.9603564
  24.2773230  62.9145369 115.1522415  22.8784674  62.7776908 115.7146947
  10.6902615  63.8841890 105.5434642  10.4448657  62.9804220 105.7414852
  10.8598530  63.8859040 104.6014120  18.3799325  54.7565566 114.9259398
  18.8981269  55.4926593 114.6005886  18.0254458  55.0629559 115.7606157
   9.9598263  59.6170247 103.0420803   9.2667508  59.6914602 102.3860839
   9.7150015  58.8530591 103.5642320  18.6311920  51.1765848 110.4460294
  18.9113673  50.5089038 111.0720721  19.4162526  51.3694944 109.9334958
  16.4345388  70.3524842 102.0085320  15.8619355  70.9715030 101.5555792
  17.0078182  70.9024204 102.5425242  22.5020778  59.5983482 114.1931869
  23.4538201  59.6981580 114.2144093  22.3324228  58.8061751 114.7029954
  20.5235157  56.6839066 114.3791270  19.9285089  56.9644078 113.6837759
  20.2384854  57.1732967 115.1508011  24.9808856  62.8189602 113.3074169
  24.9485176  61.8805603 113.4933853  25.5909479  62.8973639 112.5739994
  16.8192187  61.6885655  99.3501373  17.7651291  61.5591863  99.4189791
  16.4406431  60.9500317  99.8270801  25.1303344  59.6100646 113.3532452
  24.6142393  58.8259102 113.1662381  26.0143293  59.2819362 113.5178972
  22.7914071  53.3541661 109.3128265  22.5938892  53.0456749 110.1971597
  23.4013777  54.0803300 109.4426195  30.7985406  63.8805609 112.4480206
  31.5288794  63.6190897 113.0087909  30.1892351  63.1434331 112.4882274
  28.8800703  62.0213472 113.0454657  28.1533866  61.8869437 112.4371149
  28.4647990  62.3290300 113.8511375  16.7030879  65.7403401 120.8102030
  17.6233889  65.9182000 121.0042076  16.6680462  64.7959447 120.6581729
  15.0035104  59.6135632  99.2856258  14.0966559  59.3168744  99.3618972
  15.2811085  59.3165450  98.4190544   5.9213044  60.9341995 109.7355305
   5.6015828  60.0807303 109.4429679   5.3746472  61.1490573 110.4913272
   9.6992952  63.6504436 113.4524811   9.9178961  64.5821544 113.4712845
  10.1118725  63.2912410 114.2379615  16.6197169  54.1572521 105.4400500
  15.8097898  53.8119606 105.8155746  17.3081586  53.8480065 106.0288111
  18.5487718  53.2350568 107.0624796  19.1018756  53.6546021 107.7214819
  18.7857804  52.3086316 107.1047752  14.5720817  59.2237642 122.8427560
  14.4717544  60.1731999 122.7739651  14.3542359  58.8955881 121.9703630
  13.7733888  56.4722567  99.4268237  14.6353052  56.7977465  99.6864055
  13.9584232  55.6854063  98.9141303   5.7901304  64.5544906 111.7048426
   5.0964775  64.1398859 111.1918381   6.5374295  64.5965443 111.1081845
  21.9266525  55.3451093 106.5703460  21.3465194  56.0035897 106.1881513
  21.6602457  54.5228438 106.1590878  20.3770091  54.7456151 108.7724781
  20.8769870  54.8572685 107.9639100  21.0205699  54.4417204 109.4125589
  14.4352087  62.6534781 121.6592622  13.9519169  63.4535141 121.8656511
  14.5213026  62.6642725 120.7060066   7.7038047  64.4863160 109.5814441
   7.6808735  64.5850847 108.6296324   8.0138683  65.3328311 109.9031607
  10.3625424  66.5439315 113.6961055  11.3168678  66.5123258 113.6290987
  10.1637948  66.0829939 114.5111281  10.9524807  65.1140431 116.2631853
  11.7717696  65.6084510 116.2866690  11.2261614  64.1972399 116.2349421
  20.7091403  57.5051184 105.6259809  19.8217258  57.7900834 105.4080003
  21.1245392  57.3444947 104.7787086  24.0605939  57.5297705 109.3414148
  24.8366329  58.0194157 109.6138765  23.3354073  57.9555759 109.7986017
  26.4978498  58.2425324 110.3988089  27.0922988  58.0021060 109.6881397
  26.5705081  57.5232454 111.0261625   8.7175653  72.0858935 110.7131253
   8.5830121  71.3259336 110.1469251   8.3007716  72.8099835 110.2460042
  20.6832427  63.0205720 105.8410099  20.6267628  63.4774271 105.0017731
  21.2360769  62.2596404 105.6632942  24.4937232  58.8095451 106.6660218
  24.2374167  58.4092087 107.4968426  23.8690100  59.5239245 106.5410357
  28.8049570  61.5491525 109.1731510  28.2449128  61.6184714 109.9463072
  28.1993074  61.3732509 108.4531006  11.8744779  72.9828252 110.9249696
  11.7577163  73.9273684 110.8228386  11.0537225  72.6801813 111.3135495
  21.4167206  64.2110501 103.1362628  21.3616010  64.0454772 102.1951072
  20.7913261  64.9186534 103.2924818   6.2059721  59.4478565 116.9624050
   6.8518584  58.9377519 117.4511275   5.9976872  60.1847247 117.5367475
  18.7313113  66.5159413 122.4616191  19.6004273  66.6900065 122.1002826
  18.2519865  67.3353829 122.3391920  14.7263331  53.7118610 102.7147946
  14.7142001  54.6560450 102.8716217  15.6186753  53.5288755 102.4207408
  12.8999293  73.6356514 114.1405624  13.8026540  73.6680124 114.4572119
  12.6736663  72.7056965 114.1551960  14.6552895  72.3887500 110.8015703
  13.7048526  72.3889362 110.6880075  14.9585381  71.6420235 110.2851738
  18.5415451  50.3061386 106.9693883  17.7747847  49.7519873 107.1150566
  18.9526156  50.3783255 107.8308035  10.5457212  56.5946182 121.0599064
  11.4088673  56.2382987 121.2702389   9.9722622  56.2560077 121.7474469
  20.6046543  81.5262135 110.6304102  21.3967835  81.1852959 110.2150401
  20.8443193  81.6357110 111.5506255  24.4022339  82.1147430 116.7088380
  24.1112205  83.0193061 116.5935046  25.0379324  82.1563958 117.4232449
  25.3278546  79.4924279 113.2989739  25.9242118  79.2680301 112.5846702
  25.3853518  78.7509024 113.9015187  22.8124706  78.2522643 109.7374878
  21.8875202  78.1198857 109.9452570  23.0609119  79.0316862 110.2344820
  20.1733517  77.8955916 110.5718667  20.3025898  78.1490395 111.4858079
  19.4930968  78.4883624 110.2523322  26.8350234  75.7381031 119.3270508
  26.0583568  76.2974952 119.3173373  27.4740797  76.2237814 119.8485378
  25.0896606  78.5466485 118.8888475  25.8311291  79.0851529 118.6123299
  24.3833592  79.1732774 119.0460027  26.9183016  75.6268232 114.8594193
  27.7644211  76.0507646 115.0028842  26.8581653  74.9701856 115.5532756
  23.3332803  80.5342706 111.4442774  23.9034160  80.9629974 110.8060258
  23.9240915  80.2525290 112.1426959  23.8257970  75.7006133 119.6903785
  23.1956630  76.3822414 119.9239182  23.7194058  75.5889215 118.7456923
  19.1202942  75.3677929 110.6169709  18.3301996  75.6235458 110.1409820
  19.6114190  76.1826267 110.7221750  21.0717688  75.7322508 107.5753186
  20.2748851  75.8441203 108.0936681  20.8443280  76.0709161 106.7094076
  17.4040645  75.6208420 113.0484700  17.6548684  76.5055429 113.3142276
  17.9400194  75.4413021 112.2759792  23.1038713  70.0026899 122.0529036
  22.7105658  69.4493097 122.7276680  23.9204853  70.3137477 122.4435554
  21.8795655  84.5576513 108.0465359  22.0562283  85.4794478 107.8586343
  22.6752489  84.2434933 108.4759739  26.0206674  71.4184778 119.6449293
  26.7616387  72.0191931 119.5653755  26.2524596  70.6762416 119.0867335
  21.1648012  76.6041145 117.9227522  21.0501527  75.7026402 118.2234621
  20.3092529  76.8504842 117.5712339  28.2439849  84.5458886 119.5215023
  27.8003704  83.7595264 119.2035927  28.9057063  84.7338036 118.8558914
  23.0026971  86.0754687 114.0475701  23.5534396  85.9471750 113.2752695
  22.1638446  86.3749576 113.6970594  30.3421087  84.8261685 117.5496424
  30.3239563  85.6470566 117.0576693  31.2641007  84.7015761 117.7746565
  29.9663837  67.4465881 113.9213574  29.6228106  68.3367523 113.8452685
  30.3342799  67.2567539 113.0583159  25.2903263  69.9009266 110.8928989
  26.1556260  69.7052074 110.5334879  25.3580772  69.6719618 111.8198346
  22.8965582  72.1311474 108.2645356  23.4709334  71.9086655 107.5318549
  23.4836564  72.2000168 109.0173957  25.1988250  69.0052723 106.9920425
  24.5452662  68.6901740 106.3677040  25.1568724  68.3828463 107.7180248
  18.0575858  77.1090127 107.4112910  17.8600258  76.5159487 106.6863976
  17.5022522  76.8042337 108.1288849  23.4679017  73.1908648 112.9059117
  24.1078396  73.0497408 112.2082080  22.6356547  72.9043162 112.5297719
  20.4707633  73.1608973 107.6832104  20.7314450  74.0754307 107.5741264
  21.2924805  72.6933416 107.8328716  21.9432558  74.5746731 114.8530928
  22.6155612  74.3664093 114.2043577  21.1162345  74.3768817 114.4136160
  27.8458130  71.2008671 116.8696589  27.1986045  71.8998621 116.7761065
  28.6159146  71.6344815 117.2372837  31.2536928  81.4657524 119.9447142
  31.1022435  81.2368075 119.0277226  31.2441608  82.4228125 119.9578487
  22.3460056  77.8489334 115.6133365  22.2079854  77.1169572 116.2144904
  23.2564979  77.7598234 115.3317553  24.9742356  77.5609293 115.1017045
  25.6841975  76.9202485 115.0603663  24.9311664  77.8122188 116.0243226
  32.9629135  84.4976646 118.0223624  32.9041681  83.8135866 117.3554207
  33.3648653  85.2395636 117.5704250  23.6871290  74.5474511 116.9212684
  23.1508647  74.0965249 117.5734281  23.0987999  74.6820420 116.1783149
  21.9819834  91.3138560 110.8157343  22.2216432  91.9457084 111.4936362
  21.1389030  90.9626600 111.1022702  14.6175689  78.7940322 109.5780655
  15.3046729  78.4802052 108.9901671  14.4623818  79.6981687 109.3047907
  19.4210412  73.6830518 114.0065679  19.3368600  73.0756188 113.2716089
  18.5993118  74.1739537 114.0075175  24.0058293  84.7698960 116.1962577
  24.7067752  85.4035443 116.3491971  23.5353408  85.1113692 115.4358216
  27.8547152  78.0663378 120.5081164  27.1787789  77.9657508 121.1783539
  28.6774786  77.9102592 120.9717161  19.6026011  84.3035315 113.1293679
  20.1879448  83.5579003 113.2621583  19.4050849  84.6139272 114.0130343
  14.1943665  76.8740915 111.8498122  14.2327765  76.3404506 112.6435240
  13.6883958  76.3476121 111.2309100  21.5734428  71.7205456 115.3460665
  21.6375754  72.5820287 114.9338062  21.5101548  71.1079457 114.6133023
  21.0486700  73.7928588 118.9933699  21.6758739  73.4105666 119.6071223
  20.1914619  73.5742790 119.3589391  31.4480809  84.1991563 120.5987434
  31.9920713  84.8121522 120.1042389  30.8667654  84.7571142 121.1154447
  21.3546490  73.6761014 110.9079602  20.6333076  74.2896982 110.7687076
  22.1439746  74.2118779 110.8296248  31.7973230  85.1221302 113.3582012
  30.8503566  85.0026653 113.2860339  32.1456003  84.2343800 113.4408274
  24.1572804  71.0115440 117.1820254  24.6807205  71.2577737 117.9446563
  23.9385137  71.8435475 116.7623391  25.3625349  71.9529136 114.8669925
  25.0222169  71.1536949 115.2690604  24.6564355  72.2530846 114.2946758
  26.0141820  69.0378448 113.3197248  26.8367890  68.5638926 113.1976138
  26.2579884  69.8168932 113.8195934  23.5380399  75.7297569 111.1289226
  23.3924980  76.0437872 112.0213508  23.0605603  76.3482469 110.5760125
  25.3976782  72.7200117 111.1770116  25.3838351  71.8241210 110.8402414
  26.1149210  72.7270780 111.8108402  27.2502913  73.1537457 113.2223243
  26.9920691  74.0754527 113.2207574  26.7187953  72.7567891 113.9123707
  18.0126061  78.2702913 114.0676887  17.4679529  79.0462721 114.1997162
  18.8905411  78.6173718 113.9096009  27.6704868  69.2869407 109.5824406
  27.6926565  69.3508740 108.6276385  28.0872927  68.4473916 109.7764912
  18.7992083  77.3972809 116.9607044  18.0573819  77.5455445 117.5471675
  18.4784828  77.6581075 116.0973794  26.7435746  86.9388788 116.7587434
  27.0522872  86.6937934 117.6310134  27.5411228  87.1435426 116.2706305
  19.2448697  85.2838238 108.9917439  20.0706717  84.9842010 108.6116082
  18.8942749  84.5145860 109.4407228  17.4457302  83.2024564 109.9506373
  16.6089210  82.7746739 109.7690374  17.4180947  83.3957008 110.8877164
  24.2854758  73.1146494 120.6547619  24.3342913  73.9908617 120.2725388
  24.8277272  72.5723887 120.0819262  34.7709603  83.6587618 119.9348756
  33.9805147  83.6411756 119.3953255  34.5342958  84.1975911 120.6897792
  26.5154046  73.8677867 117.4093977  25.6457355  74.1611433 117.1376566
  26.7513526  74.4518312 118.1301241  29.4705674  66.5057766 110.4460294
  29.7507428  65.8380955 111.0720721  30.2556281  66.6986862 109.9334958
  27.5424634  81.0695319 120.8102030  28.4627643  81.2473918 121.0042076
  27.5074217  80.1251364 120.6581729  16.7606799  76.2633913 109.7355305
  16.4409583  75.4099221 109.4429679  16.2140227  76.4782491 110.4913272
  20.5386706  78.9796354 113.4524811  20.7572716  79.9113461 113.4712845
  20.9512480  78.6204328 114.2379615  25.4114571  74.5529559 122.8427560
  25.3111298  75.5023916 122.7739651  25.1936113  74.2247798 121.9703630
  16.6295059  79.8836824 111.7048426  15.9358530  79.4690777 111.1918381
  17.3768050  79.9257361 111.1081845  25.2745841  77.9826698 121.6592622
  24.7912923  78.7827058 121.8656511  25.3606781  77.9934643 120.7060066
  18.5431801  79.8155078 109.5814441  18.5202489  79.9142765 108.6296324
  18.8532438  80.6620229 109.9031607  21.2019179  81.8731233 113.6961055
  22.1562433  81.8415175 113.6290987  21.0031703  81.4121857 114.5111281
  21.7918561  80.4432349 116.2631853  22.6111450  80.9376428 116.2866690
  22.0655369  79.5264317 116.2349421  19.5569408  87.4150852 110.7131253
  19.4223876  86.6551253 110.1469251  19.1401470  88.1391752 110.2460042
  17.0453475  74.7770483 116.9624050  17.6912339  74.2669437 117.4511275
  16.8370626  75.5139164 117.5367475  23.7393048  88.9648431 114.1405624
  24.6420294  88.9972042 114.4572119  23.5130418  88.0348882 114.1551960
  29.3809205  65.6353304 106.9693883  28.6141601  65.0811791 107.1150566
  29.7919910  65.7075173 107.8308035  21.3850966  71.9238100 121.0599064
  22.2482428  71.5674905 121.2702389  20.8116377  71.5851995 121.7474469
  31.4440297  96.8554052 110.6304102  32.2361589  96.5144877 110.2150401
  31.6836947  96.9649027 111.5506255  35.2416094  97.4439348 116.7088380
  34.9505960  98.3484979 116.5935046  35.8773078  97.4855875 117.4232449
  35.1826759 103.8945084 106.6709141  35.1050788 104.8452909 106.7497622
  34.5788402 103.5490956 107.3284067  34.6651724  91.0298051 119.6903785
  34.0350385  91.7114332 119.9239182  34.5587812  90.9181132 118.7456923
  52.0666499  94.3813834 109.7159961  51.3130208  93.8121232 109.5603966
  52.2014041  94.3476499 110.6630596  33.9432467  85.3318817 122.0529036
  33.5499413  84.7785015 122.7276680  34.7598607  85.6429395 122.4435554
  32.7189410  99.8868431 108.0465359  32.8956038 100.8086396 107.8586343
  33.5146243  99.5726850 108.4759739  36.8600428  86.7476696 119.6449293
  37.6010141  87.3483849 119.5653755  37.0918351  86.0054333 119.0867335
  32.0041766  91.9333063 117.9227522  31.8895281  91.0318320 118.2234621
  31.1486284  92.1796760 117.5712339  28.8743442  95.0991329 106.7402176
  29.7118664  95.5088337 106.5235884  29.0521709  94.1590771 106.7102370
  36.9667274 100.9439968 109.2232147  36.9243453 101.1700814 108.2940679
  37.8829973 100.7103342 109.3717948  32.7826313  89.9038648 114.8530928
  33.4549366  89.6956010 114.2043577  31.9556099  89.7060734 114.4136160
  47.0315574  96.6442699 114.3706262  47.2251464  97.5488509 114.6165537
  46.9316192  96.1850118 115.2044847  38.6851885  86.5300589 116.8696589
  38.0379800  87.2290539 116.7761065  39.4552900  86.9636733 117.2372837
  42.0930683  96.7949441 119.9447142  41.9416189  96.5659993 119.0277226
  42.0835362  97.7520043 119.9578487  33.1853810  93.1781251 115.6133365
  33.0473608  92.4461490 116.2144904  34.0958734  93.0890151 115.3317553
  34.5265045  89.8766428 116.9212684  33.9902402  89.4257167 117.5734281
  33.9381753  90.0112337 116.1783149  32.8213588 106.6430478 110.8157343
  33.0610186 107.2749002 111.4936362  31.9782785 106.2918518 111.1022702
  37.1231230 101.6881370 106.7301669  36.3398752 102.2303050 106.8239893
  37.8223975 102.2055350 107.1295910  48.2857637  93.2016365 111.0154165
  48.2747514  94.0841081 110.6448099  47.4175017  92.8487916 110.8208703
  39.6060507 102.6895178 108.1243297  39.7882902 101.8716834 108.5871049
  40.4293493 102.9062871 107.6868187  38.6940906  93.3955296 120.5081164
  38.0181543  93.2949426 121.1783539  39.5168540  93.2394510 120.9717161
  30.4419765  99.6327233 113.1293679  31.0273202  98.8870921 113.2621583
  30.2444604  99.9431189 114.0130343  33.2958420 102.6678480 108.1456122
  32.6268796 103.1524608 107.6620162  33.1571290 102.9147701 109.0599500
  37.4363689 104.7022224 114.7438780  37.9881997 104.8653845 115.5087865
  37.7769883 105.2926661 114.0718805  32.4128182  87.0497373 115.3460665
  32.4769509  87.9112204 114.9338062  32.3495303  86.4371375 114.6133023
  42.2874563  99.5283481 120.5987434  42.8314467 100.1413439 120.1042389
  41.7061408 100.0863060 121.1154447  34.9966558  86.3407358 117.1820254
  35.5200960  86.5869655 117.9446563  34.7778891  87.1727393 116.7623391
  36.2019103  87.2821053 114.8669925  35.8615923  86.4828866 115.2690604
  35.4958109  87.5822764 114.2946758  28.8519816  93.5994831 114.0676887
  28.3073284  94.3754639 114.1997162  29.7299166  93.9465635 113.9096009
  29.6385838  92.7264727 116.9607044  28.8967574  92.8747362 117.5471675
  29.3178582  92.9872993 116.0973794  37.6050112 104.4218615 108.9892811
  37.1655103 103.9294994 109.6825668  38.3558229 103.8791583 108.7484886
  30.0842451 100.6130156 108.9917439  30.9100471 100.3133928 108.6116082
  29.7336503  99.8437778 109.4407228  28.2851056  98.5316482 109.9506373
  27.4482965  98.1038657 109.7690374  28.2574702  98.7248926 110.8877164
  35.1248512  88.4438412 120.6547619  35.1736668  89.3200535 120.2725388
  35.6671026  87.9015805 120.0819262  45.6103358  98.9879535 119.9348756
  44.8198901  98.9703674 119.3953255  45.3736712  99.5267829 120.6897792
  45.7301233  95.8372002 117.2481484  45.7799238  95.6722009 118.1897007
  45.6215156  94.9699261 116.8579365  43.0204995  91.8202930 118.5640791
  43.9214858  91.6809394 118.2724789  43.0952970  91.9857384 119.5038968
  47.2319430  98.2568943 117.4923506  46.9404238  98.6198924 118.3286967
  46.6191561  97.5435951 117.3136838  45.4806618  93.3801558 115.9603564
  45.9560739  93.5729204 115.1522415  44.5572183  93.4360744 115.7146947
  46.6596365  93.4773438 113.3074169  46.6272685  92.5389438 113.4933853
  47.2696988  93.5557474 112.5739994  52.4772915  94.5389444 112.4480206
  53.2076303  94.2774732 113.0087909  51.8679860  93.8018166 112.4882274
  50.5588212  92.6797307 113.0454657  49.8321375  92.5453272 112.4371149
  50.1435498  92.9874136 113.8511375  38.3818388  96.3987237 120.8102030
  39.3021398  96.5765836 121.0042076  38.3467971  95.4543282 120.6581729
  31.3780461  94.3088271 113.4524811  31.5966470  95.2405379 113.4712845
  31.7906234  93.9496246 114.2379615  36.2508326  89.8821477 122.8427560
  36.1505053  90.8315834 122.7739651  36.0329868  89.5539716 121.9703630
  27.4688813  95.2128742 111.7048426  26.7752284  94.7982695 111.1918381
  28.2161804  95.2549278 111.1081845  36.1139596  93.3118616 121.6592622
  35.6306678  94.1118976 121.8656511  36.2000535  93.3226561 120.7060066
  32.0412933  97.2023151 113.6961055  32.9956187  97.1707093 113.6290987
  31.8425457  96.7413774 114.5111281  32.6312316  95.7724267 116.2631853
  33.4505205  96.2668345 116.2866690  32.9049123  94.8556235 116.2349421
  30.3963162 102.7442770 110.7131253  30.2617630 101.9843171 110.1469251
  29.9795225 103.4683670 110.2460042  50.4837079  92.2075360 109.1731510
  49.9236637  92.2768549 109.9463072  49.8780583  92.0316345 108.4531006
  33.5532288 103.6412087 110.9249696  33.4364672 104.5857520 110.8228386
  32.7324734 103.3385649 111.3135495  27.8847230  90.1062400 116.9624050
  28.5306093  89.5961354 117.4511275  27.6764381  90.8431082 117.5367475
  40.4100622  97.1743248 122.4616191  41.2791782  97.3483900 122.1002826
  39.9307373  97.9937665 122.3391920  34.5786802 104.2940349 114.1405624
  35.4814049 104.3263959 114.4572119  34.3524172 103.3640800 114.1551960
  36.3340404 103.0471336 110.8015703  35.3836035 103.0473197 110.6880075
  36.6372890 102.3004070 110.2851738  32.2244721  87.2530018 121.0599064
  33.0876182  86.8966822 121.2702389  31.6510131  86.9143912 121.7474469
  52.0693098 108.8831874 111.8661465  52.7071508 108.7638621 111.1624806
  51.9513941 109.8312718 111.9249418  48.8782804 108.8359302 111.8022990
  48.5401316 108.7200367 110.9143525  49.7472572 108.4350467 111.7823996
  44.7369620 110.6894778 107.7919881  44.1734485 110.5984715 107.0236169
  44.6222015 109.8694683 108.2722374  49.3602587 109.9894154 117.7609196
  49.3491228 109.5946952 116.8889699  49.5223226 109.2560226 118.3542967
  42.2834052 112.1845970 110.6304102  43.0755344 111.8436795 110.2150401
  42.5230702 112.2940945 111.5506255  50.3169178 114.3565746 103.1034346
  49.6657158 114.9419827 102.7168360  51.1113541 114.8871941 103.1629383
  44.2424806 111.4454883 103.5021480  45.0155682 110.8983870 103.3634356
  44.5950204 112.3099133 103.7135942  46.0809848 112.7731266 116.7088380
  45.7899714 113.6776896 116.5935046  46.7166833 112.8147793 117.4232449
  47.0066055 110.1508114 113.2989739  47.6029627 109.9264136 112.5846702
  47.0641027 109.4092860 113.9015187  51.6234366 106.6083328 108.9414673
  52.4097455 106.1902751 108.5905091  51.8873071 107.5129420 109.1096322
  51.7944444 112.0456178 103.6403330  51.1590277 112.1190805 104.3524235
  51.4641850 112.6349777 102.9622410  57.0242793 106.5458561 109.8447652
  57.7567965 105.9757778 110.0785481  56.2682149 106.1580161 110.2854158
  46.2987372 109.5075655 103.3364305  46.1823630 108.8320559 104.0045390
  46.4089632 109.0208029 102.5196458  48.6418913 108.9685802 107.0410994
  48.2777120 108.4416423 107.7523916  49.4986029 108.5784272 106.8677480
  54.5468214 100.2580135 114.3042261  54.2151538 101.1275546 114.0803476
  53.9513827  99.9416419 114.9836291  51.0399733 112.4592681 113.7038173
  50.7400456 113.3617720 113.5953981  50.6950793 112.1924864 114.5559326
  44.4912215 108.9106478 109.7374878  43.5662711 108.7782692 109.9452570
  44.7396628 109.6900697 110.2344820  54.4396877 104.9775221 111.3835611
  53.5313754 104.9090630 111.0894372  54.3884473 105.4547166 112.2117436
  48.2613621 106.4533360 103.0219010  48.1413246 106.8990410 103.8604490
  47.5666209 106.8018677 102.4632548  41.8521026 108.5539751 110.5718667
  41.9813407 108.8074230 111.4858079  41.1718477 109.1467459 110.2523322
  46.0220513 119.2237001 106.6709141  45.9444543 120.1744826 106.7497622
  45.4182157 118.8782874 107.3284067  48.5137743 106.3964867 119.3270508
  47.7371077 106.9558787 119.3173373  49.1528306 106.8821650 119.8485378
  56.3058523 103.1791660 113.1613485  55.6632904 103.4724193 112.5153279
  55.8013452 103.0644580 113.9666681  53.9598687 106.9254833 103.8499344
  54.8716543 107.1582220 103.6747041  53.4508334 107.5091877 103.2874422
  46.7684115 109.2050320 118.8888475  47.5098799 109.7435364 118.6123299
  46.0621101 109.8316609 119.0460027  52.2439455 111.3479461 117.4860636
  52.6522811 110.9061871 116.7415269  51.5216716 110.7732088 117.7394829
  48.5970525 106.2852067 114.8594193  49.4431720 106.7091481 115.0028842
  48.5369162 105.6285692 115.5532756  52.5668269 111.9080651 111.2412925
  51.9377132 112.0726365 110.5388993  52.1793931 112.3222261 112.0123889
  56.4457501 112.8435089 108.5957289  55.7608539 113.2233990 108.0454322
  56.5301351 113.4530416 109.3289237  51.7469970 103.9456436 116.5175367
  51.5030902 104.6998496 115.9809643  52.0229901 104.3241783 117.3522614
  53.7008433 110.4895048 115.1952633  53.9125328 111.1326808 114.5187014
  53.6538181 109.6557365 114.7274563  51.3034662 103.1012869 112.0989205
  50.4419141 103.3994122 112.3905942  51.3297097 103.3183268 111.1670237
  48.1196231 111.6455059 108.5063010  48.5834577 111.9242762 107.7167633
  47.8553029 110.7438504 108.3236101  45.0120312 111.1926541 111.4442774
  45.5821669 111.6213809 110.8060258  45.6028424 110.9109126 112.1426959
  47.0565117 107.7678212 105.3152576  47.7589161 108.2199255 105.7826502
  46.7245746 107.1262031 105.9432469  45.5045479 106.3589968 119.6903785
  44.8744139 107.0406249 119.9239182  45.3981567 106.2473050 118.7456923
  40.7990451 106.0261764 110.6169709  40.0089505 106.2819293 110.1409820
  41.2901699 106.8410102 110.7221750  54.8154261 113.3667004 113.3674990
  55.6371705 112.9647191 113.0857672  54.8116664 113.2635238 114.3191106
  42.7505197 106.3906344 107.5753186  41.9536360 106.5025038 108.0936681
  42.5230789 106.7292996 106.7094076  48.5810864 112.9151047 115.5235700
  48.6455297 113.3771454 116.3593872  47.8721788 112.2848412 115.6518010
  39.0828154 106.2792255 113.0484700  39.3336193 107.1639265 113.3142276
  39.6187703 106.0996856 112.2759792  62.9060254 109.7105752 109.7159961
  62.1523962 109.1413150 109.5603966  63.0407795 109.6768417 110.6630596
  48.2958882 114.5819154 105.3914681  48.1604557 115.4270690 105.8199529
  48.8368694 114.7838432 104.6280615  44.7826222 100.6610734 122.0529036
  44.3893167 100.1076933 122.7276680  45.5992362 100.9721313 122.4435554
  41.7488279 112.0994592 105.9642606  42.2612800 112.8937843 106.1148171
  42.4010992 111.4020883 105.8976207  43.5583164 115.2160349 108.0465359
  43.7349792 116.1378313 107.8586343  44.3539998 114.9018768 108.4759739
  47.6994183 102.0768613 119.6449293  48.4403896 102.6775766 119.5653755
  47.9312105 101.3346251 119.0867335  42.8435521 107.2624981 117.9227522
  42.7289036 106.3610238 118.2234621  41.9880038 107.5088677 117.5712339
  49.9227358 115.2042721 119.5215023  49.4791213 114.4179099 119.2035927
  50.5844572 115.3921871 118.8558914  44.6814480 116.7338522 114.0475701
  45.2321905 116.6055586 113.2752695  43.8425955 117.0333411 113.6970594
  52.0208596 115.4845521 117.5496424  52.0027072 116.3054402 117.0576693
  52.9428516 115.3599596 117.7746565  48.4781651 112.9989650 118.3919932
  49.0109987 112.2377938 118.1619240  47.9495732 112.7063302 119.1344087
  51.6451346  98.1049716 113.9213574  51.3015615  98.9951358 113.8452685
  52.0130308  97.9151374 113.0583159  39.7137196 110.4283247 106.7402176
  40.5512418 110.8380255 106.5235884  39.8915464 109.4882689 106.7102370
  51.6101628 108.0958327 102.4286009  51.0948252 108.8662932 102.6674397
  51.3378937 107.4223464 103.0519071  49.1948739 102.9408028 107.4871248
  48.3390336 102.5514879 107.3076886  49.6075691 103.0199989 106.6271033
  50.7247886 100.4754371 111.8862807  50.2212682 100.4384507 111.0730613
  51.0178493 101.3847114 111.9459464  46.9690772 100.5593101 110.8928989
  47.8343769 100.3635910 110.5334879  47.0368281 100.3303453 111.8198346
  56.5835902 110.8490682 104.3639183  55.8065345 110.5101841 103.9194345
  57.2627383 110.8543305 103.6894148  51.3987931 105.9685419 104.2545791
  51.0938067 106.2831569 105.1055934  52.3518374 106.0466839 104.2973124
  49.8434363 112.1275643 105.9038744  49.3155725 111.3928402 105.5911982
  49.3421866 112.9050319 105.6578713  54.8227209 110.3224663 111.0205791
  54.1650884 111.0123925 111.1085919  55.6267609 110.7121095 111.3639777
  44.5753091 102.7895309 108.2645356  45.1496843 102.5670491 107.5318549
  45.1624073 102.8584004 109.0173957  53.6332668 108.6769036 109.0709733
  54.1464550 109.3099028 109.5731442  54.2833892 108.0770231 108.7053093
  47.9886963 109.9455853  98.9073718  47.0814025 109.7145106  99.1064867
  48.4857995 109.1493472  99.0947699  50.8955042 118.6553360 101.8270404
  50.2216741 118.9585057 102.4355362  51.2820864 119.4582441 101.4775861
  50.1113499 106.1518491 111.3168073  49.1936060 106.3733439 111.1589761
  50.5273643 106.2264802 110.4579780  50.8948547 107.5509907 106.4470753
  51.6420366 108.0631304 106.1377875  51.1640136 107.2293960 107.3075147
  49.1675197 110.0468448 103.4297708  48.2586416 109.7627481 103.5270177
  49.1970281 110.4667526 102.5701014  54.3994464 113.6575037 107.1988875
  53.9456791 112.8165947 107.2554066  53.7688431 114.2936436 107.5363655
  53.3427384 104.5867023 108.4289543  52.6050141 104.0744410 108.7599785
  53.5954157 104.1467405 107.6172820  52.8427404 115.4951534 108.1338693
  53.1350378 116.0556591 107.4151059  53.3526024 115.7880095 108.8891852
  53.4439011  97.3643275 109.0231312  53.7497888  96.5040639 108.7357227
  54.1691616  97.9560896 108.8230306  39.7363367 107.7673962 107.4112910
  39.5387767 107.1743323 106.6863976  39.1810031 107.4626172 108.1288849
  47.7160091 107.6597068 109.5307503  47.7708701 106.7070905 109.4549980
  46.9051293 107.8156508 110.0148801  48.8651285 111.5877192 100.7685786
  48.4270715 110.8713050 100.3091424  49.6061726 111.8153306 100.2070878
  45.6552451 106.2774128 107.2897882  44.8420316 106.5768299 107.6963074
  46.1511445 105.8829817 108.0072364  47.8061029 116.2731885 109.2232147
  47.7637208 116.4992731 108.2940679  48.7223728 116.0395260 109.3717948
  51.2526663 106.7415953 116.1212776  51.6076050 106.9687426 116.9807241
  51.8998794 107.0734330 115.4990031  56.9824399 109.8634389 106.8262105
  56.8442298 110.0535985 105.8983294  56.6260618 110.6253771 107.2830156
  45.1466526 103.8492484 112.9059117  45.7865905 103.7081243 112.2082080
  44.3144056 103.5626997 112.5297719  57.0093779 111.9310916 111.8373376
  57.4430286 111.8386205 112.6856430  57.7225360 111.9068416 111.1993392
  45.9226830 113.1494914 109.0194109  46.7167428 112.6545234 108.8176684
  45.2118522 112.6212777 108.6561815  50.7421674 115.5313010 113.3706477
  50.7958696 116.1003946 114.1384193  49.8736455 115.7014895 113.0060514
  42.2309593 107.2937996 105.0953862  41.3007181 107.2322451 105.3123824
  42.3267065 106.7713949 104.2990503  42.1495142 103.8192809 107.6832104
  42.4101959 104.7338142 107.5741264  42.9712314 103.3517251 107.8328716
  43.6220067 105.2330566 114.8530928  44.2943121 105.0247928 114.2043577
  42.7949854 105.0352652 114.4136160  57.8709329 111.9734616 114.3706262
  58.0645219 112.8780427 114.6165537  57.7709947 111.5142035 115.2044847
  49.5245639 101.8592507 116.8696589  48.8773554 102.5582457 116.7761065
  50.2946655 102.2928651 117.2372837  52.9324437 112.1241359 119.9447142
  52.7809944 111.8951911 119.0277226  52.9229117 113.0811960 119.9578487
  49.7009774 109.6973272 114.9293409  50.6301834 109.8484431 114.7562376
  49.2800804 109.7857293 114.0742055  48.4998106 113.7223936 112.6991946
  48.3609191 113.3542721 113.5717884  47.7112702 114.2371576 112.5275904
  49.0946257 118.8233033 104.0417483  49.2698013 118.3521076 104.8563106
  48.4079046 119.4498799 104.2698744  50.0503321 113.1005539 110.0880784
  49.7153153 113.0606309 110.9838434  49.5507266 112.4350255 109.6151194
  44.0247565 108.5073169 115.6133365  43.8867363 107.7753408 116.2144904
  44.9352488 108.4182069 115.3317553  52.9862512 110.4461573 100.3617844
  52.3691683 109.7208401 100.2650896  52.5179001 111.2070933 100.0184918
  46.6529865 108.2193128 115.1017045  47.3629484 107.5786320 115.0603663
  46.6099173 108.4706023 116.0243226  54.6416644 115.1560482 118.0223624
  54.5829190 114.4719702 117.3554207  55.0436162 115.8979472 117.5704250
  45.3658799 105.2058346 116.9212684  44.8296156 104.7549085 117.5734281
  44.7775508 105.3404255 116.1783149  43.6607343 121.9722395 110.8157343
  43.9003941 122.6040920 111.4936362  42.8176539 121.6210435 111.1022702
  54.6434051 113.1200066 116.2537604  53.7560830 112.7825987 116.3764003
  55.2132602 112.3883097 116.4906369  36.2963198 109.4524157 109.5780655
  36.9834238 109.1385887 108.9901671  36.1411327 110.3565522 109.3047907
  41.0997920 104.3414354 114.0065679  41.0156109 103.7340023 113.2716089
  40.2780627 104.8323372 114.0075175  48.1735205 117.7801518 113.2198847
  48.1005376 118.5856489 113.7318152  47.7312598 117.9793484 112.3946868
  47.9624984 117.0173288 106.7301669  47.1792506 117.5594968 106.8239893
  48.6617729 117.5347268 107.1295910  51.2721634 102.8267917 109.3735874
  51.7690334 102.0737880 109.0536944  50.5008616 102.8632234 108.8079083
  59.1251392 108.5308283 111.0154165  59.1141268 109.4132998 110.6448099
  58.2568771 108.1779834 110.8208703  50.6333888 117.6788352 115.3757006
  51.3461860 118.3135817 115.3032907  50.1423917 117.7752218 114.5597008
  52.3551415 111.5839605 106.9474297  51.4207694 111.7041067 106.7779002
  52.5328084 110.6812071 106.6834307  47.8556603 104.9685300 109.1007559
  47.4854391 104.4156341 109.7888464  48.3515696 104.3643434 108.5482559
  55.7423966 107.4256924 107.4824331  56.2084419 108.2584915 107.4084634
  56.1931467 106.9601905 108.1869590  45.6845802 115.4282795 116.1962577
  46.3855261 116.0619278 116.3491971  45.2140917 115.7697527 115.4358216
  53.8100198 113.7700745 104.4810484  54.0860041 113.6557340 105.3904358
  52.9404696 113.3718230 104.4422657  53.7140629  99.7937511 111.5215233
  52.8003709 100.0241738 111.6897440  54.1433731  99.8775955 112.3729265
  53.4847088 107.9827403 114.0215127  52.8318538 108.2303310 113.3667580
  53.8627468 107.1691541 113.6877604  50.4454262 118.0187096 108.1243297
  50.6276656 117.2008752 108.5871049  51.2687248 118.2354788 107.6868187
  50.7796427 116.9455281 105.3858346  51.3084193 116.4347736 104.7728508
  51.0424647 116.6297811 106.2503879  49.5334661 108.7247214 120.5081164
  48.8575298 108.6241343 121.1783539  50.3562295 108.5686428 120.9717161
  41.2813520 114.9619150 113.1293679  41.8666957 114.2162838 113.2621583
  41.0838358 115.2723107 114.0130343  44.1352175 117.9970398 108.1456122
  43.4662550 118.4816525 107.6620162  43.9965045 118.2439618 109.0599500
  35.8731174 107.5324751 111.8498122  35.9115274 106.9988341 112.6435240
  35.3671467 107.0059956 111.2309100  48.2757444 120.0314141 114.7438780
  48.8275752 120.1945763 115.5087865  48.6163637 120.6218579 114.0718805
  42.7274209 104.4512424 118.9933699  43.3546248 104.0689501 119.6071223
  41.8702128 104.2326626 119.3589391  53.1268318 114.8575399 120.5987434
  53.6708222 115.4705357 120.1042389  52.5455163 115.4154977 121.1154447
  51.4125831 117.9796117 111.7302462  51.2876970 117.1785857 111.2213408
  52.0704922 118.4742310 111.2416432  43.0333999 104.3344849 110.9079602
  42.3120585 104.9480817 110.7687076  43.8227255 104.8702614 110.8296248
  53.4760739 115.7805137 113.3582012  52.5291075 115.6610488 113.2860339
  53.8243512 114.8927635 113.4408274  45.8360313 101.6699276 117.1820254
  46.3594714 101.9161572 117.9446563  45.6172646 102.5019311 116.7623391
  50.4807173 115.5757853 109.5586364  50.3332135 114.6474561 109.7393934
  51.3060666 115.5977944 109.0743440  54.0841294 116.3986412 110.6451237
  55.0087842 116.1929273 110.5075688  53.9156598 116.1502813 111.5540579
  47.0412858 102.6112971 114.8669925  46.7009678 101.8120784 115.2690604
  46.3351864 102.9114682 114.2946758  47.6929329  99.6962283 113.3197248
  48.5155399  99.2222762 113.1976138  47.9367393 100.4752767 113.8195934
  50.4768687 103.4295691 104.5518482  50.6932301 104.3120329 104.2507310
  49.9962754 103.0381904 103.8224124  45.2167908 106.3881404 111.1289226
  45.0712489 106.7021707 112.0213508  44.7393112 107.0066304 110.5760125
  48.9290422 103.8121292 113.2223243  48.6708200 104.7338363 113.2207574
  48.3975462 103.4151727 113.9123707  53.8736611 116.9172079 106.0013329
  54.0473488 116.3518502 105.2487181  54.3665502 117.7172974 105.8192819
  39.6913570 108.9286748 114.0676887  39.1467038 109.7046556 114.1997162
  40.5692920 109.2757553 113.9096009  59.7276002 109.6808502 107.6203628
  60.1707148 108.9315827 107.2222752  58.8502512 109.6718639 107.2377360
  54.8611783 116.2338844 103.1010227  55.5562688 116.8545536 103.3197542
  55.2034933 115.3834195 103.3762605  40.4779592 108.0556645 116.9607044
  39.7361328 108.2039280 117.5471675  40.1572337 108.3164910 116.0973794
  56.7603206 113.6838549 104.6297558  57.2854530 114.0225822 103.9046878
  56.6725559 112.7485565 104.4460692  48.4223255 117.5972623 116.7587434
  48.7310381 117.3521770 117.6310134  49.2198737 117.8019261 116.2706305
  48.4443867 119.7510533 108.9892811  48.0048857 119.2586911 109.6825668
  49.1951984 119.2083500 108.7484886  40.9236206 115.9422073 108.9917439
  41.7494226 115.6425845 108.6116082  40.5730258 115.1729696 109.4407228
  45.8917739 115.2948542 111.0615113  45.2697748 114.6319247 110.7617340
  46.5622606 115.3209674 110.3788760  39.1244811 113.8608400 109.9506373
  38.2876719 113.4330574 109.7690374  39.0968456 114.0540843 110.8877164
  45.9642267 103.7730330 120.6547619  46.0130422 104.6492452 120.2725388
  46.5064781 103.2307723 120.0819262  56.4497112 114.3171453 119.9348756
  55.6592656 114.2995592 119.3953255  56.2130467 114.8559747 120.6897792
  56.5694987 111.1663919 117.2481484  56.6192992 111.0013927 118.1897007
  56.4608911 110.2991178 116.8579365  45.4531246 113.8452465 104.5373573
  45.6019366 114.5287929 103.8840246  46.2597689 113.8257555 105.0523029
  53.8598750 107.1494847 118.5640791  54.7608612 107.0101312 118.2724789
  53.9346724 107.3149302 119.5038968  48.1941555 104.5261702 117.4093977
  47.3244864 104.8195268 117.1376566  48.4301035 105.1102147 118.1301241
  58.0713184 113.5860861 117.4923506  57.7797992 113.9490841 118.3286967
  57.4585315 112.8727869 117.3136838  59.2708866 111.1513741 110.0126076
  60.1055758 111.5903545 110.1763636  59.4067995 110.6752394 109.1934322
  56.3200372 108.7093475 115.9603564  56.7954494 108.9021122 115.1522415
  55.3965938 108.7652661 115.7146947  43.2083879 109.8717643 105.5434642
  42.9629921 108.9679973 105.7414852  43.3779793 109.8734793 104.6014120
  50.8980589 100.7441319 114.9259398  51.4162533 101.4802346 114.6005886
  50.5435722 101.0505312 115.7606157  42.4779526 105.6046000 103.0420803
  41.7848771 105.6790355 102.3860839  42.2331278 104.8406344 103.5642320
  51.1493183  97.1641602 110.4460294  51.4294937  96.4964791 111.0720721
  51.9343790  97.3570697 109.9334958  48.9526652 116.3400595 102.0085320
  48.3800619 116.9590783 101.5555792  49.5259445 116.8899957 102.5425242
  55.0202041 105.5859235 114.1931869  55.9719464 105.6857333 114.2144093
  54.8505492 104.7937504 114.7029954  53.0416421 102.6714819 114.3791270
  52.4466353 102.9519831 113.6837759  52.7566118 103.1608720 115.1508011
  52.1723911 116.6237746 103.1393903  53.1054584 116.5583307 103.3426778
  52.0847124 117.4594012 102.6808435  54.8011928 115.9403616 100.0997850
  54.7225559 115.6063479 100.9933608  55.6221595 116.4325384 100.0989323
  57.4990119 108.8065355 113.3074169  57.4666439 107.8681356 113.4933853
  58.1090743 108.8849392 112.5739994  57.6484608 105.5976399 113.3532452
  57.1323656 104.8134855 113.1662381  58.5324556 105.2695115 113.5178972
  55.3095335  99.3417414 109.3128265  55.1120156  99.0332502 110.1971597
  55.9195040 100.0679053 109.4426195  63.3166669 109.8681362 112.4480206
  64.0470057 109.6066650 113.0087909  62.7073614 109.1310084 112.4882274
  61.3981966 108.0089225 113.0454657  60.6715130 107.8745190 112.4371149
  60.9829253 108.3166053 113.8511375  49.2212143 111.7279154 120.8102030
  50.1415152 111.9057753 121.0042076  49.1861726 110.7835200 120.6581729
  38.4394308 106.9217748 109.7355305  38.1197092 106.0683056 109.4429679
  37.8927736 107.1366326 110.4913272  42.2174215 109.6380189 113.4524811
  42.4360225 110.5697297 113.4712845  42.6299989 109.2788163 114.2379615
  47.0902080 105.2113395 122.8427560  46.9898807 106.1607752 122.7739651
  46.8723622 104.8831634 121.9703630  38.3082568 110.5420659 111.7048426
  37.6146039 110.1274612 111.1918381  39.0555559 110.5841196 111.1081845
  54.4447788 101.3326846 106.5703460  53.8646457 101.9911650 106.1881513
  54.1783721 100.5104191 106.1590878  52.8951355 100.7331904 108.7724781
  53.3951133 100.8448438 107.9639100  53.5386963 100.4292957 109.4125589
  46.9533350 108.6410534 121.6592622  46.4700432 109.4410894 121.8656511
  47.0394289 108.6518478 120.7060066  40.2219310 110.4738913 109.5814441
  40.1989998 110.5726601 108.6296324  40.5319947 111.3204064 109.9031607
  42.8806688 112.5315068 113.6961055  43.8349941 112.4999011 113.6290987
  42.6819212 112.0705692 114.5111281  43.4706070 111.1016184 116.2631853
  44.2898959 111.5960263 116.2866690  43.7442878 110.1848152 116.2349421
  53.2272666 103.4926937 105.6259809  52.3398521 103.7776587 105.4080003
  53.6426655 103.3320700 104.7787086  56.5787202 103.5173458 109.3414148
  57.3547593 104.0069910 109.6138765  55.8535337 103.9431512 109.7986017
  59.0159761 104.2301077 110.3988089  59.6104252 103.9896813 109.6881397
  59.0886345 103.5108207 111.0261625  41.2356917 118.0734688 110.7131253
  41.1011385 117.3135089 110.1469251  40.8188979 118.7975588 110.2460042
  52.3715880 113.2571611  99.7207829  53.0751730 113.4621614 100.3365484
  51.6478529 113.8248373  99.9856912  53.2013690 109.0081473 105.8410099
  53.1448891 109.4650024 105.0017731  53.7542032 108.2472157 105.6632942
  57.0118496 104.7971204 106.6660218  56.7555430 104.3967840 107.4968426
  56.3871364 105.5114998 106.5410357  61.3230834 107.5367278 109.1731510
  60.7630392 107.6060467 109.9463072  60.7174337 107.3608262 108.4531006
  44.3926043 118.9704005 110.9249696  44.2758427 119.9149437 110.8228386
  43.5718489 118.6677566 111.3135495  54.2802577 113.6954140 101.7706289
  55.1148181 113.2635339 101.5883764  54.1186920 113.5236154 102.6983183
  53.9348469 110.1986254 103.1362628  53.8797273 110.0330525 102.1951072
  53.3094525 110.9062287 103.2924818  38.7240984 105.4354318 116.9624050
  39.3699848 104.9253272 117.4511275  38.5158135 106.1723000 117.5367475
  51.2494377 112.5035166 122.4616191  52.1185536 112.6775818 122.1002826
  50.7701128 113.3229582 122.3391920  45.4180557 119.6232267 114.1405624
  46.3207803 119.6555877 114.4572119  45.1917927 118.6932718 114.1551960
  47.1734159 118.3763253 110.8015703  46.2229790 118.3765115 110.6880075
  47.4766645 117.6295988 110.2851738  43.0638475 102.5821935 121.0599064
  43.9269937 102.2258740 121.2702389  42.4903886 102.2435830 121.7474469
  62.9086852 124.2123792 111.8661465  63.5465262 124.0930539 111.1624806
  62.7907695 125.1604636 111.9249418  59.7176559 124.1651220 111.8022990
  59.3795070 124.0492284 110.9143525  60.5866327 123.7642385 111.7823996
  55.5763374 126.0186696 107.7919881  55.0128239 125.9276633 107.0236169
  55.4615769 125.1986601 108.2722374  60.1996342 125.3186071 117.7609196
  60.1884982 124.9238870 116.8889699  60.3616981 124.5852144 118.3542967
  53.1227806 127.5137888 110.6304102  53.9149098 127.1728712 110.2150401
  53.3624456 127.6232863 111.5506255  61.1562933 129.6857664 103.1034346
  60.5050913 130.2711744 102.7168360  61.9507296 130.2163859 103.1629383
  55.0818560 126.7746801 103.5021480  55.8549436 126.2275788 103.3634356
  55.4343959 127.6391050 103.7135942  56.9203603 128.1023183 116.7088380
  56.6293469 129.0068814 116.5935046  57.5560587 128.1439711 117.4232449
  57.8459810 125.4800032 113.2989739  58.4423382 125.2556054 112.5846702
  57.9034781 124.7384777 113.9015187  57.4184838 122.9339467 101.1339930
  57.6710359 122.4120988 100.3723393  56.4809397 122.7705613 101.2366614
  62.4628121 121.9375245 108.9414673  63.2491210 121.5194669 108.5905091
  62.7266825 122.8421338 109.1096322  62.6338198 127.3748096 103.6403330
  61.9984031 127.4482722 104.3524235  62.3035604 127.9641695 102.9622410
  67.8636548 121.8750479 109.8447652  68.5961720 121.3049695 110.0785481
  67.1075904 121.4872079 110.2854158  57.1381127 124.8367573 103.3364305
  57.0217385 124.1612476 104.0045390  57.2483387 124.3499947 102.5196458
  59.4812668 124.2977720 107.0410994  59.1170875 123.7708341 107.7523916
  60.3379783 123.9076189 106.8677480  65.3861968 115.5872053 114.3042261
  65.0545293 116.4567464 114.0803476  64.7907582 115.2708337 114.9836291
  59.1218155 119.3267620 102.0372343  59.2892557 120.1947856 102.4042814
  58.9315324 119.4894902 101.1133632  61.8793488 127.7884599 113.7038173
  61.5794211 128.6909638 113.5953981  61.5344547 127.5216782 114.5559326
  55.3305969 124.2398396 109.7374878  54.4056466 124.1074610 109.9452570
  55.5790382 125.0192615 110.2344820  65.2790632 120.3067139 111.3835611
  64.3707509 120.2382547 111.0894372  65.2278227 120.7839084 112.2117436
  59.1007375 121.7825277 103.0219010  58.9807001 122.2282328 103.8604490
  58.4059964 122.1310595 102.4632548  52.6914780 123.8831669 110.5718667
  52.8207161 124.1366148 111.4858079  52.0112232 124.4759377 110.2523322
  56.8614268 134.5528919 106.6709141  56.7838297 135.5036744 106.7497622
  56.2575911 134.2074792 107.3284067  59.3531497 121.7256785 119.3270508
  58.5764831 122.2850705 119.3173373  59.9922060 122.2113567 119.8485378
  67.1452278 118.5083577 113.1613485  66.5026658 118.8016110 112.5153279
  66.6407206 118.3936498 113.9666681  64.7992442 122.2546751 103.8499344
  65.7110298 122.4874137 103.6747041  64.2902089 122.8383795 103.2874422
  57.6077870 124.5342238 118.8888475  58.3492554 125.0727282 118.6123299
  56.9014855 125.1608527 119.0460027  63.0833209 126.6771378 117.4860636
  63.4916565 126.2353789 116.7415269  62.3610471 126.1024006 117.7394829
  59.4364279 121.6143985 114.8594193  60.2825475 122.0383399 115.0028842
  59.3762917 120.9577609 115.5532756  63.4062024 127.2372569 111.2412925
  62.7770886 127.4018283 110.5388993  63.0187686 127.6514179 112.0123889
  67.2851256 128.1727007 108.5957289  66.6002294 128.5525908 108.0454322
  67.3695105 128.7822333 109.3289237  62.5863725 119.2748353 116.5175367
  62.3424657 120.0290414 115.9809643  62.8623655 119.6533701 117.3522614
  64.5402187 125.8186966 115.1952633  64.7519083 126.4618726 114.5187014
  64.4931936 124.9849282 114.7274563  62.1428416 118.4304786 112.0989205
  61.2812895 118.7286040 112.3905942  62.1690851 118.6475185 111.1670237
  58.9589986 126.9746977 108.5063010  59.4228331 127.2534680 107.7167633
  58.6946784 126.0730422 108.3236101  55.8514067 126.5218459 111.4442774
  56.4215424 126.9505727 110.8060258  56.4422179 126.2401043 112.1426959
  57.8958872 123.0970129 105.3152576  58.5982915 123.5491173 105.7826502
  57.5639500 122.4553948 105.9432469  56.3439233 121.6881886 119.6903785
  55.7137894 122.3698167 119.9239182  56.2375321 121.5764968 118.7456923
  51.6384206 121.3553682 110.6169709  50.8483260 121.6111211 110.1409820
  52.1295453 122.1702020 110.7221750  65.6548015 128.6958921 113.3674990
  66.4765459 128.2939109 113.0857672  65.6510418 128.5927155 114.3191106
  53.5898951 121.7198261 107.5753186  52.7930114 121.8316956 108.0936681
  53.3624543 122.0584914 106.7094076  59.4204619 128.2442965 115.5235700
  59.4849051 128.7063372 116.3593872  58.7115543 127.6140329 115.6518010
  49.9221909 121.6084173 113.0484700  50.1729947 122.4931182 113.3142276
  50.4581457 121.4288774 112.2759792  73.7454008 125.0397670 109.7159961
  72.9917717 124.4705068 109.5603966  73.8801550 125.0060334 110.6630596
  59.1352636 129.9111072 105.3914681  58.9998311 130.7562608 105.8199529
  59.6762449 130.1130350 104.6280615  55.6219976 115.9902652 122.0529036
  55.2286922 115.4368850 122.7276680  56.4386116 116.3013230 122.4435554
  52.5882034 127.4286510 105.9642606  53.1006554 128.2229760 106.1148171
  53.2404747 126.7312801 105.8976207  54.3976919 130.5452266 108.0465359
  54.5743547 131.4670231 107.8586343  55.1933752 130.2310686 108.4759739
  58.5387937 117.4060531 119.6449293  59.2797650 118.0067684 119.5653755
  58.7705860 116.6638169 119.0867335  53.6829275 122.5916898 117.9227522
  53.5682790 121.6902155 118.2234621  52.8273793 122.8380595 117.5712339
  60.7621113 130.5334639 119.5215023  60.3184967 129.7471017 119.2035927
  61.4238326 130.7213789 118.8558914  55.5208234 132.0630440 114.0475701
  56.0715659 131.9347504 113.2752695  54.6819710 132.3625329 113.6970594
  62.8602351 130.8137438 117.5496424  62.8420826 131.6346320 117.0576693
  63.7822271 130.6891514 117.7746565  59.3175405 128.3281568 118.3919932
  59.8503742 127.5669856 118.1619240  58.7889486 128.0355220 119.1344087
  62.4845100 113.4341634 113.9213574  62.1409369 114.3243276 113.8452685
  62.8524063 113.2443292 113.0583159  50.5530951 125.7575164 106.7402176
  51.3906173 126.1672173 106.5235884  50.7309218 124.8174607 106.7102370
  62.4495383 123.4250245 102.4286009  61.9342006 124.1954850 102.6674397
  62.1772691 122.7515381 103.0519071  60.0342494 118.2699946 107.4871248
  59.1784090 117.8806796 107.3076886  60.4469446 118.3491907 106.6271033
  61.5641640 115.8046289 111.8862807  61.0606436 115.7676424 111.0730613
  61.8572247 116.7139032 111.9459464  57.8084526 115.8885019 110.8928989
  58.6737523 115.6927827 110.5334879  57.8762035 115.6595371 111.8198346
  67.4229657 126.1782600 104.3639183  66.6459100 125.8393759 103.9194345
  68.1021138 126.1835223 103.6894148  62.2381686 121.2977337 104.2545791
  61.9331821 121.6123486 105.1055934  63.1912128 121.3758757 104.2973124
  60.6828118 127.4567560 105.9038744  60.1549479 126.7220320 105.5911982
  60.1815620 128.2342237 105.6578713  65.6620964 125.6516581 111.0205791
  65.0044638 126.3415842 111.1085919  66.4661363 126.0413013 111.3639777
  55.4146845 118.1187227 108.2645356  55.9890597 117.8962408 107.5318549
  56.0017828 118.1875921 109.0173957  64.4726423 124.0060954 109.0709733
  64.9858304 124.6390945 109.5731442  65.1227646 123.4062149 108.7053093
  55.7416432 120.1491688 102.2841241  54.9053745 120.4866374 102.6050516
  55.6021202 120.0140668 101.3468378  57.7169513 114.9928476 106.9920425
  57.0633925 114.6777493 106.3677040  57.6749987 114.3704216 107.7180248
  58.8280718 125.2747771  98.9073718  57.9207780 125.0437024  99.1064867
  59.3251750 124.4785390  99.0947699  61.7348797 133.9845278 101.8270404
  61.0610496 134.2876975 102.4355362  62.1214619 134.7874358 101.4775861
  60.9507253 121.4810409 111.3168073  60.0329815 121.7025356 111.1589761
  61.3667397 121.5556720 110.4579780  61.7342301 122.8801825 106.4470753
  62.4814120 123.3923222 106.1377875  62.0033891 122.5585878 107.3075147
  60.0068951 125.3760366 103.4297708  59.0980171 125.0919398 103.5270177
  60.0364035 125.7959444 102.5701014  65.2388219 128.9866955 107.1988875
  64.7850546 128.1457865 107.2554066  64.6082186 129.6228353 107.5363655
  64.1821138 119.9158941 108.4289543  63.4443895 119.4036327 108.7599785
  64.4347912 119.4759323 107.6172820  63.6821158 130.8243452 108.1338693
  63.9744132 131.3848509 107.4151059  64.1919779 131.1172013 108.8891852
  64.2832766 112.6935193 109.0231312  64.5891642 111.8332557 108.7357227
  65.0085370 113.2852813 108.8230306  50.5757122 123.0965880 107.4112910
  50.3781522 122.5035240 106.6863976  50.0203786 122.7918090 108.1288849
  58.5553845 122.9888986 109.5307503  58.6102455 122.0362823 109.4549980
  57.7445047 123.1448425 110.0148801  59.7045039 126.9169109 100.7685786
  59.2664469 126.2004968 100.3091424  60.4455480 127.1445224 100.2070878
  56.4946205 121.6066046 107.2897882  55.6814071 121.9060216 107.6963074
  56.9905200 121.2121735 108.0072364  58.6454783 131.6023803 109.2232147
  58.6030962 131.8284649 108.2940679  59.5617482 131.3687177 109.3717948
  62.0920417 122.0707870 116.1212776  62.4469805 122.2979344 116.9807241
  62.7392548 122.4026247 115.4990031  67.8218154 125.1926306 106.8262105
  67.6836053 125.3827902 105.8983294  67.4654373 125.9545689 107.2830156
  55.9860280 119.1784401 112.9059117  56.6259659 119.0373161 112.2082080
  55.1537811 118.8918915 112.5297719  67.8487534 127.2602833 111.8373376
  68.2824040 127.1678122 112.6856430  68.5619114 127.2360334 111.1993392
  56.7620584 128.4786832 109.0194109  57.5561182 127.9837152 108.8176684
  56.0512276 127.9504695 108.6561815  61.5815428 130.8604927 113.3706477
  61.6352451 131.4295864 114.1384193  60.7130210 131.0306812 113.0060514
  53.0703347 122.6229914 105.0953862  52.1400936 122.5614369 105.3123824
  53.1660819 122.1005866 104.2990503  52.9888897 119.1484726 107.6832104
  53.2495714 120.0630060 107.5741264  53.8106069 118.6809169 107.8328716
  54.4613822 120.5622484 114.8530928  55.1336875 120.3539846 114.2043577
  53.6343608 120.3644570 114.4136160  68.7103083 127.3026534 114.3706262
  68.9038973 128.2072344 114.6165537  68.6103701 126.8433953 115.2044847
  60.3639394 117.1884425 116.8696589  59.7167309 117.8874374 116.7761065
  61.1340409 117.6220568 117.2372837  63.7718192 127.4533277 119.9447142
  63.6203698 127.2243828 119.0277226  63.7622871 128.4103878 119.9578487
  60.5403528 125.0265189 114.9293409  61.4695588 125.1776349 114.7562376
  60.1194558 125.1149210 114.0742055  59.3391860 129.0515854 112.6991946
  59.2002946 128.6834638 113.5717884  58.5506456 129.5663493 112.5275904
  59.9340012 134.1524950 104.0417483  60.1091768 133.6812994 104.8563106
  59.2472800 134.7790717 104.2698744  60.8897075 128.4297457 110.0880784
  60.5546908 128.3898227 110.9838434  60.3901021 127.7642172 109.6151194
  54.8641319 123.8365087 115.6133365  54.7261117 123.1045325 116.2144904
  55.7746243 123.7473987 115.3317553  63.8256267 125.7753491 100.3617844
  63.2085437 125.0500319 100.2650896  63.3572755 126.5362851 100.0184918
  57.4923620 123.5485046 115.1017045  58.2023238 122.9078238 115.0603663
  57.4492928 123.7997941 116.0243226  65.4810398 130.4852399 118.0223624
  65.4222945 129.8011619 117.3554207  65.8829917 131.2271389 117.5704250
  56.2052554 120.5350264 116.9212684  55.6689911 120.0841002 117.5734281
  55.6169262 120.6696173 116.1783149  54.5001097 137.3014313 110.8157343
  54.7397695 137.9332837 111.4936362  53.6570294 136.9502353 111.1022702
  55.6154813 119.9938915  99.4839148  54.7384279 119.8727716  99.1201395
  56.0912566 119.2024993  99.2318037  65.4827806 128.4491983 116.2537604
  64.5954584 128.1117905 116.3764003  66.0526357 127.7175014 116.4906369
  47.1356953 124.7816075 109.5780655  47.8227993 124.4677805 108.9901671
  46.9805082 125.6857440 109.3047907  51.9391675 119.6706271 114.0065679
  51.8549864 119.0631941 113.2716089  51.1174381 120.1615290 114.0075175
  59.0128959 133.1093436 113.2198847  58.9399131 133.9148407 113.7318152
  58.5706352 133.3085401 112.3946868  58.8018739 132.3465206 106.7301669
  58.0186261 132.8886886 106.8239893  59.5011484 132.8639185 107.1295910
  62.1115389 118.1559835 109.3735874  62.6084088 117.4029797 109.0536944
  61.3402370 118.1924152 108.8079083  69.9645146 123.8600201 111.0154165
  69.9535023 124.7424916 110.6448099  69.0962526 123.5071751 110.8208703
  61.4727643 133.0080270 115.3757006  62.1855615 133.6427734 115.3032907
  60.9817671 133.1044136 114.5597008  63.1945170 126.9131522 106.9474297
  62.2601448 127.0332985 106.7779002  63.3721838 126.0103989 106.6834307
  58.6950358 120.2977218 109.1007559  58.3248145 119.7448258 109.7888464
  59.1909450 119.6935351 108.5482559  66.5817721 122.7548842 107.4824331
  67.0478173 123.5876833 107.4084634  67.0325221 122.2893823 108.1869590
  56.5239556 130.7574713 116.1962577  57.2249016 131.3911196 116.3491971
  56.0534671 131.0989445 115.4358216  64.6493952 129.0992663 104.4810484
  64.9253796 128.9849257 105.3904358  63.7798451 128.7010148 104.4422657
  64.5534384 115.1229429 111.5215233  63.6397463 115.3533655 111.6897440
  64.9827485 115.2067873 112.3729265  64.3240842 123.3119320 114.0215127
  63.6712292 123.5595228 113.3667580  64.7021222 122.4983459 113.6877604
  61.2848016 133.3479014 108.1243297  61.4670411 132.5300670 108.5871049
  62.1081002 133.5646706 107.6868187  61.6190182 132.2747199 105.3858346
  62.1477948 131.7639653 104.7728508  61.8818401 131.9589729 106.2503879
  60.3728415 124.0539132 120.5081164  59.6969052 123.9533261 121.1783539
  61.1956049 123.8978345 120.9717161  52.1207274 130.2911068 113.1293679
  52.7060711 129.5454756 113.2621583  51.9232113 130.6015025 114.0130343
  54.9745929 133.3262315 108.1456122  54.3056305 133.8108443 107.6620162
  54.8358799 133.5731536 109.0599500  46.7124929 122.8616668 111.8498122
  46.7509028 122.3280259 112.6435240  46.2065222 122.3351874 111.2309100
  59.1151198 135.3606059 114.7438780  59.6669506 135.5237680 115.5087865
  59.4557391 135.9510497 114.0718805  54.0915691 117.7081209 115.3460665
  54.1557018 118.5696040 114.9338062  54.0282812 117.0955210 114.6133023
  53.5667964 119.7804341 118.9933699  54.1940003 119.3981419 119.6071223
  52.7095883 119.5618543 119.3589391  63.9662072 130.1867316 120.5987434
  64.5101976 130.7997275 120.1042389  63.3848917 130.7446895 121.1154447
  50.3433507 121.5880770 104.9252054  50.6386948 120.6791449 104.8719107
  49.4421542 121.5668510 104.6033056  62.2519585 133.3088035 111.7302462
  62.1270725 132.5077774 111.2213408  62.9098676 133.8034228 111.2416432
  53.8727754 119.6636767 110.9079602  53.1514339 120.2772735 110.7687076
  54.6621009 120.1994532 110.8296248  64.3154494 131.1097055 113.3582012
  63.3684829 130.9902406 113.2860339  64.6637267 130.2219553 113.4408274
  56.6754067 116.9991194 117.1820254  57.1988469 117.2453490 117.9446563
  56.4566400 117.8311228 116.7623391  52.0721348 119.2694868 105.0491379
  51.7434054 118.3892247 104.8666485  52.4260719 119.2142537 105.9367768
  61.3200927 130.9049771 109.5586364  61.1725889 129.9766478 109.7393934
  62.1454421 130.9269862 109.0743440  55.1863171 119.5567838 105.4166857
  55.5259244 120.0853759 104.6945465  55.6335292 119.8948244 106.1925423
  64.9235049 131.7278330 110.6451237  65.8481596 131.5221191 110.5075688
  64.7550352 131.4794731 111.5540579  57.8806612 117.9404889 114.8669925
  57.5403432 117.1412702 115.2690604  57.1745618 118.2406599 114.2946758
  58.5323084 115.0254201 113.3197248  59.3549153 114.5514679 113.1976138
  58.7761147 115.8044685 113.8195934  57.1731318 118.0542459 103.6160149
  57.8939681 118.4323712 103.1123866  56.5496623 118.7731336 103.7195127
  61.3162441 118.7587608 104.5518482  61.5326056 119.6412246 104.2507310
  60.8356508 118.3673822 103.8224124  56.0561663 121.7173322 111.1289226
  55.9106243 122.0313625 112.0213508  55.5786866 122.3358222 110.5760125
  57.9158046 118.7075870 111.1770116  57.9019614 117.8116963 110.8402414
  58.6330474 118.7146533 111.8108402  59.7684176 119.1413210 113.2223243
  59.5101954 120.0630281 113.2207574  59.2369217 118.7443644 113.9123707
  64.7130365 132.2463997 106.0013329  64.8867243 131.6810419 105.2487181
  65.2059256 133.0464892 105.8192819  50.5307325 124.2578666 114.0676887
  49.9860793 125.0338474 114.1997162  51.4086675 124.6049471 113.9096009
  57.3194942 117.5890250 106.4457686  57.4410853 116.6606896 106.6448573
  57.0296984 117.6028936 105.5336001  60.1886132 115.2745160 109.5824406
  60.2107829 115.3384493 108.6276385  60.6054191 114.4349669 109.7764912
  70.5669756 125.0100420 107.6203628  71.0100902 124.2607745 107.2222752
  69.6896267 125.0010556 107.2377360  65.7005538 131.5630761 103.1010227
  66.3956442 132.1837454 103.3197542  66.0428688 130.7126113 103.3762605
  51.3173347 123.3848562 116.9607044  50.5755083 123.5331198 117.5471675
  50.9966091 123.6456828 116.0973794  67.5996961 129.0130467 104.6297558
  68.1248285 129.3517740 103.9046878  67.5119313 128.0777482 104.4460692
  59.2617009 132.9264541 116.7587434  59.5704136 132.6813687 117.6310134
  60.0592491 133.1311179 116.2706305  59.2837621 135.0802450 108.9892811
  58.8442612 134.5878829 109.6825668  60.0345738 134.5375418 108.7484886
  51.7629960 131.2713991 108.9917439  52.5887980 130.9717763 108.6116082
  51.4124012 130.5021614 109.4407228  56.7311494 130.6240459 111.0615113
  56.1091503 129.9611164 110.7617340  57.4016360 130.6501591 110.3788760
  49.9638565 129.1900318 109.9506373  49.1270474 128.7622492 109.7690374
  49.9362211 129.3832761 110.8877164  56.8036021 119.1022247 120.6547619
  56.8524177 119.9784370 120.2725388  57.3458535 118.5599640 120.0819262
  67.2890867 129.6463371 119.9348756  66.4986410 129.6287509 119.3953255
  67.0524221 130.1851664 120.6897792  67.4088742 126.4955837 117.2481484
  67.4586747 126.3305844 118.1897007  67.3002665 125.6283096 116.8579365
  56.2925000 129.1744383 104.5373573  56.4413121 129.8579847 103.8840246
  57.0991444 129.1549473 105.0523029  64.6992504 122.4786765 118.5640791
  65.6002367 122.3393230 118.2724789  64.7740479 122.6441220 119.5038968
  59.0335309 119.8553620 117.4093977  58.1638619 120.1487186 117.1376566
  59.2694790 120.4394065 118.1301241  68.9106939 128.9152778 117.4923506
  68.6191747 129.2782759 118.3286967  68.2979070 128.2019787 117.3136838
  70.1102621 126.4805658 110.0126076  70.9449512 126.9195462 110.1763636
  70.2461750 126.0044311 109.1934322  67.1594127 124.0385393 115.9603564
  67.6348248 124.2313039 115.1522415  66.2359692 124.0944579 115.7146947
  54.0477633 125.2009560 105.5434642  53.8023675 124.2971890 105.7414852
  54.2173548 125.2026711 104.6014120  61.7374343 116.0733237 114.9259398
  62.2556287 116.8094264 114.6005886  61.3829476 116.3797230 115.7606157
  53.3173281 120.9337918 103.0420803  52.6242526 121.0082273 102.3860839
  53.0725033 120.1698261 103.5642320  61.9886937 112.4933519 110.4460294
  62.2688691 111.8256708 111.0720721  62.7737544 112.6862615 109.9334958
  59.7920406 131.6692513 102.0085320  59.2194373 132.2882700 101.5555792
  60.3653200 132.2191875 102.5425242  65.8595796 120.9151153 114.1931869
  66.8113219 121.0149251 114.2144093  65.6899246 120.1229422 114.7029954
  63.8810175 118.0006736 114.3791270  63.2860107 118.2811749 113.6837759
  63.5959872 118.4900637 115.1508011  63.0117666 131.9529663 103.1393903
  63.9448339 131.8875225 103.3426778  62.9240879 132.7885930 102.6808435
  65.6405682 131.2695534 100.0997850  65.5619314 130.9355397 100.9933608
  66.4615349 131.7617301 100.0989323  68.3383874 124.1357273 113.3074169
  68.3060194 123.1973274 113.4933853  68.9484497 124.2141310 112.5739994
  60.1767204 123.0053326  99.3501373  61.1226309 122.8759534  99.4189791
  59.7981449 122.2667988  99.8270801  68.4878362 120.9268316 113.3532452
  67.9717411 120.1426773 113.1662381  69.3718311 120.5987033 113.5178972
  66.1489089 114.6709332 109.3128265  65.9513910 114.3624420 110.1971597
  66.7588795 115.3970971 109.4426195  74.1560423 125.1973280 112.4480206
  74.8863812 124.9358568 113.0087909  73.5467369 124.4602002 112.4882274
  72.2375721 123.3381142 113.0454657  71.5108884 123.2037107 112.4371149
  71.8223007 123.6457971 113.8511375  60.0605897 127.0571072 120.8102030
  60.9808906 127.2349671 121.0042076  60.0255480 126.1127117 120.6581729
  58.3610122 120.9303302  99.2856258  57.4541577 120.6336415  99.3618972
  58.6386103 120.6333120  98.4190544  49.2788062 122.2509666 109.7355305
  48.9590846 121.3974974 109.4429679  48.7321490 122.4658244 110.4913272
  53.0567970 124.9672107 113.4524811  53.2753979 125.8989214 113.4712845
  53.4693743 124.6080081 114.2379615  59.9772187 115.4740192 105.4400500
  59.1672916 115.1287277 105.8155746  60.6656604 115.1647736 106.0288111
  61.9062736 114.5518239 107.0624796  62.4593774 114.9713692 107.7214819
  62.1432822 113.6253987 107.1047752  57.9295835 120.5405312 122.8427560
  57.8292562 121.4899669 122.7739651  57.7117377 120.2123551 121.9703630
  57.1308906 117.7890237  99.4268237  57.9928070 118.1145136  99.6864055
  57.3159250 117.0021733  98.9141303  49.1476322 125.8712577 111.7048426
  48.4539793 125.4566530 111.1918381  49.8949313 125.9133114 111.1081845
  65.2841543 116.6618764 106.5703460  64.7040212 117.3203568 106.1881513
  65.0177475 115.8396108 106.1590878  63.7345109 116.0623822 108.7724781
  64.2344887 116.1740356 107.9639100  64.3780717 115.7584874 109.4125589
  57.7927105 123.9702451 121.6592622  57.3094187 124.7702811 121.8656511
  57.8788044 123.9810396 120.7060066  51.0613065 125.8030831 109.5814441
  51.0383753 125.9018518 108.6296324  51.3713701 126.6495982 109.9031607
  53.7200442 127.8606986 113.6961055  54.6743696 127.8290928 113.6290987
  53.5212966 127.3997610 114.5111281  54.3099825 126.4308102 116.2631853
  55.1292714 126.9252181 116.2866690  54.5836632 125.5140070 116.2349421
  64.0666421 118.8218854 105.6259809  63.1792276 119.1068505 105.4080003
  64.4820410 118.6612618 104.7787086  67.4180957 118.8465375 109.3414148
  68.1941347 119.3361828 109.6138765  66.6929091 119.2723429 109.7986017
  69.8553516 119.5592994 110.3988089  70.4498006 119.3188730 109.6881397
  69.9280099 118.8400125 111.0261625  52.0750671 133.4026605 110.7131253
  51.9405139 132.6427006 110.1469251  51.6582733 134.1267505 110.2460042
  63.2109634 128.5863529  99.7207829  63.9145484 128.7913531 100.3365484
  62.4872283 129.1540291  99.9856912  64.0407445 124.3373390 105.8410099
  63.9842646 124.7941942 105.0017731  64.5935787 123.5764075 105.6632942
  67.8512250 120.1263122 106.6660218  67.5949185 119.7259758 107.4968426
  67.2265118 120.8406916 106.5410357  72.1624588 122.8659195 109.1731510
  71.6024146 122.9352385 109.9463072  71.5568092 122.6900180 108.4531006
  55.2319797 134.2995922 110.9249696  55.1152181 135.2441355 110.8228386
  54.4112243 133.9969484 111.3135495  65.1196332 129.0246058 101.7706289
  65.9541936 128.5927257 101.5883764  64.9580675 128.8528072 102.6983183
  64.7742224 125.5278171 103.1362628  64.7191028 125.3622443 102.1951072
  64.1488279 126.2354204 103.2924818  49.5634739 120.7646236 116.9624050
  50.2093602 120.2545190 117.4511275  49.3551890 121.5014917 117.5367475
  62.0888131 127.8327083 122.4616191  62.9579291 128.0067736 122.1002826
  61.6094882 128.6521500 122.3391920  58.0838349 115.0286280 102.7147946
  58.0717019 115.9728120 102.8716217  58.9761771 114.8456426 102.4207408
  56.2574311 134.9524184 114.1405624  57.1601558 134.9847795 114.4572119
  56.0311681 134.0224635 114.1551960  58.0127913 133.7055171 110.8015703
  57.0623544 133.7057032 110.6880075  58.3160399 132.9587905 110.2851738
  61.8990469 111.6229057 106.9693883  61.1322865 111.0687544 107.1150566
  62.3101174 111.6950926 107.8308035  53.9032230 117.9113853 121.0599064
  54.7663691 117.5550658 121.2702389  53.3297640 117.5727748 121.7474469
  73.7480607 139.5415709 111.8661465  74.3859017 139.4222457 111.1624806
  73.6301450 140.4896553 111.9249418  70.5570313 139.4943137 111.8022990
  70.2188825 139.3784202 110.9143525  71.4260081 139.0934302 111.7823996
  66.4157129 141.3478614 107.7919881  65.8521994 141.2568551 107.0236169
  66.3009524 140.5278518 108.2722374  63.9621561 142.8429805 110.6304102
  64.7542853 142.5020630 110.2150401  64.2018211 142.9524780 111.5506255
  65.9212315 142.1038719 103.5021480  66.6943191 141.5567706 103.3634356
  66.2737713 142.9682968 103.7135942  68.6853564 140.8091949 113.2989739
  69.2817136 140.5847972 112.5846702  68.7428536 140.0676695 113.9015187
  68.2578592 138.2631385 101.1339930  68.5104113 137.7412906 100.3723393
  67.3203151 138.0997530 101.2366614  73.3021875 137.2667163 108.9414673
  74.0884964 136.8486586 108.5905091  73.5660580 138.1713255 109.1096322
  73.4731953 142.7040013 103.6403330  72.8377786 142.7774640 104.3524235
  73.1429359 143.2933612 102.9622410  78.7030302 137.2042396 109.8447652
  79.4355474 136.6341613 110.0785481  77.9469658 136.8163997 110.2854158
  67.9774881 140.1659491 103.3364305  67.8611139 139.4904394 104.0045390
  68.0877141 139.6791865 102.5196458  70.3206422 139.6269638 107.0410994
  69.9564629 139.1000259 107.7523916  71.1773538 139.2368107 106.8677480
  76.2255723 130.9163970 114.3042261  75.8939047 131.7859381 114.0803476
  75.6301336 130.6000254 114.9836291  69.9611909 134.6559538 102.0372343
  70.1286311 135.5239774 102.4042814  69.7709078 134.8186819 101.1133632
  66.1699724 139.5690313 109.7374878  65.2450220 139.4366527 109.9452570
  66.4184137 140.3484533 110.2344820  76.1184386 135.6359057 111.3835611
  75.2101263 135.5674465 111.0894372  76.0671982 136.1131002 112.2117436
  69.9401130 137.1117195 103.0219010  69.8200755 137.5574246 103.8604490
  69.2453718 137.4602513 102.4632548  63.5308535 139.2123587 110.5718667
  63.6600916 139.4658066 111.4858079  62.8505986 139.8051295 110.2523322
  77.9846032 133.8375495 113.1613485  77.3420413 134.1308028 112.5153279
  77.4800961 133.7228415 113.9666681  75.6386196 137.5838668 103.8499344
  76.5504052 137.8166055 103.6747041  75.1295843 138.1675712 103.2874422
  70.2758034 136.9435903 114.8594193  71.1219229 137.3675316 115.0028842
  70.2156671 136.2869527 115.5532756  74.2455778 142.5664487 111.2412925
  73.6164641 142.7310201 110.5388993  73.8581440 142.9806096 112.0123889
  78.1245010 143.5018924 108.5957289  77.4396048 143.8817826 108.0454322
  78.2088860 144.1114251 109.3289237  73.4257479 134.6040271 116.5175367
  73.1818411 135.3582332 115.9809643  73.7017410 134.9825619 117.3522614
  72.9822171 133.7596704 112.0989205  72.1206650 134.0577958 112.3905942
  73.0084606 133.9767103 111.1670237  69.7983740 142.3038895 108.5063010
  70.2622086 142.5826598 107.7167633  69.5340538 141.4022339 108.3236101
  66.6907821 141.8510376 111.4442774  67.2609178 142.2797645 110.8060258
  67.2815933 141.5692961 112.1426959  68.7352626 138.4262047 105.3152576
  69.4376670 138.8783091 105.7826502  68.4033255 137.7845866 105.9432469
  62.4777960 136.6845600 110.6169709  61.6877014 136.9403128 110.1409820
  62.9689208 137.4993938 110.7221750  64.4292706 137.0490179 107.5753186
  63.6323869 137.1608873 108.0936681  64.2018298 137.3876831 106.7094076
  60.7615663 136.9376090 113.0484700  61.0123702 137.8223100 113.3142276
  61.2975212 136.7580692 112.2759792  84.5847763 140.3689587 109.7159961
  83.8311471 139.7996985 109.5603966  84.7195304 140.3352252 110.6630596
  66.4613731 131.3194570 122.0529036  66.0680676 130.7660768 122.7276680
  67.2779871 131.6305148 122.4435554  69.3781692 132.7352449 119.6449293
  70.1191405 133.3359602 119.5653755  69.6099614 131.9930086 119.0867335
  64.5223030 137.9208816 117.9227522  64.4076545 137.0194073 118.2234621
  63.6667547 138.1672513 117.5712339  73.3238855 128.7633552 113.9213574
  72.9803124 129.6535193 113.8452685  73.6917817 128.5735209 113.0583159
  61.3924705 141.0867082 106.7402176  62.2299927 141.4964090 106.5235884
  61.5702973 140.1466524 106.7102370  73.2889137 138.7542163 102.4286009
  72.7735761 139.5246767 102.6674397  73.0166446 138.0807299 103.0519071
  70.8736248 133.5991863 107.4871248  70.0177845 133.2098714 107.3076886
  71.2863200 133.6783824 106.6271033  72.4035395 131.1338207 111.8862807
  71.9000190 131.0968342 111.0730613  72.6966002 132.0430949 111.9459464
  68.6478281 131.2176936 110.8928989  69.5131278 131.0219745 110.5334879
  68.7155790 130.9887288 111.8198346  78.2623411 141.5074517 104.3639183
  77.4852854 141.1685677 103.9194345  78.9414892 141.5127141 103.6894148
  73.0775440 136.6269255 104.2545791  72.7725576 136.9415404 105.1055934
  74.0305883 136.7050675 104.2973124  71.5221872 142.7859478 105.9038744
  70.9943234 142.0512238 105.5911982  71.0209375 143.5634154 105.6578713
  76.5014718 140.9808499 111.0205791  75.8438393 141.6707760 111.1085919
  77.3055117 141.3704931 111.3639777  66.2540600 133.4479144 108.2645356
  66.8284352 133.2254326 107.5318549  66.8411582 133.5167839 109.0173957
  75.3120177 139.3352871 109.0709733  75.8252059 139.9682863 109.5731442
  75.9621401 138.7354067 108.7053093  66.5810187 135.4783605 102.2841241
  65.7447499 135.8158292 102.6050516  66.4414957 135.3432585 101.3468378
  68.5563268 130.3220393 106.9920425  67.9027680 130.0069410 106.3677040
  68.5143742 129.6996134 107.7180248  69.6674472 140.6039688  98.9073718
  68.7601534 140.3728942  99.1064867  70.1645504 139.8077308  99.0947699
  71.7901008 136.8102327 111.3168073  70.8723569 137.0317274 111.1589761
  72.2061152 136.8848637 110.4579780  72.5736056 138.2093743 106.4470753
  73.3207875 138.7215140 106.1377875  72.8427645 137.8877795 107.3075147
  70.8462706 140.7052283 103.4297708  69.9373925 140.4211316 103.5270177
  70.8757790 141.1251362 102.5701014  76.0781973 144.3158873 107.1988875
  75.6244300 143.4749783 107.2554066  75.4475940 144.9520271 107.5363655
  75.0214893 135.2450859 108.4289543  74.2837650 134.7328245 108.7599785
  75.2741666 134.8051240 107.6172820  74.5214913 146.1535369 108.1338693
  74.8137887 146.7140427 107.4151059  75.0313533 146.4463930 108.8891852
  75.1226520 128.0227111 109.0231312  75.4285397 127.1624474 108.7357227
  75.8479125 128.6144731 108.8230306  61.4150876 138.4257797 107.4112910
  61.2175276 137.8327158 106.6863976  60.8597540 138.1210008 108.1288849
  69.3947600 138.3180904 109.5307503  69.4496210 137.3654740 109.4549980
  68.5838802 138.4740343 110.0148801  70.5438794 142.2461027 100.7685786
  70.1058224 141.5296886 100.3091424  71.2849235 142.4737142 100.2070878
  67.3339960 136.9357964 107.2897882  66.5207825 137.2352134 107.6963074
  67.8298954 136.5413652 108.0072364  72.9314172 137.3999788 116.1212776
  73.2863559 137.6271261 116.9807241  73.5786303 137.7318165 115.4990031
  78.6611908 140.5218224 106.8262105  78.5229807 140.7119820 105.8983294
  78.3048127 141.2837607 107.2830156  66.8254035 134.5076319 112.9059117
  67.4653414 134.3665078 112.2082080  65.9931565 134.2210833 112.5297719
  67.6014338 143.8078750 109.0194109  68.3954937 143.3129070 108.8176684
  66.8906031 143.2796613 108.6561815  63.9097102 137.9521831 105.0953862
  62.9794690 137.8906287 105.3123824  64.0054574 137.4297784 104.2990503
  63.8282651 134.4776644 107.6832104  64.0889468 135.3921977 107.5741264
  64.6499823 134.0101087 107.8328716  65.3007576 135.8914401 114.8530928
  65.9730630 135.6831763 114.2043577  64.4737363 135.6936487 114.4136160
  71.2033148 132.5176342 116.8696589  70.5561063 133.2166292 116.7761065
  71.9734164 132.9512486 117.2372837  71.3797283 140.3557107 114.9293409
  72.3089343 140.5068267 114.7562376  70.9588313 140.4441128 114.0742055
  71.7290830 143.7589374 110.0880784  71.3940662 143.7190144 110.9838434
  71.2294775 143.0934090 109.6151194  65.7035074 139.1657004 115.6133365
  65.5654872 138.4337243 116.2144904  66.6139997 139.0765904 115.3317553
  74.6650021 141.1045409 100.3617844  74.0479192 140.3792237 100.2650896
  74.1966510 141.8654769 100.0184918  68.3317374 138.8776964 115.1017045
  69.0416993 138.2370156 115.0603663  68.2886682 139.1289858 116.0243226
  67.0446308 135.8642181 116.9212684  66.5083665 135.4132920 117.5734281
  66.4563017 135.9988090 116.1783149  66.4548567 135.3230833  99.4839148
  65.5778034 135.2019634  99.1201395  66.9306320 134.5316911  99.2318037
  62.7785429 134.9998189 114.0065679  62.6943618 134.3923859 113.2716089
  61.9568136 135.4907207 114.0075175  72.9509143 133.4851753 109.3735874
  73.4477843 132.7321715 109.0536944  72.1796125 133.5216069 108.8079083
  80.8038901 139.1892118 111.0154165  80.7928777 140.0716834 110.6448099
  79.9356280 138.8363669 110.8208703  74.0338924 142.2423440 106.9474297
  73.0995203 142.3624902 106.7779002  74.2115592 141.3395907 106.6834307
  69.5344112 135.6269136 109.1007559  69.1641900 135.0740176 109.7888464
  70.0303205 135.0227269 108.5482559  77.4211475 138.0840759 107.4824331
  77.8871928 138.9168751 107.4084634  77.8718976 137.6185741 108.1869590
  75.4887706 144.4284580 104.4810484  75.7647550 144.3141175 105.3904358
  74.6192205 144.0302065 104.4422657  75.3928138 130.4521346 111.5215233
  74.4791218 130.6825573 111.6897440  75.8221240 130.5359790 112.3729265
  75.1634597 138.6411238 114.0215127  74.5106047 138.8887146 113.3667580
  75.5414977 137.8275376 113.6877604  57.5518683 138.1908586 111.8498122
  57.5902783 137.6572177 112.6435240  57.0458976 137.6643791 111.2309100
  64.9309446 133.0373126 115.3460665  64.9950772 133.8987957 114.9338062
  64.8676566 132.4247128 114.6133023  64.4061718 135.1096259 118.9933699
  65.0333757 134.7273336 119.6071223  63.5489637 134.8910461 119.3589391
  61.1827261 136.9172688 104.9252054  61.4780702 136.0083367 104.8719107
  60.2815297 136.8960428 104.6033056  64.7121508 134.9928685 110.9079602
  63.9908094 135.6064652 110.7687076  65.5014764 135.5286450 110.8296248
  67.5147822 132.3283111 117.1820254  68.0382223 132.5745408 117.9446563
  67.2960155 133.1603146 116.7623391  62.9115103 134.5986786 105.0491379
  62.5827809 133.7184165 104.8666485  63.2654473 134.5434454 105.9367768
  66.0256926 134.8859756 105.4166857  66.3652998 135.4145677 104.6945465
  66.4729046 135.2240162 106.1925423  68.7200367 133.2696806 114.8669925
  68.3797187 132.4704619 115.2690604  68.0139373 133.5698517 114.2946758
  69.3716838 130.3546119 113.3197248  70.1942908 129.8806597 113.1976138
  69.6154902 131.1336602 113.8195934  68.0125073 133.3834377 103.6160149
  68.7333435 133.7615630 103.1123866  67.3890377 134.1023254 103.7195127
  72.1556196 134.0879526 104.5518482  72.3719810 134.9704164 104.2507310
  71.6750263 133.6965740 103.8224124  66.8955417 137.0465239 111.1289226
  66.7499998 137.3605542 112.0213508  66.4180621 137.6650140 110.5760125
  68.7551800 134.0367787 111.1770116  68.7413369 133.1408881 110.8402414
  69.4724228 134.0438451 111.8108402  70.6077931 134.4705128 113.2223243
  70.3495709 135.3922198 113.2207574  70.0762971 134.0735562 113.9123707
  61.3701079 139.5870584 114.0676887  60.8254547 140.3630392 114.1997162
  62.2480429 139.9341388 113.9096009  68.1588696 132.9182168 106.4457686
  68.2804607 131.9898814 106.6448573  67.8690738 132.9320854 105.5336001
  71.0279886 130.6037078 109.5824406  71.0501583 130.6676411 108.6276385
  71.4447945 129.7641587 109.7764912  81.4063511 140.3392338 107.6203628
  81.8494657 139.5899663 107.2222752  80.5290021 140.3302474 107.2377360
  76.5399292 146.8922679 103.1010227  77.2350197 147.5129372 103.3197542
  76.8822442 146.0418030 103.3762605  62.1567101 138.7140480 116.9607044
  61.4148837 138.8623115 117.5471675  61.8359845 138.9748746 116.0973794
  78.4390715 144.3422385 104.6297558  78.9642039 144.6809657 103.9046878
  78.3513068 143.4069400 104.4460692  67.6429776 134.4314165 120.6547619
  67.6917931 135.3076288 120.2725388  68.1852290 133.8891558 120.0819262
  69.8729064 135.1845537 117.4093977  69.0032373 135.4779103 117.1376566
  70.1088544 135.7685982 118.1301241  80.9496375 141.8097576 110.0126076
  81.7843267 142.2487380 110.1763636  81.0855504 141.3336229 109.1934322
  64.8871388 140.5301478 105.5434642  64.6417430 139.6263808 105.7414852
  65.0567302 140.5318628 104.6014120  72.5768098 131.4025154 114.9259398
  73.0950042 132.1386181 114.6005886  72.2223231 131.7089148 115.7606157
  64.1567035 136.2629836 103.0420803  63.4636280 136.3374191 102.3860839
  63.9118787 135.4990179 103.5642320  72.8280692 127.8225437 110.4460294
  73.1082446 127.1548626 111.0720721  73.6131299 128.0154532 109.9334958
  76.6989550 136.2443071 114.1931869  77.6506973 136.3441169 114.2144093
  76.5293001 135.4521339 114.7029954  74.7203930 133.3298654 114.3791270
  74.1253862 133.6103667 113.6837759  74.4353627 133.8192555 115.1508011
  76.4799437 146.5987451 100.0997850  76.4013068 146.2647315 100.9933608
  77.3009104 147.0909219 100.0989323  79.1777628 139.4649191 113.3074169
  79.1453948 138.5265191 113.4933853  79.7878252 139.5433227 112.5739994
  71.0160959 138.3345244  99.3501373  71.9620064 138.2051452  99.4189791
  70.6375204 137.5959905  99.8270801  79.3272117 136.2560234 113.3532452
  78.8111165 135.4718691 113.1662381  80.2112065 135.9278951 113.5178972
  76.9882844 130.0001250 109.3128265  76.7907665 129.6916338 110.1971597
  77.5982549 130.7262888 109.4426195  69.2003876 136.2595220  99.2856258
  68.2935332 135.9628333  99.3618972  69.4779857 135.9625038  98.4190544
  60.1181817 137.5801583 109.7355305  59.7984601 136.7266892 109.4429679
  59.5715245 137.7950161 110.4913272  63.8961724 140.2964024 113.4524811
  64.1147734 141.2281132 113.4712845  64.3087498 139.9371999 114.2379615
  70.8165942 130.8032110 105.4400500  70.0066670 130.4579195 105.8155746
  71.5050359 130.4939653 106.0288111  72.7456490 129.8810156 107.0624796
  73.2987529 130.3005610 107.7214819  72.9826577 128.9545905 107.1047752
  67.9702661 133.1182155  99.4268237  68.8321825 133.4437053  99.6864055
  68.1553005 132.3313651  98.9141303  59.9870077 141.2004495 111.7048426
  59.2933548 140.7858448 111.1918381  60.7343068 141.2425031 111.1081845
  76.1235297 131.9910682 106.5703460  75.5433966 132.6495486 106.1881513
  75.8571230 131.1688026 106.1590878  74.5738864 131.3915739 108.7724781
  75.0738642 131.5032274 107.9639100  75.2174472 131.0876792 109.4125589
  61.9006819 141.1322749 109.5814441  61.8777507 141.2310436 108.6296324
  62.2107456 141.9787899 109.9031607  65.1493579 141.7600020 116.2631853
  65.9686468 142.2544098 116.2866690  65.4230387 140.8431988 116.2349421
  74.9060175 134.1510772 105.6259809  74.0186030 134.4360423 105.4080003
  75.3214164 133.9904535 104.7787086  78.2574711 134.1757293 109.3414148
  79.0335102 134.6653745 109.6138765  77.5322846 134.6015347 109.7986017
  80.6947270 134.8884912 110.3988089  81.2891761 134.6480648 109.6881397
  80.7673854 134.1692043 111.0261625  74.0503389 143.9155447  99.7207829
  74.7539239 144.1205449 100.3365484  73.3266037 144.4832209  99.9856912
  74.8801199 139.6665308 105.8410099  74.8236400 140.1233859 105.0017731
  75.4329541 138.9055992 105.6632942  78.6906005 135.4555040 106.6660218
  78.4342939 135.0551675 107.4968426  78.0658873 136.1698834 106.5410357
  83.0018343 138.1951113 109.1731510  82.4417901 138.2644302 109.9463072
  82.3961846 138.0192098 108.4531006  75.9590086 144.3537976 101.7706289
  76.7935690 143.9219174 101.5883764  75.7974429 144.1819990 102.6983183
  75.6135978 140.8570089 103.1362628  75.5584782 140.6914361 102.1951072
  74.9882034 141.5646122 103.2924818  60.4028493 136.0938154 116.9624050
  61.0487357 135.5837107 117.4511275  60.1945644 136.8306835 117.5367475
  68.9232104 130.3578198 102.7147946  68.9110774 131.3020038 102.8716217
  69.8155526 130.1748344 102.4207408  72.7384223 126.9520975 106.9693883
  71.9716619 126.3979461 107.1150566  73.1494928 127.0242844 107.8308035
  64.7425984 133.2405771 121.0599064  65.6057446 132.8842575 121.2702389
  64.1691395 132.9019665 121.7474469  79.3957022 145.6512311 106.9920425
  78.7421434 145.3361328 106.3677040  79.3537496 145.0288051 107.7180248
  81.6559696 146.1324027 105.4400500  80.8460425 145.7871112 105.8155746
  82.3444113 145.8231571 106.0288111  83.5850245 145.2102074 107.0624796
  84.1381283 145.6297528 107.7214819  83.8220331 144.2837822 107.1047752
  79.7625858 145.6870116 102.7147946  79.7504528 146.6311956 102.8716217
  80.6549280 145.5040261 102.4207408  83.5777978 142.2812892 106.9693883
  82.8110374 141.7271379 107.1150566  83.9888683 142.3534761 107.8308035
   8.7118081  24.5726326  98.5906772   9.3496491  24.4533073  97.8870112
   8.5938924  25.5207170  98.6494724   5.5207787  24.5253754  98.5268297
   5.1826299  24.4094819  97.6388832   6.3897556  24.1244919  98.5069303
   1.3794603  26.3789230  94.5165188   0.8159468  26.2879167  93.7481475
   1.2646998  25.5589135  94.9967680   6.9594162  30.0460198  89.8279653
   6.3082141  30.6314278  89.4413666   7.7538525  30.5766393  89.8874690
   0.8849789  27.1349335  90.2266787   1.6580665  26.5878322  90.0879663
   1.2375188  27.9993584  90.4381248   2.7234831  28.4625717 103.4333686
   2.4324697  29.3671348 103.3180353   3.3591816  28.5042245 104.1477756
   3.6491038  25.8402566 100.0235046   4.2454611  25.6158588  99.3092009
   3.7066010  25.0987311 100.6260494   3.2216067  23.2942001  87.8585237
   3.4741587  22.7723523  87.0968700   2.2840626  23.1308147  87.9611921
   8.2659350  22.2977780  95.6659980   9.0522439  21.8797203  95.3150397
   8.5298054  23.2023872  95.8341629   8.4369427  27.7350630  90.3648637
   7.8015260  27.8085256  91.0769542   8.1066833  28.3244229  89.6867716
  13.6667777  22.2353013  96.5692959  14.3992949  21.6652230  96.8030788
  12.9107132  21.8474613  97.0099464   2.9412355  25.1970107  90.0609612
   2.8248614  24.5215011  90.7290696   3.0514615  24.7102481  89.2441765
   5.2843896  24.6580254  93.7656301   4.9202104  24.1310875  94.4769223
   6.1411012  24.2678723  93.5922787   4.9249383  19.6870154  88.7617650
   5.0923786  20.5550390  89.1288121   4.7346552  19.8497436  87.8378939
   7.6824717  28.1487133 100.4283480   7.3825440  29.0512172 100.3199287
   7.3375776  27.8819316 101.2804633  11.0821860  20.6669673  98.1080917
  10.1738738  20.5985082  97.8139678  11.0309456  21.1441618  98.9362743
   4.9038604  22.1427812  89.7464316   4.7838229  22.5884862  90.5849797
   4.2091193  22.4913129  89.1877855   2.6645496  34.9131453  93.3954448
   2.5869526  35.8639278  93.4742928   2.0607140  34.5677326  94.0529374
  12.9483507  18.8686112  99.8858791  12.3057887  19.1618645  99.2398586
  12.4438435  18.7539032 100.6911988  10.6023670  22.6149285  90.5744650
  11.5141527  22.8476671  90.3992348  10.0933317  23.1986329  90.0119729
   8.8864438  27.0373913 104.2105943   9.2947794  26.5956323 103.4660575
   8.1641700  26.4626540 104.4640136   9.2093253  27.5975103  97.9658232
   8.5802115  27.7620817  97.2634300   8.8218915  28.0116713  98.7369196
  13.0882485  28.5329541  95.3202596  12.4033523  28.9128442  94.7699629
  13.1726334  29.1424868  96.0534543  10.3433416  26.1789500 101.9197939
  10.5550311  26.8221260 101.2432320  10.2963164  25.3451817 101.4519869
   7.9459645  18.7907321  98.8234511   7.0844124  19.0888574  99.1151249
   7.9722080  19.0077720  97.8915544   4.7621215  27.3349511  95.2308317
   5.2259560  27.6137214  94.4412940   4.4978013  26.4332956  95.0481408
   1.6545296  26.8820993  98.1688080   2.2246653  27.3108261  97.5305565
   2.2453407  26.6003578  98.8672266   3.6990101  23.4572664  92.0397882
   4.4014144  23.9093707  92.5071809   3.3670729  22.8156483  92.6677775
  11.4579244  29.0561455 100.0920297  12.2796688  28.6541643  99.8102978
  11.4541647  28.9529690 101.0436412   5.2235848  28.6045499 102.2481007
   5.2880280  29.0665906 103.0839179   4.5146771  27.9742864 102.3763317
  19.5485237  25.4000204  96.4405268  18.7948946  24.8307602  96.2849272
  19.6832778  25.3662868  97.3875903   4.9383865  30.2713606  92.1159987
   4.8029540  31.1165142  92.5444835   5.4793678  30.4732884  91.3525921
   6.5652342  30.8937173 106.2460329   6.1216196  30.1073551 105.9281234
   7.2269555  31.0816323 105.5804220   1.3239463  32.4232974 100.7721008
   1.8746888  32.2950038  99.9998002   0.4850939  32.7227863 100.4215901
   8.6633580  31.1739973 104.2741731   8.6452055  31.9948854 103.7822000
   9.5853500  31.0494048 104.4991872   8.2526612  23.7852779  89.1531316
   7.7373235  24.5557384  89.3919703   7.9803920  23.1117915  89.7764377
   5.8373723  18.6302480  94.2116554   4.9815319  18.2409330  94.0322193
   6.2500674  18.7094441  93.3516340  13.2260886  26.5385134  91.0884489
  12.4490328  26.1996293  90.6439652  13.9052367  26.5437757  90.4139455
   8.0412915  21.6579871  90.9791097   7.7363050  21.9726021  91.8301240
   8.9943357  21.7361291  91.0218430   6.4859347  27.8170095  92.6284051
   5.9580708  27.0822854  92.3157289   5.9846849  28.5944771  92.3824019
  11.4652193  26.0119115  97.7451097  10.8075867  26.7018377  97.8331226
  12.2692592  26.4015547  98.0885084  10.2757651  24.3663488  95.7955039
  10.7889533  24.9993480  96.2976749  10.9258875  23.7664683  95.4298399
   1.5447661  20.5094222  89.0086548   0.7084974  20.8468909  89.3295823
   1.4052431  20.3743202  88.0713685   4.6311947  25.6350305  85.6319024
   3.7239008  25.4039558  85.8310173   5.1282979  24.8387924  85.8193006
   7.5380026  34.3447812  88.5515710   6.8641724  34.6479509  89.1600668
   7.9245848  35.1476892  88.2021167   6.7538482  21.8412943  98.0413380
   5.8361044  22.0627890  97.8835068   7.1698626  21.9159254  97.1825087
   7.5373530  23.2404359  93.1716060   8.2845349  23.7525756  92.8623182
   7.8065120  22.9188412  94.0320454   5.8100180  25.7362900  90.1543014
   4.9011399  25.4521933  90.2515484   5.8395264  26.1561978  89.2946321
  11.0419448  29.3469489  93.9234182  10.5881775  28.5060399  93.9799372
  10.4113414  29.9830888  94.2608962   9.9852367  20.2761475  95.1534849
   9.2475124  19.7638862  95.4845092  10.2379141  19.8361857  94.3418126
   9.4852387  31.1845986  94.8584000   9.7775361  31.7451043  94.1396366
   9.9951007  31.4774547  95.6137159   4.3585074  23.3491520  96.2552810
   4.4133684  22.3965357  96.1795286   3.5476276  23.5050959  96.7394108
   5.5076268  27.2771643  87.4931093   5.0695698  26.5607502  87.0336730
   6.2486709  27.5047758  86.9316184   2.2977434  21.9668580  94.0143188
   1.4845300  22.2662751  94.4208381   2.7936428  21.5724269  94.7317671
   4.4486012  31.9626337  95.9477453   4.4062191  32.1887183  95.0185985
   5.3648711  31.7289712  96.0963254  13.6249383  25.5528840  93.5507411
  13.4867281  25.7430436  92.6228601  13.2685602  26.3148223  94.0075463
  13.6518762  27.6205368  98.5618683  14.0855269  27.5280657  99.4101737
  14.3650343  27.5962868  97.9238699   2.5651813  28.8389366  95.7439416
   3.3592411  28.3439686  95.5421991   1.8543505  28.3107229  95.3807121
   7.3846657  31.2207462 100.0951784   7.4383680  31.7898398 100.8629499
   6.5161439  31.3909347  99.7305821  14.5134312  27.6629068 101.0951568
  14.7070202  28.5674879 101.3410843  14.4134930  27.2036487 101.9290153
   9.5749421  27.8135811 106.6692449   9.4234927  27.5846363 105.7522533
   9.5654100  28.7706412 106.6823794   6.3434757  25.3867724 101.6538715
   7.2726817  25.5378883 101.4807683   5.9225787  25.4751744 100.7987362
   5.1423089  29.4118388  99.4237253   5.0034174  29.0437172 100.2963191
   4.3537685  29.9266027  99.2521211   5.7371241  34.5127485  90.7662790
   5.9122996  34.0415528  91.5808412   5.0504029  35.1393251  90.9944050
   6.6928304  28.7899991  96.8126091   6.3578137  28.7500761  97.7083741
   6.1932250  28.1244707  96.3396501   9.6287496  26.1356025  87.0863150
   9.0116666  25.4102853  86.9896203   9.1603984  26.8965385  86.7430225
  11.2841627  30.8454933 104.7468931  11.2254173  30.1614154 104.0799514
  11.6861146  31.5873923 104.2949557  11.2859035  28.8094517 102.9782910
  10.3985813  28.4720439 103.1009309  11.8557586  28.0777549 103.2151676
   4.8160188  33.4695970  99.9444154   4.7430359  34.2750941 100.4563458
   4.3737581  33.6687936  99.1192175   4.6049968  32.7067740  93.4546975
   3.8217489  33.2489420  93.5485200   5.3042713  33.2241719  93.8541216
   7.9146618  18.5162369  96.0981181   8.4115317  17.7632332  95.7782251
   7.1433599  18.5526686  95.5324390  15.7676375  24.2202735  97.7399472
  15.7566251  25.1027450  97.3693405  14.8993754  23.8674286  97.5454009
   7.2758871  33.3682804 102.1002312   7.9886844  34.0030269 102.0278214
   6.7848900  33.4646670 101.2842314   8.9976398  27.2734056  93.6719604
   8.0632677  27.3935519  93.5024308   9.1753067  26.3706523  93.4079614
   4.4981586  20.6579752  95.8252865   4.1279374  20.1050793  96.5133771
   4.9940679  20.0537886  95.2727865  12.3848950  23.1151376  94.2069638
  12.8509402  23.9479367  94.1329941  12.8356450  22.6496357  94.9114897
   2.3270785  31.1177247 102.9207883   3.0280244  31.7513730 103.0737277
   1.8565900  31.4591979 102.1603522  10.4525181  29.4595197  91.2055790
  10.7285025  29.3451792  92.1149664   9.5829680  29.0612682  91.1667963
  10.3565612  15.4831963  98.2460539   9.4428692  15.7136190  98.4142746
  10.7858714  15.5670407  99.0974572  10.1272071  23.6721855 100.7460433
   9.4743521  23.9197762 100.0912886  10.5052451  22.8585993 100.4122911
   7.0879245  33.7081548  94.8488604   7.2701639  32.8903204  95.3116356
   7.9112231  33.9249240  94.4113494   7.4221410  32.6349733  92.1103652
   7.9509177  32.1242188  91.4973814   7.6849630  32.3192263  92.9749185
   4.9182427  35.7208593 101.4684087   5.4700735  35.8840215 102.2333172
   5.2588620  36.3113031 100.7964111   9.7693301  30.5469851 107.3232741
  10.3133205  31.1599809 106.8287696   9.1880146  31.1049429 107.8399754
   8.0550814  33.6690569  98.4547769   7.9301954  32.8680309  97.9458714
   8.7129905  34.1636762  97.9661739  10.1185723  31.4699589 100.0827319
   9.1716058  31.3504940 100.0105646  10.4668496  30.5822087 100.1653580
   7.1232156  31.2652305  96.2831671   6.9757118  30.3369012  96.4639241
   7.9485649  31.2872396  95.7988746  10.7266278  32.0880864  97.3696544
  11.6512825  31.8823725  97.2320995  10.5581581  31.8397265  98.2785885
   7.1193670  19.1190143  91.2763788   7.3357285  20.0014781  90.9752616
   6.6387737  18.7276356  90.5469430   1.8592892  22.0775856  97.8534533
   1.7137472  22.3916159  98.7458814   1.3818095  22.6960756  97.3005432
  10.5161594  32.6066531  92.7258635  10.6898471  32.0412954  91.9732488
  11.0090485  33.4067426  92.5438125  16.3700985  25.3702954  94.3448935
  16.8132131  24.6210279  93.9468058  15.4927495  25.3613091  93.9622667
  11.5036766  31.9233296  89.8255534  12.1987671  32.5439988  90.0442848
  11.8459916  31.0728647  90.1007911  13.4028189  29.3733001  91.3542864
  13.9279514  29.7120274  90.6292184  13.3150542  28.4380016  91.1705999
   5.0648238  33.2867075 103.4832741   5.3735365  33.0416222 104.3555441
   5.8623720  33.4913713 102.9951611   5.0868850  35.4404984  95.7138117
   4.6473841  34.9481363  96.4070974   5.8376967  34.8977952  95.4730193
   2.5342722  30.9842994  97.7860419   1.9122732  30.3213699  97.4862647
   3.2047589  31.0104125  97.1034067  13.0922096  30.0065905 106.6594062
  12.3017639  29.9890044 106.1198562  12.8555450  30.5454198 107.4143099
  13.2119971  26.8558371 103.9726791  13.2617976  26.6908379 104.9142314
  13.1033894  25.9885630 103.5824672   2.0956229  29.5346917  91.2618880
   2.2444350  30.2182381  90.6085552   2.9022673  29.5152007  91.7768335
  14.7138167  29.2755313 104.2168812  14.4222976  29.6385293 105.0532273
  14.1010299  28.5622321 104.0382144  15.9133850  26.8408192  96.7371383
  16.7480741  27.2797997  96.9008943  16.0492979  26.3646846  95.9179628
  12.9625356  24.3987927 102.6848870  13.4379477  24.5915574 101.8767722
  12.0390921  24.4547113 102.4392254   5.5951635  32.0295047  88.7330627
   5.0225602  32.6485234  88.2801099   6.1684428  32.5794409  89.2670549
  11.6627025  21.2753687 100.9177176  12.6144448  21.3751785 100.9389400
  11.4930475  20.4831956 101.4275260   9.6841404  18.3609271 101.1036577
   9.0891336  18.6414283 100.4083065   9.3991101  18.8503172 101.8753318
   8.8148895  32.3132197  89.8639209   9.7479568  32.2477759  90.0672085
   8.7272107  33.1488464  89.4053742  11.4436911  31.6298068  86.8243157
  11.3650543  31.2957931  87.7178915  12.2646578  32.1219836  86.8234629
  14.1415102  24.4959807 100.0319476  14.1091423  23.5575808 100.2179159
  14.7515726  24.5743844  99.2985300   5.9798433  23.3655860  86.0746680
   6.9257538  23.2362068  86.1435098   5.6012678  22.6270522  86.5516108
  14.2909591  21.2870851 100.0777759  13.7748640  20.5029307  99.8907688
  15.1749539  20.9589567 100.2424278  11.9520318  15.0311866  96.0373571
  11.7545139  14.7226954  96.9216903  12.5620023  15.7573505  96.1671501
  19.9591652  25.5575814  99.1725512  20.6895041  25.2961102  99.7333216
  19.3498598  24.8204536  99.2127580  18.0406949  23.6983677  99.7699964
  17.3140113  23.5639641  99.1616455  17.6254236  24.0060505 100.5756682
   4.1641350  21.2905836  86.0101565   3.2572806  20.9938949  86.0864278
   4.4417331  20.9935655  85.1435851  11.0872772  17.0221298  93.2948767
  10.5071441  17.6806102  92.9126819  10.8208704  16.1998643  92.8836185
   9.5376338  16.4226356  95.4970087  10.0376116  16.5342890  94.6884406
  10.1811946  16.1187409  96.1370896   9.8697650  19.1821389  92.3505115
   8.9823505  19.4671039  92.1325310  10.2851639  19.0215152  91.5032392
  13.2212186  19.2067909  96.0659455  13.9972576  19.6964362  96.3384071
  12.4960320  19.6325964  96.5231324  15.6584744  19.9195529  97.1233395
  16.2529235  19.6791265  96.4126703  15.7311328  19.2002659  97.7506931
   9.0140863  28.9466063  86.4453135   9.7176713  29.1516066  87.0610791
   8.2903512  29.5142825  86.7102219   9.8438673  24.6975924  92.5655405
   9.7873875  25.1544476  91.7263038  10.3967016  23.9366609  92.3878248
  13.6543479  20.4865656  93.3905525  13.3980413  20.0862292  94.2213733
  13.0296347  21.2009450  93.2655664  17.9655817  23.2261730  95.8976816
  17.4055375  23.2954919  96.6708378  17.3599320  23.0502714  95.1776313
  10.9227560  29.3848592  88.4951595  11.7573164  28.9529791  88.3129070
  10.7611903  29.2130606  89.4228490  10.5773453  25.8880706  89.8607935
  10.5222256  25.7224977  88.9196379   9.9519508  26.5956739  90.0170124
   2.0605540  35.3126719 100.8650931   2.9632787  35.3450329 101.1817426
   1.8342910  34.3827170 100.8797267   3.8159142  34.0657705  97.5261010
   2.8654773  34.0659567  97.4125382   4.1191628  33.3190440  97.0097044
  19.5511836  39.9018243  98.5906772  20.1890245  39.7824991  97.8870112
  19.4332678  40.8499087  98.6494724  16.3601542  39.8545672  98.5268297
  16.0220053  39.7386736  97.6388832  17.2291310  39.4536837  98.5069303
  12.2188358  41.7081148  94.5165188  11.6553223  41.6171085  93.7481475
  12.1040753  40.8881052  94.9967680  16.8421325  41.0080523 104.4854502
  16.8309966  40.6133322 103.6135006  17.0041964  40.2746596 105.0788274
   9.7652789  43.2032340  97.3549408  10.5574081  42.8623164  96.9395707
  10.0049440  43.3127315  98.2751562  17.7987916  45.3752116  89.8279653
  17.1475896  45.9606196  89.4413666  18.5932279  45.9058311  89.8874690
  11.7243543  42.4641253  90.2266787  12.4974419  41.9170240  90.0879663
  12.0768942  43.3285502  90.4381248  13.5628586  43.7917635 103.4333686
  13.2718452  44.6963266 103.3180353  14.1985570  43.8334163 104.1477756
  14.4884793  41.1694484 100.0235046  15.0848365  40.9450506  99.3092009
  14.5459764  40.4279229 100.6260494  14.0609821  38.6233919  87.8585237
  14.3135342  38.1015440  87.0968700  13.1234380  38.4600064  87.9611921
  19.1053104  37.6269697  95.6659980  19.8916193  37.2089121  95.3150397
  19.3691808  38.5315790  95.8341629  19.2763181  43.0642548  90.3648637
  18.6409014  43.1377174  91.0769542  18.9460588  43.6536146  89.6867716
  24.5061531  37.5644931  96.5692959  25.2386703  36.9944147  96.8030788
  23.7500887  37.1766531  97.0099464  13.7806110  40.5262025  90.0609612
  13.6642368  39.8506928  90.7290696  13.8908370  40.0394399  89.2441765
  16.1237651  39.9872172  93.7656301  15.7595858  39.4602793  94.4769223
  16.9804767  39.5970641  93.5922787  22.0286951  31.2766505 101.0287567
  21.6970276  32.1461916 100.8048782  21.4332565  30.9602789 101.7081598
  15.7643138  35.0162072  88.7617650  15.9317540  35.8842308  89.1288121
  15.5740307  35.1789353  87.8378939  18.5218471  43.4779051 100.4283480
  18.2219194  44.3804089 100.3199287  18.1769531  43.2111234 101.2804633
  11.9730953  39.9292847  96.4620184  11.0481449  39.7969062  96.6697876
  12.2215366  40.7087067  96.9590127  21.9215615  35.9961591  98.1080917
  21.0132492  35.9276999  97.8139678  21.8703211  36.4733536  98.9362743
  15.7432359  37.4719729  89.7464316  15.6231984  37.9176780  90.5849797
  15.0484947  37.8205047  89.1877855   9.3339764  39.5726121  97.2963973
   9.4632145  39.8260600  98.2103385   8.6537215  40.1653829  96.9768629
  13.5039251  50.2423371  93.3954448  13.4263281  51.1931196  93.4742928
  12.9000894  49.8969243  94.0529374  15.9956481  37.4151236 106.0515815
  15.2189815  37.9745157 106.0418679  16.6347044  37.9008019 106.5730685
  23.7877261  34.1978029  99.8858791  23.1451641  34.4910562  99.2398586
  23.2832190  34.0830950 100.6911988  21.4417425  37.9441202  90.5744650
  22.3535281  38.1768589  90.3992348  20.9327072  38.5278247  90.0119729
  14.2502853  40.2236690 105.6133782  14.9917537  40.7621734 105.3368605
  13.5439838  40.8502979 105.7705333  19.7258193  42.3665830 104.2105943
  20.1341549  41.9248241 103.4660575  19.0035454  41.7918458 104.4640136
  16.0789263  37.3038437 101.5839500  16.9250458  37.7277851 101.7274149
  16.0187900  36.6472061 102.2778063  20.0487007  42.9267021  97.9658232
  19.4195870  43.0912735  97.2634300  19.6612669  43.3408630  98.7369196
  23.9276239  43.8621459  95.3202596  23.2427277  44.2420360  94.7699629
  24.0120088  44.4716785  96.0534543  19.2288708  34.9642805 103.2420674
  18.9849640  35.7184866 102.7054949  19.5048638  35.3428153 104.0767921
  21.1827171  41.5081418 101.9197939  21.3944066  42.1513178 101.2432320
  21.1356919  40.6743734 101.4519869  18.7853400  34.1199238  98.8234511
  17.9237879  34.4180492  99.1151249  18.8115834  34.3369637  97.8915544
  15.6014969  42.6641429  95.2308317  16.0653315  42.9429132  94.4412940
  15.3371767  41.7624874  95.0481408  12.4939050  42.2112910  98.1688080
  13.0640407  42.6400179  97.5305565  13.0847162  41.9295495  98.8672266
  14.5383855  38.7864581  92.0397882  15.2407898  39.2385625  92.5071809
  14.2064484  38.1448400  92.6677775  12.9864217  37.3776338 106.4149092
  12.3562877  38.0592619 106.6484488  12.8800305  37.2659420 105.4702230
   8.2809189  37.0448134  97.3415016   7.4908243  37.3005663  96.8655126
   8.7720436  37.8596472  97.4467056  22.2972999  44.3853373 100.0920297
  23.1190442  43.9833560  99.8102978  22.2935402  44.2821607 101.0436412
  10.2323934  37.4092713  94.2998492   9.4355098  37.5211407  94.8181988
  10.0049527  37.7479365  93.4339383  16.0629602  43.9337416 102.2481007
  16.1274035  44.3957824 103.0839179  15.3540526  43.3034781 102.3763317
   6.5646892  37.2978624  99.7730007   6.8154930  38.1825634 100.0387582
   7.1006440  37.1183226  99.0005098  30.3878992  40.7292122  96.4405268
  29.6342700  40.1599520  96.2849272  30.5226533  40.6954786  97.3875903
  15.7777620  45.6005524  92.1159987  15.6423295  46.4457060  92.5444835
  16.3187432  45.8024802  91.3525921  12.2644959  31.6797104 108.7774343
  11.8711905  31.1263302 109.4521987  13.0811100  31.9907682 109.1680860
   9.2307017  43.1180962  92.6887912   9.7431538  43.9124212  92.8393477
   9.8829730  42.4207252  92.6221514  11.0401902  46.2346718  94.7710666
  11.2168530  47.1564683  94.5831650  11.8358735  45.9205137  95.2005045
  15.1812920  33.0954983 106.3694599  15.9222634  33.6962136 106.2899062
  15.4130843  32.3532621 105.8112642  10.3254258  38.2811350 104.6472829
  10.2107774  37.3796607 104.9479928   9.4698776  38.5275047 104.2957645
  17.4046096  46.2229090 106.2460329  16.9609950  45.4365469 105.9281234
  18.0663310  46.4108241 105.5804220  12.1633217  47.7524892 100.7721008
  12.7140642  47.6241955  99.9998002  11.3244693  48.0519781 100.4215901
  19.5027334  46.5031890 104.2741731  19.4845810  47.3240771 103.7822000
  20.4247254  46.3785966 104.4991872  15.9600388  44.0176020 105.1165239
  16.4928725  43.2564308 104.8864547  15.4314469  43.7249672 105.8589394
  19.1270083  29.1236086 100.6458881  18.7834353  30.0137727 100.5697991
  19.4949046  28.9337743  99.7828466   7.1955934  41.4469616  93.4647483
   8.0331156  41.8566625  93.2481191   7.3734202  40.5069058  93.4347677
  19.0920366  39.1144697  89.1531316  18.5766989  39.8849302  89.3919703
  18.8197674  38.4409833  89.7764377  16.6767477  33.9594398  94.2116554
  15.8209073  33.5701248  94.0322193  17.0894429  34.0386359  93.3516340
  18.2066624  31.4940741  98.6108114  17.7031419  31.4570876  97.7975919
  18.4997231  32.4033484  98.6704771  14.4509510  31.5779471  97.6174296
  15.3162506  31.3822279  97.2580185  14.5187018  31.3489822  98.5443653
  24.0654640  41.8677052  91.0884489  23.2884083  41.5288211  90.6439652
  24.7446121  41.8729675  90.4139455  18.8806669  36.9871789  90.9791097
  18.5756805  37.3017938  91.8301240  19.8337111  37.0653209  91.0218430
  17.3253101  43.1462012  92.6284051  16.7974463  42.4114772  92.3157289
  16.8240604  43.9236689  92.3824019  22.3045947  41.3411033  97.7451097
  21.6469622  42.0310294  97.8331226  23.1086346  41.7307465  98.0885084
  12.0571829  33.8081679  94.9890663  12.6315581  33.5856860  94.2563856
  12.6442811  33.8770373  95.7419264  21.1151406  39.6955406  95.7955039
  21.6283288  40.3285397  96.2976749  21.7652630  39.0956601  95.4298399
  12.3841416  35.8386140  89.0086548  11.5478728  36.1760826  89.3295823
  12.2446185  35.7035119  88.0713685  14.3594496  30.6822928  93.7165732
  13.7058909  30.3671945  93.0922347  14.3174971  30.0598668  94.4425555
  15.4705701  40.9642223  85.6319024  14.5632763  40.7331476  85.8310173
  15.9676733  40.1679842  85.8193006  18.3773780  49.6739730  88.5515710
  17.7035479  49.9771427  89.1600668  18.7639602  50.4768810  88.2021167
  17.5932237  37.1704861  98.0413380  16.6754798  37.3919808  97.8835068
  18.0092380  37.2451172  97.1825087  18.3767284  38.5696277  93.1716060
  19.1239103  39.0817674  92.8623182  18.6458874  38.2480329  94.0320454
  16.6493935  41.0654817  90.1543014  15.7405154  40.7813850  90.2515484
  16.6789018  41.4853896  89.2946321  21.8813202  44.6761407  93.9234182
  21.4275529  43.8352317  93.9799372  21.2507169  45.3122805  94.2608962
  20.8246122  35.6053393  95.1534849  20.0868878  35.0930779  95.4845092
  21.0772895  35.1653775  94.3418126  20.3246141  46.5137904  94.8584000
  20.6169116  47.0742961  94.1396366  20.8344762  46.8066465  95.6137159
  20.9257749  28.3829645  95.7476619  21.2316626  27.5227008  95.4602534
  21.6510354  28.9747265  95.5475612   7.2182105  38.7860332  94.1358216
   7.0206505  38.1929692  93.4109283   6.6628769  38.4812542  94.8534155
  15.1978829  38.6783438  96.2552810  15.2527438  37.7257274  96.1795286
  14.3870031  38.8342877  96.7394108  16.3470022  42.6063561  87.4931093
  15.9089452  41.8899420  87.0336730  17.0880463  42.8339676  86.9316184
  13.1371189  37.2960498  94.0143188  12.3239054  37.5954668  94.4208381
  13.6330183  36.9016187  94.7317671  15.2879767  47.2918255  95.9477453
  15.2455945  47.5179101  95.0185985  16.2042465  47.0581629  96.0963254
  18.7345400  37.7602322 102.8458082  19.0894788  37.9873795 103.7052548
  19.3817532  38.0920699 102.2235338  24.4643137  40.8820758  93.5507411
  24.3261036  41.0722354  92.6228601  24.1079356  41.6440141  94.0075463
  12.6285263  34.8678853  99.6304423  13.2684643  34.7267612  98.9327387
  11.7962794  34.5813367  99.2543025  24.4912517  42.9497285  98.5618683
  24.9249024  42.8572574  99.4101737  25.2044098  42.9254786  97.9238699
  13.4045567  44.1681284  95.7439416  14.1986166  43.6731604  95.5421991
  12.6937260  43.6399147  95.3807121  18.2240412  46.5499379 100.0951784
  18.2777434  47.1190316 100.8629499  17.3555193  46.7201264  99.7305821
   9.7128331  38.3124365  91.8199169   8.7825919  38.2508821  92.0369131
   9.8085803  37.7900318  91.0235810   9.6313880  34.8379178  94.4077410
   9.8920697  35.7524512  94.2986571  10.4531052  34.3703621  94.5574023
  11.1038805  36.2516936 101.5776235  11.7761859  36.0434298 100.9288884
  10.2768592  36.0539021 101.1381467  25.3528066  42.9920986 101.0951568
  25.5463957  43.8966796 101.3410843  25.2528685  42.5328405 101.9290153
  17.0064377  32.8778876 103.5941896  16.3592292  33.5768826 103.5006372
  17.7765393  33.3115020 103.9618144  20.4143175  43.1427729 106.6692449
  20.2628682  42.9138280 105.7522533  20.4047855  44.0998330 106.6823794
  17.1828512  40.7159641 101.6538715  18.1120572  40.8670801 101.4807683
  16.7619542  40.8043662 100.7987362  15.9816843  44.7410306  99.4237253
  15.8427929  44.3729090 100.2963191  15.1931440  45.2557945  99.2521211
  16.5764995  49.8419402  90.7662790  16.7516751  49.3707445  91.5808412
  15.8897783  50.4685168  90.9944050  17.5322058  44.1191908  96.8126091
  17.1971891  44.0792678  97.7083741  17.0326004  43.4536624  96.3396501
  11.5066302  39.5259538 102.3378672  11.3686100  38.7939777 102.9390211
  12.4171226  39.4368439 102.0562860  20.4681250  41.4647943  87.0863150
  19.8510421  40.7394771  86.9896203  19.9997739  42.2257303  86.7430225
  14.1348603  39.2379498 101.8262352  14.8448222  38.5972690 101.7848970
  14.0917911  39.4892393 102.7488532  22.1235382  46.1746851 104.7468931
  22.0647928  45.4906071 104.0799514  22.5254900  46.9165841 104.2949557
  12.8477537  36.2244716 103.6457991  12.3114894  35.7735454 104.2979587
  12.2594245  36.3590625 102.9028455  11.1426081  52.9908765  97.5402650
  11.3822679  53.6227289  98.2181668  10.2995277  52.6396805  97.8268009
  12.2579796  35.6833367  86.2084455  11.3809262  35.5622168  85.8446701
  12.7337549  34.8919445  85.9563343  22.1252789  44.1386435 102.9782910
  21.2379568  43.8012357 103.1009309  22.6951340  43.4069466 103.2151676
   3.7781936  40.4710527  96.3025962   4.4652976  40.1572257  95.7146977
   3.6230065  41.3751891  96.0293213   8.5816658  35.3600723 100.7310986
   8.4974847  34.7526393  99.9961395   7.7599365  35.8509742 100.7320482
  15.6553942  48.7987887  99.9444154  15.5824114  49.6042859 100.4563458
  15.2131336  48.9979853  99.1192175  15.4443722  48.0359657  93.4546975
  14.6611244  48.5781338  93.5485200  16.1436467  48.5533637  93.8541216
  18.7540372  33.8454287  96.0981181  19.2509072  33.0924249  95.7782251
  17.9827354  33.8818604  95.5324390  26.6070130  39.5494652  97.7399472
  26.5960006  40.4319368  97.3693405  25.7387509  39.1966203  97.5454009
  18.1152626  48.6974721 102.1002312  18.8280598  49.3322186 102.0278214
  17.6242655  48.7938587 101.2842314  19.8370153  42.6025974  93.6719604
  18.9026432  42.7227437  93.5024308  20.0146821  41.6998441  93.4079614
  15.3375341  35.9871670  95.8252865  14.9673128  35.4342710  96.5133771
  15.8334433  35.3829803  95.2727865  23.2242704  38.4443293  94.2069638
  23.6903156  39.2771285  94.1329941  23.6750205  37.9788275  94.9114897
  13.1664539  46.4469165 102.9207883  13.8673999  47.0805648 103.0737277
  12.6959654  46.7883896 102.1603522  21.2918935  44.7887115  91.2055790
  21.5678779  44.6743709  92.1149664  20.4223434  44.3904600  91.1667963
  21.1959367  30.8123880  98.2460539  20.2822447  31.0428107  98.4142746
  21.6252468  30.8962324  99.0974572  20.9665825  39.0013772 100.7460433
  20.3137276  39.2489680 100.0912886  21.3446205  38.1877911 100.4122911
  17.9272999  49.0373466  94.8488604  18.1095394  48.2195121  95.3116356
  18.7505985  49.2541158  94.4113494  18.2615165  47.9641651  92.1103652
  18.7902931  47.4534105  91.4973814  18.5243384  47.6484181  92.9749185
  17.0153398  39.7433583 107.2326471  16.3394035  39.6427713 107.9028846
  17.8381032  39.5872797 107.6962468   8.7632258  45.9805520  99.8538986
   9.3485694  45.2349208  99.9866890   8.5657096  46.2909477 100.7375650
  11.6170913  49.0156767  94.8701428  10.9481288  49.5002895  94.3865468
  11.4783782  49.2625988  95.7844807   3.3549912  38.5511120  98.5743429
   3.3934012  38.0174711  99.3680547   2.8490205  38.0246326  97.9554406
  15.7576181  51.0500511 101.4684087  16.3094489  51.2132132 102.2333172
  16.0982375  51.6404949 100.7964111  10.7340675  33.3975661 102.0705971
  10.7982001  34.2590492 101.6583369  10.6707795  32.7849662 101.3378330
  10.2092947  35.4698793 105.7179006  10.8364986  35.0875871 106.3316530
   9.3520866  35.2512995 106.0834698  20.6087056  45.8761768 107.3232741
  21.1526960  46.4891727 106.8287696  20.0273901  46.4341347 107.8399754
   6.9858490  37.2775222  91.6497360   7.2811931  36.3685901  91.5964414
   6.0846526  37.2562962  91.3278363  18.8944569  48.9982486  98.4547769
  18.7695708  48.1972226  97.9458714  19.5523660  49.4928680  97.9661739
  10.5152737  35.3531219  97.6324909   9.7939323  35.9667187  97.4932382
  11.3045993  35.8888984  97.5541555  20.9579477  46.7991506 100.0827319
  20.0109813  46.6796858 100.0105646  21.3062250  45.9114005 100.1653580
  13.3179050  32.6885645 103.9065561  13.8413452  32.9347942 104.6691870
  13.0991384  33.5205680 103.4868698   8.7146331  34.9589320  91.7736686
   8.3859038  34.0786699  91.5911791   9.0685702  34.9036989  92.6613075
  17.9625910  46.5944223  96.2831671  17.8150873  45.6660930  96.4639241
  18.7879404  46.6164313  95.7988746  11.8288155  35.2462290  92.1412163
  12.1684227  35.7748211  91.4190772  12.2760275  35.5842696  92.9170730
  21.5660032  47.4172781  97.3696544  22.4906580  47.2115643  97.2320995
  21.3975336  47.1689183  98.2785885  14.5231595  33.6299341 101.5915231
  14.1828416  32.8307154 101.9935911  13.8170602  33.9301051 101.0192064
  15.1748067  30.7148653 100.0442554  15.9974137  30.2409131  99.9221445
  15.4186131  31.4939137 100.5441241  13.8156302  33.7436911  90.3405456
  14.5364664  34.1218164  89.8369173  13.1921606  34.4625788  90.4440434
  17.9587425  34.4482060  91.2763788  18.1751039  35.3306698  90.9752616
  17.4781492  34.0568274  90.5469430  12.6986646  37.4067774  97.8534533
  12.5531227  37.7208077  98.7458814  12.2211850  38.0252674  97.3005432
  14.5583029  34.3970322  97.9015422  14.5444598  33.5011415  97.5647720
  15.2755457  34.4040985  98.5353708  16.4109160  34.8307662  99.9468550
  16.1526937  35.7524732  99.9452880  15.8794200  34.4338096 100.6369014
  21.3555348  47.9358449  92.7258635  21.5292226  47.3704871  91.9732488
  21.8484240  48.7359344  92.5438125   7.1732308  39.9473118 100.7922194
   6.6285776  40.7232926 100.9242468   8.0511658  40.2943922 100.6341315
  13.9619925  33.2784702  93.1702993  14.0835836  32.3501348  93.3693880
  13.6721967  33.2923388  92.2581308  16.8311115  30.9639612  96.3069712
  16.8532812  31.0278945  95.3521692  17.2479174  30.1244121  96.5010219
  27.2094740  40.6994872  94.3448935  27.6525886  39.9502197  93.9468058
  26.3321250  40.6905008  93.9622667  22.3430521  47.2525213  89.8255534
  23.0381425  47.8731906  90.0442848  22.6853671  46.4020565  90.1007911
   7.9598330  39.0743014 103.6852351   7.2180066  39.2225650 104.2716981
   7.6391074  39.3351280 102.8219100  24.2421944  44.7024919  91.3542864
  24.7673268  45.0412192  90.6292184  24.1544297  43.7671934  91.1705999
  15.9041993  48.6158992 103.4832741  16.2129119  48.3708139 104.3555441
  16.7017475  48.8205631 102.9951611  15.9262605  50.7696902  95.7138117
  15.4867595  50.2773281  96.4070974  16.6770722  50.2269870  95.4730193
   8.4054944  46.9608443  95.7162746   9.2312964  46.6612215  95.3361389
   8.0548996  46.1916065  96.1652534  13.3736477  46.3134911  97.7860419
  12.7516486  45.6505616  97.4862647  14.0441344  46.3396043  97.1034067
   6.6063549  44.8794769  96.6751679   5.7695457  44.4516944  96.4935680
   6.5787194  45.0727213  97.6122470  13.4461004  34.7916699 107.3792925
  13.4949160  35.6678822 106.9970695  13.9883519  34.2494092 106.8064568
  23.9315850  45.3357822 106.6594062  23.1411394  45.3181961 106.1198562
  23.6949205  45.8746116 107.4143099  24.0513725  42.1850289 103.9726791
  24.1011730  42.0200296 104.9142314  23.9427648  41.3177548 103.5824672
  12.9349984  44.8638835  91.2618880  13.0838104  45.5474299  90.6085552
  13.7416427  44.8443925  91.7768335  21.3417487  38.1681217 105.2886098
  22.2427350  38.0287682 104.9970095  21.4165462  38.3335672 106.2284275
  15.6760293  35.5448072 104.1339284  14.8063602  35.8381638 103.8621872
  15.9119773  36.1288517 104.8546547  25.5531922  44.6047230 104.2168812
  25.2616730  44.9677211 105.0532273  24.9404053  43.8914239 104.0382144
  26.7527604  42.1700110  96.7371383  27.5874496  42.6089914  96.9008943
  26.8886733  41.6938763  95.9179628  23.8019110  39.7279845 102.6848870
  24.2773232  39.9207491 101.8767722  22.8784676  39.7839031 102.4392254
  10.6902617  40.8904012  92.2679949  10.4448659  39.9866342  92.4660159
  10.8598531  40.8921163  91.3259427  18.3799327  31.7627689 101.6504704
  18.8981270  32.4988715 101.3251193  18.0254459  32.0691682 102.4851463
   9.9598264  36.6232370  89.7666110   9.2667509  36.6976725  89.1106146
   9.7150016  35.8592713  90.2887627  18.6311921  28.1827971  97.1705601
  18.9113675  27.5151160  97.7966027  19.4162528  28.3757067  96.6580265
  16.4345389  47.3586965  88.7330627  15.8619356  47.9777152  88.2801099
  17.0078183  47.9086327  89.2670549  22.5020779  36.6045605 100.9177176
  23.4538202  36.7043703 100.9389400  22.3324230  35.8123874 101.4275260
  20.5235159  33.6901188 101.1036577  19.9285091  33.9706201 100.4083065
  20.2384855  34.1795089 101.8753318  19.6542649  47.6424115  89.8639209
  20.5873322  47.5769677  90.0672085  19.5665862  48.4780382  89.4053742
  22.2830666  46.9589985  86.8243157  22.2044297  46.6249849  87.7178915
  23.1040333  47.4511753  86.8234629  24.9808857  39.8251725 100.0319476
  24.9485177  38.8867725 100.2179159  25.5909481  39.9035761  99.2985300
  16.8192188  38.6947778  86.0746680  17.7651293  38.5653986  86.1435098
  16.4406433  37.9562440  86.5516108  25.1303345  36.6162768 100.0777759
  24.6142394  35.8321225  99.8907688  26.0143294  36.2881485 100.2424278
  22.7914072  30.3603784  96.0373571  22.5938893  30.0518872  96.9216903
  23.4013778  31.0865423  96.1671501  30.7985407  40.8867732  99.1725512
  31.5288795  40.6253020  99.7333216  30.1892352  40.1496454  99.2127580
  28.8800704  39.0275594  99.7699964  28.1533867  38.8931559  99.1616455
  28.4647991  39.3352423 100.5756682  16.7030880  42.7465524 107.5347337
  17.6233890  42.9244123 107.7287383  16.6680463  41.8021569 107.3827036
  15.0035105  36.6197754  86.0101565  14.0966560  36.3230867  86.0864278
  15.2811086  36.3227572  85.1435851   5.9213045  37.9404118  96.4600611
   5.6015830  37.0869426  96.1674985   5.3746474  38.1552696  97.2158579
   9.6992953  40.6566559 100.1770118   9.9178963  41.5883666 100.1958152
  10.1118727  40.2974533 100.9624922  16.6197171  31.1634644  92.1645806
  15.8097899  30.8181729  92.5401052  17.3081588  30.8542188  92.7533418
  18.5487719  30.2412691  93.7870103  19.1018758  30.6608144  94.4460126
  18.7857805  29.3148439  93.8293059  14.5720818  36.2299764 109.5672867
  14.4717545  37.1794121 109.4984958  14.3542360  35.9018003 108.6948937
  13.7733890  33.4784689  86.1513544  14.6353054  33.8039588  86.4109361
  13.9584234  32.6916185  85.6386610   5.7901305  41.5607029  98.4293733
   5.0964777  41.1460982  97.9163687   6.5374296  41.6027566  97.8327152
  21.9266526  32.3513216  93.2948767  21.3465195  33.0098020  92.9126819
  21.6602459  31.5290560  92.8836185  20.3770092  31.7518274  95.4970087
  20.8769871  31.8634808  94.6884406  21.0205700  31.4479326  96.1370896
  14.4352088  39.6596903 108.3837928  13.9519170  40.4597263 108.5901817
  14.5213027  39.6704848 107.4305372   7.7038048  41.4925283  96.3059748
   7.6808736  41.5912970  95.3541631   8.0138684  42.3390434  96.6276914
  10.3625426  43.5501438 100.4206362  11.3168679  43.5185380 100.3536294
  10.1637949  43.0892062 101.2356588  10.9524808  42.1202554 102.9877160
  11.7717697  42.6146633 103.0111997  11.2261616  41.2034522 102.9594727
  20.7091404  34.5113306  92.3505115  19.8217259  34.7962957  92.1325310
  21.1245393  34.3507070  91.5032392  24.0605940  34.5359827  96.0659455
  24.8366330  35.0256280  96.3384071  23.3354074  34.9617881  96.5231324
  26.4978499  35.2487446  97.1233395  27.0922990  35.0083182  96.4126703
  26.5705083  34.5294577  97.7506931   8.7175655  49.0921057  97.4376560
   8.5830122  48.3321458  96.8714558   8.3007717  49.8161957  96.9705349
  19.8534618  44.2757981  86.4453135  20.5570468  44.4807983  87.0610791
  19.1297266  44.8434743  86.7102219  20.6832428  40.0267842  92.5655405
  20.6267629  40.4836394  91.7263038  21.2360770  39.2658527  92.3878248
  24.4937234  35.8157574  93.3905525  24.2374168  35.4154210  94.2213733
  23.8690102  36.5301368  93.2655664  28.8049572  38.5553647  95.8976816
  28.2449130  38.6246837  96.6708378  28.1993075  38.3794632  95.1776313
  11.8744780  49.9890374  97.6495003  11.7577165  50.9335807  97.5473693
  11.0537227  49.6863936  98.0380802  21.7621315  44.7140510  88.4951595
  22.5966919  44.2821709  88.3129070  21.6005658  44.5422524  89.4228490
  21.4167207  41.2172623  89.8607935  21.3616011  41.0516895  88.9196379
  20.7913262  41.9248656  90.0170124   6.2059722  36.4540688 103.6869357
   6.8518586  35.9439642 104.1756582   5.9976873  37.1909369 104.2612782
  18.7313114  43.5221535 109.1861497  19.6004274  43.6962188 108.8248132
  18.2519866  44.3415952 109.0637227  14.7263333  30.7180732  89.4393253
  14.7142002  31.6622572  89.5961524  15.6186754  30.5350878  89.1452714
  12.8999295  50.6418636 100.8650931  13.8026541  50.6742246 101.1817426
  12.6736665  49.7119087 100.8797267  14.6552897  49.3949623  97.5261010
  13.7048528  49.3951484  97.4125382  14.9585383  48.6482357  97.0097044
  18.5415452  27.3123509  93.6939190  17.7747848  26.7581996  93.8395872
  18.9526157  27.3845378  94.5553341  10.5457213  33.6008305 107.7844371
  11.4088675  33.2445110 107.9947696   9.9722624  33.2622200 108.4719775
  27.1995296  55.1837589  98.5268297  26.8613808  55.0678654  97.6388832
  28.0685064  54.7828754  98.5069303  23.0582112  57.0373066  94.5165188
  22.4946977  56.9463003  93.7481475  22.9434507  56.2172970  94.9967680
  22.5637298  57.7933171  90.2266787  23.3368174  57.2462158  90.0879663
  22.9162697  58.6577420  90.4381248  25.3278547  56.4986401 100.0235046
  25.9242120  56.2742424  99.3092009  25.3853519  55.7571147 100.6260494
  24.9003576  53.9525837  87.8585237  25.1529096  53.4307358  87.0968700
  23.9628135  53.7891982  87.9611921  29.9446859  52.9561615  95.6659980
  30.7309948  52.5381038  95.3150397  30.2085563  53.8607707  95.8341629
  35.3455286  52.8936848  96.5692959  36.0780458  52.3236065  96.8030788
  34.5894641  52.5058449  97.0099464  24.6199864  55.8553943  90.0609612
  24.5036123  55.1798846  90.7290696  24.7302124  55.3686317  89.2441765
  26.9631405  55.3164090  93.7656301  26.5989613  54.7894711  94.4769223
  27.8198521  54.9262559  93.5922787  32.8680706  46.6058422 101.0287567
  32.5364031  47.4753833 100.8048782  32.2726319  46.2894706 101.7081598
  26.6036892  50.3453989  88.7617650  26.7711295  51.2134226  89.1288121
  26.4134061  50.5081271  87.8378939  22.8124707  55.2584765  96.4620184
  21.8875203  55.1260979  96.6697876  23.0609120  56.0378984  96.9590127
  32.7609369  51.3253509  98.1080917  31.8526247  51.2568917  97.8139678
  32.7096965  51.8025453  98.9362743  26.5826113  52.8011647  89.7464316
  26.4625738  53.2468698  90.5849797  25.8878702  53.1496965  89.1877855
  20.1733518  54.9018039  97.2963973  20.3025899  55.1552518  98.2103385
  19.4930969  55.4945747  96.9768629  26.8350235  52.7443154 106.0515815
  26.0583569  53.3037074 106.0418679  27.4740798  53.2299937 106.5730685
  34.6271016  49.5269947  99.8858791  33.9845396  49.8202480  99.2398586
  34.1225944  49.4122867 100.6911988  32.2811179  53.2733120  90.5744650
  33.1929035  53.5060507  90.3992348  31.7720826  53.8570164  90.0119729
  25.0896607  55.5528607 105.6133782  25.8311292  56.0913651 105.3368605
  24.3833593  56.1794896 105.7705333  30.5651947  57.6957748 104.2105943
  30.9735303  57.2540158 103.4660575  29.8429209  57.1210375 104.4640136
  26.9183017  52.6330355 101.5839500  27.7644212  53.0569768 101.7274149
  26.8581655  51.9763979 102.2778063  30.0682462  50.2934723 103.2420674
  29.8243394  51.0476784 102.7054949  30.3442393  50.6720071 104.0767921
  32.0220925  56.8373335 101.9197939  32.2337820  57.4805095 101.2432320
  31.9750673  56.0035652 101.4519869  29.6247154  49.4491156  98.8234511
  28.7631633  49.7472410  99.1151249  29.6509589  49.6661555  97.8915544
  26.4408724  57.9933347  95.2308317  26.9047069  58.2721050  94.4412940
  26.1765522  57.0916791  95.0481408  25.3777610  54.1156499  92.0397882
  26.0801653  54.5677543  92.5071809  25.0458238  53.4740318  92.6677775
  23.8257971  52.7068256 106.4149092  23.1956632  53.3884536 106.6484488
  23.7194059  52.5951337 105.4702230  19.1202944  52.3740052  97.3415016
  18.3301998  52.6297580  96.8655126  19.6114191  53.1888390  97.4467056
  21.0717689  52.7384631  94.2998492  20.2748852  52.8503325  94.8181988
  20.8443281  53.0771283  93.4339383  17.4040647  52.6270542  99.7730007
  17.6548685  53.5117552 100.0387582  17.9400195  52.4475144  99.0005098
  41.2272746  56.0584039  96.4405268  40.4736455  55.4891437  96.2849272
  41.3620287  56.0246704  97.3875903  23.1038714  47.0089021 108.7774343
  22.7105659  46.4555220 109.4521987  23.9204854  47.3199600 109.1680860
  20.0700772  58.4472880  92.6887912  20.5825292  59.2416130  92.8393477
  20.7223484  57.7499170  92.6221514  26.0206675  48.4246901 106.3694599
  26.7616388  49.0254054 106.2899062  26.2524598  47.6824538 105.8112642
  21.1648013  53.6103268 104.6472829  21.0501528  52.7088525 104.9479928
  20.3092531  53.8566965 104.2957645  28.2439851  61.5521008 106.2460329
  27.8003705  60.7657387 105.9281234  28.9057064  61.7400159 105.5804220
  29.9663838  44.4528003 100.6458881  29.6228107  45.3429645 100.5697991
  30.3342800  44.2629661  99.7828466  18.0349688  56.7761534  93.4647483
  18.8724910  57.1858542  93.2481191  18.2127956  55.8360976  93.4347677
  29.9314121  54.4436615  89.1531316  29.4160744  55.2141219  89.3919703
  29.6591429  53.7701751  89.7764377  27.5161232  49.2886315  94.2116554
  26.6602828  48.8993166  94.0322193  27.9288183  49.3678276  93.3516340
  29.0460378  46.8232659  98.6108114  28.5425174  46.7862794  97.7975919
  29.3390985  47.7325401  98.6704771  25.2903264  46.9071388  97.6174296
  26.1556261  46.7114197  97.2580185  25.3580773  46.6781740  98.5443653
  29.7200424  52.3163707  90.9791097  29.4150559  52.6309856  91.8301240
  30.6730866  52.3945127  91.0218430  22.8965583  49.1373596  94.9890663
  23.4709335  48.9148778  94.2563856  23.4836566  49.2062291  95.7419264
  23.2235170  51.1678057  89.0086548  22.3872483  51.5052744  89.3295823
  23.0839940  51.0327037  88.0713685  25.1988251  46.0114845  93.7165732
  24.5452663  45.6963862  93.0922347  25.1568725  45.3890586  94.4425555
  26.3099456  56.2934140  85.6319024  25.4026517  56.0623394  85.8310173
  26.8070488  55.4971760  85.8193006  28.4325991  52.4996779  98.0413380
  27.5148553  52.7211726  97.8835068  28.8486135  52.5743089  97.1825087
  29.2161039  53.8988194  93.1716060  29.9632858  54.4109592  92.8623182
  29.4852629  53.5772247  94.0320454  31.6639876  50.9345311  95.1534849
  30.9262633  50.4222697  95.4845092  31.9166650  50.4945692  94.3418126
  31.7651503  43.7121563  95.7476619  32.0710380  42.8518926  95.4602534
  32.4904108  44.3039183  95.5475612  18.0575860  54.1152249  94.1358216
  17.8600259  53.5221610  93.4109283  17.5022524  53.8104459  94.8534155
  26.0372583  54.0075356  96.2552810  26.0921193  53.0549192  96.1795286
  25.2263785  54.1634795  96.7394108  23.9764943  52.6252415  94.0143188
  23.1632809  52.9246586  94.4208381  24.4723937  52.2308104  94.7317671
  29.5739155  53.0894240 102.8458082  29.9288543  53.3165713 103.7052548
  30.2211286  53.4212617 102.2235338  35.3036892  56.2112676  93.5507411
  35.1654790  56.4014272  92.6228601  34.9473111  56.9732059  94.0075463
  23.4679018  50.1970771  99.6304423  24.1078397  50.0559530  98.9327387
  22.6356548  49.9105284  99.2543025  20.5522085  53.6416283  91.8199169
  19.6219673  53.5800739  92.0369131  20.6479557  53.1192236  91.0235810
  20.4707634  50.1671096  94.4077410  20.7314452  51.0816429  94.2986571
  21.2924807  49.6995539  94.5574023  21.9432560  51.5808853 101.5776235
  22.6155613  51.3726215 100.9288884  21.1162346  51.3830939 101.1381467
  36.1921821  58.3212904 101.0951568  36.3857711  59.2258714 101.3410843
  36.0922439  57.8620323 101.9290153  27.8458132  48.2070794 103.5941896
  27.1986047  48.9060744 103.5006372  28.6159147  48.6406938 103.9618144
  31.2536930  58.4719646 106.6692449  31.1022436  58.2430198 105.7522533
  31.2441609  59.4290248 106.6823794  22.3460057  54.8551456 102.3378672
  22.2079855  54.1231695 102.9390211  23.2564980  54.7660356 102.0562860
  31.3075005  56.7939860  87.0863150  30.6904175  56.0686689  86.9896203
  30.8391493  57.5549221  86.7430225  24.9742358  54.5671415 101.8262352
  25.6841976  53.9264608 101.7848970  24.9311666  54.8184310 102.7488532
  23.6871292  51.5536633 103.6457991  23.1508649  51.1027372 104.2979587
  23.0988000  51.6882542 102.9028455  23.0973550  51.0125285  86.2084455
  22.2203017  50.8914086  85.8446701  23.5731304  50.2211363  85.9563343
  32.9646544  59.4678353 102.9782910  32.0773322  59.1304275 103.1009309
  33.5345095  58.7361384 103.2151676  14.6175691  55.8002444  96.3025962
  15.3046730  55.4864175  95.7146977  14.4623819  56.7043809  96.0293213
  19.4210413  50.6892641 100.7310986  19.3368602  50.0818311  99.9961395
  18.5993119  51.1801659 100.7320482  29.5934127  49.1746205  96.0981181
  30.0902826  48.4216167  95.7782251  28.8221108  49.2110521  95.5324390
  37.4463884  54.8786570  97.7399472  37.4353760  55.7611286  97.3693405
  36.5781263  54.5258121  97.5454009  26.1769095  51.3163588  95.8252865
  25.8066883  50.7634628  96.5133771  26.6728188  50.7121721  95.2727865
  34.0636459  53.7735211  94.2069638  34.5296911  54.6063203  94.1329941
  34.5143959  53.3080193  94.9114897  32.0353121  46.1415798  98.2460539
  31.1216201  46.3720025  98.4142746  32.4646223  46.2254242  99.0974572
  31.8059580  54.3305690 100.7460433  31.1531030  54.5781597 100.0912886
  32.1839960  53.5169828 100.4122911  27.8547153  55.0725501 107.2326471
  27.1787790  54.9719630 107.9028846  28.6774787  54.9164715 107.6962468
  14.1943667  53.8803038  98.5743429  14.2327766  53.3466629  99.3680547
  13.6883960  53.3538243  97.9554406  21.5734429  48.7267578 102.0705971
  21.6375756  49.5882409 101.6583369  21.5101549  48.1141580 101.3378330
  21.0486702  50.7990711 105.7179006  21.6758740  50.4167788 106.3316530
  20.1914620  50.5804913 106.0834698  31.4480810  61.2053686 107.3232741
  31.9920714  61.8183644 106.8287696  30.8667655  61.7633264 107.8399754
  17.8252244  52.6067140  91.6497360  18.1205685  51.6977818  91.5964414
  16.9240280  52.5854879  91.3278363  21.3546491  50.6823137  97.6324909
  20.6333077  51.2959104  97.4932382  22.1439747  51.2180901  97.5541555
  24.1572805  48.0177563 103.9065561  24.6807207  48.2639860 104.6691870
  23.9385138  48.8497598 103.4868698  19.5540086  50.2881238  91.7736686
  19.2252792  49.4078617  91.5911791  19.9079457  50.2328906  92.6613075
  22.6681909  50.5754207  92.1412163  23.0077982  51.1040129  91.4190772
  23.1154030  50.9134614  92.9170730  25.3625350  48.9591258 101.5915231
  25.0222170  48.1599071 101.9935911  24.6564356  49.2592969 101.0192064
  26.0141822  46.0440571 100.0442554  26.8367891  45.5701049  99.9221445
  26.2579885  46.8231054 100.5441241  24.6550056  49.0728829  90.3405456
  25.3758419  49.4510082  89.8369173  24.0315360  49.7917706  90.4440434
  28.7981179  49.7773978  91.2763788  29.0144793  50.6598616  90.9752616
  28.3175246  49.3860191  90.5469430  23.5380400  52.7359691  97.8534533
  23.3924981  53.0499994  98.7458814  23.0605604  53.3544592  97.3005432
  25.3976783  49.7262239  97.9015422  25.3838352  48.8303333  97.5647720
  26.1149211  49.7332903  98.5353708  27.2502914  50.1599579  99.9468550
  26.9920692  51.0816650  99.9452880  26.7187954  49.7630014 100.6369014
  18.0126063  55.2765036 100.7922194  17.4679531  56.0524844 100.9242468
  18.8905413  55.6235840 100.6341315  24.8013679  48.6076620  93.1702993
  24.9229590  47.6793266  93.3693880  24.5115722  48.6215305  92.2581308
  27.6704870  46.2931530  96.3069712  27.6926567  46.3570863  95.3521692
  28.0872929  45.4536039  96.5010219  38.0488494  56.0286790  94.3448935
  38.4919640  55.2794115  93.9468058  37.1715004  56.0196926  93.9622667
  18.7992085  54.4034932 103.6852351  18.0573821  54.5517567 104.2716981
  18.4784829  54.6643198 102.8219100  35.0815698  60.0316836  91.3542864
  35.6067023  60.3704109  90.6292184  34.9938051  59.0963852  91.1705999
  26.7435747  63.9450910 103.4832741  27.0522874  63.7000057 104.3555441
  27.5411229  64.1497549 102.9951611  17.4457303  60.2086687  96.6751679
  16.6089212  59.7808861  96.4935680  17.4180949  60.4019130  97.6122470
  24.2854759  50.1208617 107.3792925  24.3342914  50.9970740 106.9970695
  24.8277273  49.5786010 106.8064568  34.8907480  57.5142207 103.9726791
  34.9405484  57.3492214 104.9142314  34.7821403  56.6469466 103.5824672
  23.7743738  60.1930752  91.2618880  23.9231859  60.8766217  90.6085552
  24.5810182  60.1735842  91.7768335  32.1811242  53.4973135 105.2886098
  33.0821105  53.3579599 104.9970095  32.2559216  53.6627589 106.2284275
  26.5154047  50.8739989 104.1339284  25.6457357  51.1673555 103.8621872
  26.7513528  51.4580434 104.8546547  37.5921359  57.4992028  96.7371383
  38.4268250  57.9381832  96.9008943  37.7280488  57.0230681  95.9179628
  34.6412865  55.0571763 102.6848870  35.1166986  55.2499409 101.8767722
  33.7178430  55.1130948 102.4392254  21.5296371  56.2195930  92.2679949
  21.2842413  55.3158260  92.4660159  21.6992286  56.2213080  91.3259427
  29.2193081  47.0919606 101.6504704  29.7375025  47.8280633 101.3251193
  28.8648214  47.3983600 102.4851463  20.7992019  51.9524287  89.7666110
  20.1061264  52.0268642  89.1106146  20.5543771  51.1884631  90.2887627
  29.4705675  43.5119889  97.1705601  29.7507429  42.8443078  97.7966027
  30.2556282  43.7048984  96.6580265  33.3414534  51.9337523 100.9177176
  34.2931957  52.0335620 100.9389400  33.1717984  51.1415791 101.4275260
  31.3628913  49.0193106 101.1036577  30.7678845  49.2998119 100.4083065
  31.0778610  49.5087007 101.8753318  35.8202611  55.1543642 100.0319476
  35.7878932  54.2159643 100.2179159  36.4303235  55.2327679  99.2985300
  27.6585942  54.0239695  86.0746680  28.6045047  53.8945904  86.1435098
  27.2800187  53.2854357  86.5516108  35.9697100  51.9454686 100.0777759
  35.4536149  51.1613142  99.8907688  36.8537048  51.6173402 100.2424278
  33.6307827  45.6895701  96.0373571  33.4332648  45.3810790  96.9216903
  34.2407532  46.4157340  96.1671501  41.6379161  56.2159649  99.1725512
  42.3682550  55.9544937  99.7333216  41.0286107  55.4788371  99.2127580
  39.7194458  54.3567512  99.7699964  38.9927622  54.2223477  99.1616455
  39.3041745  54.6644340 100.5756682  27.5424635  58.0757442 107.5347337
  28.4627644  58.2536041 107.7287383  27.5074218  57.1313487 107.3827036
  25.8428859  51.9489672  86.0101565  24.9360315  51.6522785  86.0864278
  26.1204840  51.6519490  85.1435851  16.7606800  53.2696035  96.4600611
  16.4409584  52.4161343  96.1674985  16.2140228  53.4844613  97.2158579
  20.5386707  55.9858476 100.1770118  20.7572717  56.9175584 100.1958152
  20.9512481  55.6266451 100.9624922  27.4590925  46.4926562  92.1645806
  26.6491653  46.1473646  92.5401052  28.1475342  46.1834105  92.7533418
  29.3881473  45.5704608  93.7870103  29.9412512  45.9900062  94.4460126
  29.6251560  44.6440356  93.8293059  25.4114573  51.5591682 109.5672867
  25.3111300  52.5086039 109.4984958  25.1936115  51.2309921 108.6948937
  24.6127644  48.8076607  86.1513544  25.4746808  49.1331505  86.4109361
  24.7977988  48.0208103  85.6386610  16.6295060  56.8898947  98.4293733
  15.9358531  56.4752899  97.9163687  17.3768051  56.9319483  97.8327152
  32.7660281  47.6805133  93.2948767  32.1858950  48.3389938  92.9126819
  32.4996213  46.8582478  92.8836185  31.2163847  47.0810191  95.4970087
  31.7163625  47.1926726  94.6884406  31.8599455  46.7771244  96.1370896
  25.2745843  54.9888821 108.3837928  24.7912924  55.7889181 108.5901817
  25.3606782  54.9996766 107.4305372  18.5431802  56.8217200  96.3059748
  18.5202490  56.9204888  95.3541631  18.8532439  57.6682351  96.6276914
  21.2019180  58.8793355 100.4206362  22.1562434  58.8477298 100.3536294
  21.0031704  58.4183979 101.2356588  21.7918562  57.4494472 102.9877160
  22.6111451  57.9438550 103.0111997  22.0655370  56.5326440 102.9594727
  31.5485159  49.8405224  92.3505115  30.6611014  50.1254874  92.1325310
  31.9639148  49.6798987  91.5032392  34.8999695  49.8651745  96.0659455
  35.6760085  50.3548197  96.3384071  34.1747829  50.2909799  96.5231324
  37.3372253  50.5779364  97.1233395  37.9316744  50.3375100  96.4126703
  37.4098837  49.8586495  97.7506931  19.5569409  64.4212975  97.4376560
  19.4223877  63.6613376  96.8714558  19.1401471  65.1453875  96.9705349
  35.3330988  51.1449492  93.3905525  35.0767922  50.7446127  94.2213733
  34.7083856  51.8593286  93.2655664  39.6443326  53.8845565  95.8976816
  39.0842884  53.9538754  96.6708378  39.0386829  53.7086550  95.1776313
  17.0453477  51.7832605 103.6869357  17.6912340  51.2731559 104.1756582
  16.8370628  52.5201287 104.2612782  29.5706869  58.8513453 109.1861497
  30.4398028  59.0254105 108.8248132  29.0913620  59.6707870 109.0637227
  25.5657087  46.0472650  89.4393253  25.5535757  46.9914490  89.5961524
  26.4580509  45.8642795  89.1452714  29.3809207  42.6415427  93.6939190
  28.6141602  42.0873913  93.8395872  29.7919911  42.7137295  94.5553341
  21.3850968  48.9300222 107.7844371  22.2482429  48.5737027 107.9947696
  20.8116378  48.5914117 108.4719775  40.8057592  59.7819921 100.6458881
  40.4621862  60.6721563 100.5697991  41.1736555  59.5921579  99.7828466
  40.0561289  80.3323565  88.5515710  39.3822988  80.6355262  89.1600668
  40.4427111  81.1352645  88.2021167  42.6045258  59.0413480  95.7476619
  42.9104135  58.1810844  95.4602534  43.3297863  59.6331101  95.5475612
  40.3099430  58.8411806  97.1705601  40.5901184  58.1734995  97.7966027
  41.0950037  59.0340902  96.6580265  36.2508327  66.8883600 109.5672867
  36.1505054  67.8377957 109.4984958  36.0329869  66.5601839 108.6948937
  40.2202961  57.9707344  93.6939190  39.4535357  57.4165831  93.8395872
  40.6313666  58.0429213  94.5553341  48.2824401  81.0037825  88.7617650
  48.4498804  81.8718061  89.1288121  48.0921570  81.1665106  87.8378939
  52.2439456  88.3541583 104.2105943  52.6522812  87.9123994 103.4660575
  51.5216718  87.7794211 104.4640136  44.9022679  81.8261893  89.0086548
  44.0659992  82.1636579  89.3295823  44.7627449  81.6910872  88.0713685
  47.9886965  86.9517976  85.6319024  47.0814026  86.7207229  85.8310173
  48.4857997  86.1555595  85.8193006  52.9324439  89.1303482 106.6692449
  52.7809945  88.9014033 105.7522533  52.9229118  90.0874083 106.6823794
  44.7761059  81.6709120  86.2084455  43.8990526  81.5497921  85.8446701
  45.2518813  80.8795198  85.9563343  39.5039753  83.2650975  91.6497360
  39.7993194  82.3561654  91.5964414  38.6027789  83.2438715  91.3278363
  46.3337565  79.7312664  90.3405456  47.0545928  80.1093917  89.8369173
  45.7102869  80.4501541  90.4440434  42.4779528  82.6108123  89.7666110
  41.7848773  82.6852478  89.1106146  42.2331280  81.8468466  90.2887627
  47.5216368  82.6073507  86.0101565  46.6147824  82.3106620  86.0864278
  47.7992349  82.3103325  85.1435851  51.2494378  89.5097288 109.1861497
  52.1185537  89.6837941 108.8248132  50.7701129  90.3291705 109.0637227
  47.2444596  76.7056485  89.4393253  47.2323266  77.6498325  89.5961524
  48.1368018  76.5226631  89.1452714  60.1996343 102.3248194 104.4854502
  60.1884984 101.9300992 103.6135006  60.3616982 101.5914267 105.0788274
  53.1227807 104.5200010  97.3549408  53.9149099 104.1790835  96.9395707
  53.3624458 104.6294985  98.2751562  56.9203604 105.1085306 103.4333686
  56.6293470 106.0130937 103.3180353  57.5560588 105.1501833 104.1477756
  57.8459811 102.4862154 100.0235046  58.4423383 102.2618177  99.3092009
  57.9034782 101.7446900 100.6260494  61.8793489 104.7946721 100.4283480
  61.5794212 105.6971760 100.3199287  61.5344549 104.5278905 101.2804633
  55.3305970 101.2460518  96.4620184  54.4056467 101.1136732  96.6697876
  55.5790384 102.0254737  96.9590127  52.6914782 100.8893792  97.2963973
  52.8207163 101.1428271  98.2103385  52.0112233 101.4821500  96.9768629
  56.8614269 111.5591042  93.3954448  56.7838298 112.5098867  93.4742928
  56.2575912 111.2136914  94.0529374  59.3531499  98.7318907 106.0515815
  58.5764833  99.2912827 106.0418679  59.9922062  99.2175690 106.5730685
  57.6077871 101.5404360 105.6133782  58.3492555 102.0789404 105.3368605
  56.9014856 102.1670649 105.7705333  63.0833211 103.6833501 104.2105943
  63.4916567 103.2415911 103.4660575  62.3610472 103.1086128 104.4640136
  59.4364281  98.6206108 101.5839500  60.2825476  99.0445521 101.7274149
  59.3762918  97.9639732 102.2778063  63.4062025 104.2434692  97.9658232
  62.7770888 104.4080406  97.2634300  63.0187687 104.6576301  98.7369196
  67.2851257 105.1789129  95.3202596  66.6002295 105.5588031  94.7699629
  67.3695106 105.7884456  96.0534543  64.5402189 102.8249088 101.9197939
  64.7519084 103.4680848 101.2432320  64.4931937 101.9911405 101.4519869
  55.8514068 103.5280581  98.1688080  56.4215425 103.9567850  97.5305565
  56.4422180 103.2463166  98.8672266  56.3439235  98.6944009 106.4149092
  55.7137895  99.3760290 106.6484488  56.2375323  98.5827090 105.4702230
  65.6548017 105.7021044 100.0920297  66.4765460 105.3001231  99.8102978
  65.6510419 105.5989278 101.0436412  59.4204620 105.2505087 102.2481007
  59.4849053 105.7125494 103.0839179  58.7115544 104.6202452 102.3763317
  59.1352638 106.9173195  92.1159987  58.9998312 107.7624730  92.5444835
  59.6762450 107.1192472  91.3525921  55.6219977  92.9964774 108.7774343
  55.2286923  92.4430973 109.4521987  56.4386118  93.3075353 109.1680860
  54.3976920 107.5514389  94.7710666  54.5743548 108.4732354  94.5831650
  55.1933753 107.2372808  95.2005045  58.5387938  94.4122654 106.3694599
  59.2797652  95.0129807 106.2899062  58.7705861  93.6700291 105.8112642
  53.6829276  99.5979021 104.6472829  53.5682791  98.6964278 104.9479928
  52.8273794  99.8442718 104.2957645  60.7621114 107.5396761 106.2460329
  60.3184968 106.7533140 105.9281234  61.4238328 107.7275912 105.5804220
  55.5208235 109.0692563 100.7721008  56.0715660 108.9409626  99.9998002
  54.6819711 109.3687452 100.4215901  62.8602352 107.8199561 104.2741731
  62.8420828 108.6408442 103.7822000  63.7822272 107.6953636 104.4991872
  59.3175406 105.3343691 105.1165239  59.8503743 104.5731979 104.8864547
  58.7889487 105.0417342 105.8589394  65.6620965 102.6578704  97.7451097
  65.0044639 103.3477965  97.8331226  66.4661364 103.0475135  98.0885084
  58.6454784 108.6085925  95.9477453  58.6030963 108.8346772  95.0185985
  59.5617483 108.3749300  96.0963254  61.5815430 107.8667050 100.0951784
  61.6352452 108.4357986 100.8629499  60.7130211 108.0368935  99.7305821
  68.7103084 104.3088657 101.0951568  68.9038974 105.2134467 101.3410843
  68.6103703 103.8496076 101.9290153  63.7718193 104.4595399 106.6692449
  63.6203699 104.2305951 105.7522533  63.7622873 105.4166001 106.6823794
  60.5403529 102.0327312 101.6538715  61.4695589 102.1838472 101.4807683
  60.1194559 102.1211333 100.7987362  59.3391861 106.0577976  99.4237253
  59.2002947 105.6896761 100.2963191  58.5506457 106.5725616  99.2521211
  59.9340013 111.1587073  90.7662790  60.1091769 110.6875116  91.5808412
  59.2472801 111.7852839  90.9944050  54.8641320 100.8427209 102.3378672
  54.7261118 100.1107448 102.9390211  55.7746244 100.7536109 102.0562860
  57.4923621 100.5547169 101.8262352  58.2023240  99.9140361 101.7848970
  57.4492929 100.8060063 102.7488532  65.4810400 107.4914522 104.7468931
  65.4222946 106.8073742 104.0799514  65.8829918 108.2333512 104.2949557
  56.2052555  97.5412386 103.6457991  55.6689912  97.0903125 104.2979587
  55.6169263  97.6758295 102.9028455  54.5001099 114.3076436  97.5402650
  54.7397697 114.9394960  98.2181668  53.6570295 113.9564476  97.8268009
  65.4827807 105.4554106 102.9782910  64.5954586 105.1180028 103.1009309
  66.0526358 104.7237137 103.2151676  59.0128960 110.1155558  99.9444154
  58.9399132 110.9210530 100.4563458  58.5706353 110.3147524  99.1192175
  58.8018740 109.3527328  93.4546975  58.0186262 109.8949008  93.5485200
  59.5011485 109.8701308  93.8541216  61.4727644 110.0142392 102.1002312
  62.1855616 110.6489857 102.0278214  60.9817673 110.1106258 101.2842314
  56.5239557 107.7636836 102.9207883  57.2249017 108.3973319 103.0737277
  56.0534672 108.1051567 102.1603522  61.2848017 110.3541136  94.8488604
  61.4670412 109.5362792  95.3116356  62.1081003 110.5708829  94.4113494
  60.3728416 101.0601254 107.2326471  59.6969053 100.9595383 107.9028846
  61.1956050 100.9040468 107.6962468  52.1207275 107.2973191  99.8538986
  52.7060712 106.5516879  99.9866890  51.9232114 107.6077147 100.7375650
  54.9745931 110.3324438  94.8701428  54.3056306 110.8170566  94.3865468
  54.8358800 110.5793659  95.7844807  59.1151199 112.3668182 101.4684087
  59.6669507 112.5299803 102.2333172  59.4557393 112.9572619 100.7964111
  63.9662074 107.1929439 107.3232741  64.5101978 107.8059397 106.8287696
  63.3848918 107.7509018 107.8399754  62.2519587 110.3150157  98.4547769
  62.1270726 109.5139897  97.9458714  62.9098678 110.8096350  97.9661739
  64.3154495 108.1159177 100.0827319  63.3684830 107.9964528 100.0105646
  64.6637268 107.2281675 100.1653580  61.3200928 107.9111893  96.2831671
  61.1725891 106.9828601  96.4639241  62.1454422 107.9331984  95.7988746
  64.9235050 108.7340452  97.3696544  65.8481598 108.5283313  97.2320995
  64.7550353 108.4856853  98.2785885  56.0561664  98.7235444  97.8534533
  55.9106245  99.0375747  98.7458814  55.5786868  99.3420345  97.3005432
  59.2617011 109.9326663 103.4832741  59.5704137 109.6875810 104.3555441
  60.0592493 110.1373302 102.9951611  59.2837623 112.0864573  95.7138117
  58.8442613 111.5940951  96.4070974  60.0345740 111.5437540  95.4730193
  51.7629962 108.2776114  95.7162746  52.5887982 107.9779886  95.3361389
  51.4124014 107.5083736  96.1652534  56.7311495 107.6302582  97.7860419
  56.1091504 106.9673287  97.4862647  57.4016362 107.6563714  97.1034067
  49.9638567 106.1962440  96.6751679  49.1270475 105.7684614  96.4935680
  49.9362212 106.3894883  97.6122470  56.8036022  96.1084370 107.3792925
  56.8524178  96.9846493 106.9970695  57.3458537  95.5661763 106.8064568
  67.2890868 106.6525493 106.6594062  66.4986412 106.6349632 106.1198562
  67.0524223 107.1913787 107.4143099  67.4088743 103.5017960 103.9726791
  67.4586748 103.3367967 104.9142314  67.3002666 102.6345219 103.5824672
  64.6992505  99.4848888 105.2886098  65.6002368  99.3455352 104.9970095
  64.7740480  99.6503342 106.2284275  59.0335311  96.8615742 104.1339284
  58.1638620  97.1549308 103.8621872  59.2694791  97.4456187 104.8546547
  68.9106940 105.9214901 104.2168812  68.6191748 106.2844882 105.0532273
  68.2979071 105.2081909 104.0382144  67.1594128 101.0447516 102.6848870
  67.6348250 101.2375162 101.8767722  66.2359693 101.1006702 102.4392254
  60.0605898 104.0633195 107.5347337  60.9808908 104.2411794 107.7287383
  60.0255481 103.1189240 107.3827036  53.0567971 101.9734229 100.1770118
  53.2753981 102.9051337 100.1958152  53.4693745 101.6142204 100.9624922
  57.9295836  97.5467435 109.5672867  57.8292563  98.4961792 109.4984958
  57.7117378  97.2185674 108.6948937  57.7927106 100.9764574 108.3837928
  57.3094188 101.7764934 108.5901817  57.8788045 100.9872519 107.4305372
  53.7200444 104.8669109 100.4206362  54.6743697 104.8353051 100.3536294
  53.5212967 104.4059732 101.2356588  54.3099826 103.4370225 102.9877160
  55.1292715 103.9314303 103.0111997  54.5836634 102.5202193 102.9594727
  52.0750672 110.4088728  97.4376560  51.9405140 109.6489129  96.8714558
  51.6582735 111.1329628  96.9705349  55.2319798 111.3058045  97.6495003
  55.1152183 112.2503478  97.5473693  54.4112245 111.0031607  98.0380802
  62.0888132 104.8389206 109.1861497  62.9579292 105.0129858 108.8248132
  61.6094884 105.6583623 109.0637227  56.2574312 111.9586307 100.8650931
  57.1601559 111.9909917 101.1817426  56.0311683 111.0286758 100.8797267
  58.0127914 110.7117293  97.5261010  57.0623546 110.7119155  97.4125382
  58.3160401 109.9650028  97.0097044  53.9032231  94.9175976 107.7844371
  54.7663693  94.5612780 107.9947696  53.3297642  94.5789870 108.4719775
  73.7480608 116.5477832  98.5906772  74.3859018 116.4284579  97.8870112
  73.6301451 117.4958676  98.6494724  70.5570314 116.5005260  98.5268297
  70.2188826 116.3846325  97.6388832  71.4260082 116.0996425  98.5069303
  66.4157130 118.3540736  94.5165188  65.8521995 118.2630673  93.7481475
  66.3009525 117.5340641  94.9967680  71.0390097 117.6540112 104.4854502
  71.0278738 117.2592910 103.6135006  71.2010737 116.9206184 105.0788274
  63.9621562 119.8491928  97.3549408  64.7542854 119.5082753  96.9395707
  64.2018212 119.9586903  98.2751562  71.9956689 122.0211704  89.8279653
  71.3444668 122.6065784  89.4413666  72.7901051 122.5517899  89.8874690
  65.9212316 119.1100841  90.2266787  66.6943192 118.5629828  90.0879663
  66.2737715 119.9745091  90.4381248  67.7597358 120.4377223 103.4333686
  67.4687224 121.3422854 103.3180353  68.3954343 120.4793751 104.1477756
  68.6853565 117.8154072 100.0235046  69.2817138 117.5910094  99.3092009
  68.7428537 117.0738817 100.6260494  68.2578594 115.2693507  87.8585237
  68.5104114 114.7475029  87.0968700  67.3203153 115.1059653  87.9611921
  73.3021876 114.2729286  95.6659980  74.0884966 113.8548709  95.3150397
  73.5660581 115.1775378  95.8341629  73.4731954 119.7102136  90.3648637
  72.8377787 119.7836763  91.0769542  73.1429360 120.2995735  89.6867716
  78.7030304 114.2104519  96.5692959  79.4355476 113.6403736  96.8030788
  77.9469659 113.8226119  97.0099464  67.9774882 117.1721613  90.0609612
  67.8611140 116.4966517  90.7290696  68.0877142 116.6853987  89.2441765
  70.3206423 116.6331760  93.7656301  69.9564631 116.1062381  94.4769223
  71.1773539 116.2430229  93.5922787  76.2255724 107.9226093 101.0287567
  75.8939049 108.7921504 100.8048782  75.6301337 107.6062377 101.7081598
  69.9611910 111.6621660  88.7617650  70.1286313 112.5301897  89.1288121
  69.7709079 111.8248942  87.8378939  72.7187243 120.1238639 100.4283480
  72.4187967 121.0263678 100.3199287  72.3738303 119.8570822 101.2804633
  66.1699725 116.5752436  96.4620184  65.2450221 116.4428650  96.6697876
  66.4184138 117.3546655  96.9590127  76.1184387 112.6421179  98.1080917
  75.2101265 112.5736588  97.8139678  76.0671983 113.1193124  98.9362743
  69.9401131 114.1179318  89.7464316  69.8200756 114.5636368  90.5849797
  69.2453720 114.4664635  89.1877855  63.5308536 116.2185709  97.2963973
  63.6600917 116.4720188  98.2103385  62.8505987 116.8113417  96.9768629
  67.7008023 126.8882959  93.3954448  67.6232053 127.8390784  93.4742928
  67.0969667 126.5428832  94.0529374  70.1925253 114.0610825 106.0515815
  69.4158587 114.6204745 106.0418679  70.8315816 114.5467608 106.5730685
  77.9846034 110.8437618  99.8858791  77.3420414 111.1370151  99.2398586
  77.4800962 110.7290538 100.6911988  75.6386197 114.5900791  90.5744650
  76.5504053 114.8228178  90.3992348  75.1295844 115.1737835  90.0119729
  68.4471625 116.8696278 105.6133782  69.1886310 117.4081322 105.3368605
  67.7408611 117.4962567 105.7705333  73.9226965 119.0125419 104.2105943
  74.3310321 118.5707829 103.4660575  73.2004227 118.4378046 104.4640136
  70.2758035 113.9498025 101.5839500  71.1219230 114.3737439 101.7274149
  70.2156673 113.2931650 102.2778063  74.2455780 119.5726609  97.9658232
  73.6164642 119.7372323  97.2634300  73.8581442 119.9868219  98.7369196
  78.1245012 120.5081047  95.3202596  77.4396050 120.8879948  94.7699629
  78.2088861 121.1176374  96.0534543  73.4257480 111.6102394 103.2420674
  73.1818412 112.3644454 102.7054949  73.7017411 111.9887741 104.0767921
  75.3795943 118.1541006 101.9197939  75.5912838 118.7972766 101.2432320
  75.3325691 117.3203323 101.4519869  72.9822172 110.7658827  98.8234511
  72.1206651 111.0640080  99.1151249  73.0084607 110.9829226  97.8915544
  69.7983742 119.3101017  95.2308317  70.2622087 119.5888720  94.4412940
  69.5340540 118.4084462  95.0481408  66.6907823 118.8572499  98.1688080
  67.2609180 119.2859767  97.5305565  67.2815934 118.5755084  98.8672266
  68.7352628 115.4324170  92.0397882  69.4376671 115.8845213  92.5071809
  68.4033256 114.7907989  92.6677775  67.1832989 114.0235926 106.4149092
  66.5531650 114.7052207 106.6484488  67.0769077 113.9119008 105.4702230
  62.4777962 113.6907722  97.3415016  61.6877016 113.9465251  96.8655126
  62.9689209 114.5056060  97.4467056  76.4941771 121.0312962 100.0920297
  77.3159215 120.6293149  99.8102978  76.4904174 120.9281196 101.0436412
  64.4292707 114.0552302  94.2998492  63.6323870 114.1670996  94.8181988
  64.2018299 114.3938954  93.4339383  70.2598375 120.5797005 102.2481007
  70.3242807 121.0417412 103.0839179  69.5509298 119.9494370 102.3763317
  60.7615665 113.9438213  99.7730007  61.0123703 114.8285223 100.0387582
  61.2975213 113.7642814  99.0005098  84.5847764 117.3751710  96.4405268
  83.8311473 116.8059108  96.2849272  84.7195305 117.3414375  97.3875903
  69.9746392 122.2465112  92.1159987  69.8392067 123.0916648  92.5444835
  70.5156205 122.4484390  91.3525921  66.4613732 108.3256692 108.7774343
  66.0680677 107.7722891 109.4521987  67.2779872 108.6367271 109.1680860
  63.4275790 119.7640550  92.6887912  63.9400310 120.5583801  92.8393477
  64.0798502 119.0666841  92.6221514  65.2370674 122.8806307  94.7710666
  65.4137303 123.8024271  94.5831650  66.0327508 122.5664726  95.2005045
  69.3781693 109.7414571 106.3694599  70.1191406 110.3421724 106.2899062
  69.6099616 108.9992209 105.8112642  64.5223031 114.9270939 104.6472829
  64.4076546 114.0256196 104.9479928  63.6667549 115.1734635 104.2957645
  71.6014869 122.8688679 106.2460329  71.1578723 122.0825057 105.9281234
  72.2632082 123.0567829 105.5804220  66.3601990 124.3984480 100.7721008
  66.9109415 124.2701544  99.9998002  65.5213466 124.6979369 100.4215901
  73.6996107 123.1491479 104.2741731  73.6814582 123.9700360 103.7822000
  74.6216027 123.0245554 104.4991872  70.1569161 120.6635608 105.1165239
  70.6897498 119.9023896 104.8864547  69.6283242 120.3709260 105.8589394
  61.3924706 118.0929205  93.4647483  62.2299928 118.5026213  93.2481191
  61.5702974 117.1528647  93.4347677  73.2889138 115.7604285  89.1531316
  72.7735762 116.5308890  89.3919703  73.0166447 115.0869421  89.7764377
  70.8736250 110.6053986  94.2116554  70.0177846 110.2160836  94.0322193
  71.2863201 110.6845947  93.3516340  68.6478282 108.2239059  97.6174296
  69.5131279 108.0281868  97.2580185  68.7155791 107.9949411  98.5443653
  78.2623413 118.5136640  91.0884489  77.4852855 118.1747799  90.6439652
  78.9414894 118.5189263  90.4139455  73.0775442 113.6331377  90.9791097
  72.7725577 113.9477527  91.8301240  74.0305884 113.7112797  91.0218430
  71.5221874 119.7921601  92.6284051  70.9943235 119.0574360  92.3157289
  71.0209376 120.5696277  92.3824019  76.5014720 117.9870621  97.7451097
  75.8438394 118.6769883  97.8331226  77.3055119 118.3767053  98.0885084
  66.2540601 110.4541267  94.9890663  66.8284353 110.2316448  94.2563856
  66.8411584 110.5229962  95.7419264  75.3120178 116.3414994  95.7955039
  75.8252060 116.9744986  96.2976749  75.9621402 115.7416189  95.4298399
  66.5810188 112.4845728  89.0086548  65.7447500 112.8220415  89.3295823
  66.4414958 112.3494708  88.0713685  69.6674474 117.6101811  85.6319024
  68.7601535 117.3791064  85.8310173  70.1645506 116.8139430  85.8193006
  72.5742553 126.3199318  88.5515710  71.9004251 126.6231015  89.1600668
  72.9608375 127.1228399  88.2021167  71.7901009 113.8164449  98.0413380
  70.8723571 114.0379396  97.8835068  72.2061153 113.8910760  97.1825087
  72.5736057 115.2155865  93.1716060  73.3207876 115.7277262  92.8623182
  72.8427646 114.8939918  94.0320454  70.8462707 117.7114406  90.1543014
  69.9373926 117.4273439  90.2515484  70.8757791 118.1313484  89.2946321
  76.0781975 121.3220995  93.9234182  75.6244302 120.4811905  93.9799372
  75.4475941 121.9582394  94.2608962  75.0214894 112.2512981  95.1534849
  74.2837651 111.7390368  95.4845092  75.2741668 111.8113363  94.3418126
  74.5214914 123.1597492  94.8584000  74.8137888 123.7202549  94.1396366
  75.0313534 123.4526053  95.6137159  61.4150878 115.4319920  94.1358216
  61.2175277 114.8389281  93.4109283  60.8597541 115.1272130  94.8534155
  69.3947601 115.3243026  96.2552810  69.4496211 114.3716863  96.1795286
  68.5838803 115.4802466  96.7394108  70.5438795 119.2523150  87.4931093
  70.1058225 118.5359008  87.0336730  71.2849236 119.4799264  86.9316184
  67.3339961 113.9420086  94.0143188  66.5207827 114.2414257  94.4208381
  67.8298955 113.5475775  94.7317671  69.4848539 123.9377843  95.9477453
  69.4424718 124.1638689  95.0185985  70.4011238 123.7041218  96.0963254
  72.9314173 114.4061911 102.8458082  73.2863560 114.6333384 103.7052548
  73.5786304 114.7380287 102.2235338  78.6611910 117.5280347  93.5507411
  78.5229808 117.7181943  92.6228601  78.3048129 118.2899729  94.0075463
  66.8254036 111.5138442  99.6304423  67.4653415 111.3727201  98.9327387
  65.9931566 111.2272955  99.2543025  78.6881289 119.5956874  98.5618683
  79.1217796 119.5032163  99.4101737  79.4012870 119.5714374  97.9238699
  67.6014340 120.8140872  95.7439416  68.3954938 120.3191192  95.5421991
  66.8906032 120.2858735  95.3807121  72.4209184 123.1958968 100.0951784
  72.4746207 123.7649904 100.8629499  71.5523966 123.3660853  99.7305821
  63.9097103 114.9583954  91.8199169  62.9794691 114.8968409  92.0369131
  64.0054575 114.4359907  91.0235810  63.8282652 111.4838767  94.4077410
  64.0889470 112.3984100  94.2986571  64.6499825 111.0163209  94.5574023
  65.3007578 112.8976524 101.5776235  65.9730631 112.6893886 100.9288884
  64.4737364 112.6998610 101.1381467  79.5496839 119.6380574 101.0951568
  79.7432729 120.5426385 101.3410843  79.4497457 119.1787993 101.9290153
  71.2033150 109.5238465 103.5941896  70.5561065 110.2228414 103.5006372
  71.9734165 109.9574609 103.9618144  74.6111948 119.7887317 106.6692449
  74.4597454 119.5597869 105.7522533  74.6016627 120.7457918 106.6823794
  71.3797284 117.3619230 101.6538715  72.3089344 117.5130389 101.4807683
  70.9588314 117.4503251 100.7987362  70.1785616 121.3869894  99.4237253
  70.0396701 121.0188679 100.2963191  69.3900212 121.9017534  99.2521211
  70.7733768 126.4878991  90.7662790  70.9485523 126.0167034  91.5808412
  70.0866556 127.1144757  90.9944050  71.7290831 120.7651497  96.8126091
  71.3940663 120.7252267  97.7083741  71.2294777 120.0996213  96.3396501
  65.7035075 116.1719127 102.3378672  65.5654873 115.4399366 102.9390211
  66.6139998 116.0828027 102.0562860  74.6650023 118.1107531  87.0863150
  74.0479193 117.3854359  86.9896203  74.1966511 118.8716891  86.7430225
  68.3317376 115.8839086 101.8262352  69.0416994 115.2432278 101.7848970
  68.2886684 116.1351981 102.7488532  76.3204154 122.8206440 104.7468931
  76.2616700 122.1365660 104.0799514  76.7223673 123.5625430 104.2949557
  67.0446309 112.8704304 103.6457991  66.5083667 112.4195043 104.2979587
  66.4563018 113.0050213 102.9028455  65.3394853 129.6368353  97.5402650
  65.5791451 130.2686878  98.2181668  64.4964049 129.2856393  97.8268009
  66.4548568 112.3292955  86.2084455  65.5778035 112.2081756  85.8446701
  66.9306322 111.5379034  85.9563343  76.3221561 120.7846023 102.9782910
  75.4348340 120.4471945 103.1009309  76.8920113 120.0529055 103.2151676
  57.9750709 117.1170115  96.3025962  58.6621748 116.8031845  95.7146977
  57.8198837 118.0211480  96.0293213  62.7785431 112.0060312 100.7310986
  62.6943619 111.3985981  99.9961395  61.9568137 112.4969330 100.7320482
  69.8522715 125.4447476  99.9444154  69.7792886 126.2502447 100.4563458
  69.4100108 125.6439442  99.1192175  69.6412494 124.6819246  93.4546975
  68.8580016 125.2240926  93.5485200  70.3405240 125.1993225  93.8541216
  80.8038902 116.1954241  97.7399472  80.7928778 117.0778956  97.3693405
  79.9356281 115.8425792  97.5454009  72.3121398 125.3434310 102.1002312
  73.0249371 125.9781775 102.0278214  71.8211427 125.4398176 101.2842314
  74.0338925 119.2485563  93.6719604  73.0995204 119.3687025  93.5024308
  74.2115594 118.3458029  93.4079614  69.5344113 112.6331258  95.8252865
  69.1641901 112.0802299  96.5133771  70.0303206 112.0289392  95.2727865
  77.4211477 115.0902882  94.2069638  77.8871929 115.9230873  94.1329941
  77.8718977 114.6247863  94.9114897  67.3633312 123.0928753 102.9207883
  68.0642771 123.7265236 103.0737277  66.8928427 123.4343485 102.1603522
  75.4887708 121.4346703  91.2055790  75.7647552 121.3203298  92.1149664
  74.6192206 121.0364188  91.1667963  75.1634598 115.6473361 100.7460433
  74.5106048 115.8949268 100.0912886  75.5414978 114.8337499 100.4122911
  72.1241772 125.6833054  94.8488604  72.3064166 124.8654710  95.3116356
  72.9474758 125.9000746  94.4113494  72.4583937 124.6101239  92.1103652
  72.9871704 124.0993694  91.4973814  72.7212157 124.2943769  92.9749185
  71.2122171 116.3893172 107.2326471  70.5362808 116.2887301 107.9028846
  72.0349805 116.2332386 107.6962468  62.9601030 122.6265108  99.8538986
  63.5454467 121.8808796  99.9866890  62.7625868 122.9369065 100.7375650
  65.8139685 125.6616356  94.8701428  65.1450060 126.1462483  94.3865468
  65.6752555 125.9085576  95.7844807  57.5518685 115.1970709  98.5743429
  57.5902784 114.6634299  99.3680547  57.0458978 114.6705914  97.9554406
  69.9544954 127.6960099 101.4684087  70.5063262 127.8591721 102.2333172
  70.2951147 128.2864537 100.7964111  64.9309447 110.0435249 102.0705971
  64.9950773 110.9050080 101.6583369  64.8676567 109.4309251 101.3378330
  64.4061720 112.1158382 105.7179006  65.0333758 111.7335459 106.3316530
  63.5489638 111.8972584 106.0834698  74.8055828 122.5221357 107.3232741
  75.3495732 123.1351315 106.8287696  74.2242673 123.0800935 107.8399754
  61.1827262 113.9234811  91.6497360  61.4780703 113.0145489  91.5964414
  60.2815298 113.9022550  91.3278363  73.0913341 125.6442075  98.4547769
  72.9664481 124.8431815  97.9458714  73.7492432 126.1388268  97.9661739
  64.7121509 111.9990807  97.6324909  63.9908095 112.6126775  97.4932382
  65.5014765 112.5348572  97.5541555  75.1548249 123.4451095 100.0827319
  74.2078585 123.3256446 100.0105646  75.5031023 122.5573593 100.1653580
  67.5147823 109.3345234 103.9065561  68.0382225 109.5807530 104.6691870
  67.2960156 110.1665269 103.4868698  62.9115104 111.6048908  91.7736686
  62.5827810 110.7246287  91.5911791  63.2654475 111.5496577  92.6613075
  72.1594683 123.2403811  96.2831671  72.0119645 122.3120519  96.4639241
  72.9848176 123.2623902  95.7988746  66.0256927 111.8921878  92.1412163
  66.3653000 112.4207799  91.4190772  66.4729048 112.2302284  92.9170730
  75.7628805 124.0632370  97.3696544  76.6875352 123.8575231  97.2320995
  75.5944108 123.8148771  98.2785885  68.7200368 110.2758929 101.5915231
  68.3797188 109.4766742 101.9935911  68.0139374 110.5760640 101.0192064
  69.3716840 107.3608241 100.0442554  70.1942909 106.8868720  99.9221445
  69.6154903 108.1398725 100.5441241  72.1556197 111.0941649  91.2763788
  72.3719811 111.9766287  90.9752616  71.6750264 110.7027862  90.5469430
  66.8955418 114.0527362  97.8534533  66.7499999 114.3667665  98.7458814
  66.4180622 114.6712262  97.3005432  68.7551801 111.0429910  97.9015422
  68.7413370 110.1471003  97.5647720  69.4724229 111.0500574  98.5353708
  70.6077932 111.4767250  99.9468550  70.3495710 112.3984321  99.9452880
  70.0762972 111.0797685 100.6369014  75.5524121 124.5818037  92.7258635
  75.7260998 124.0164460  91.9732488  76.0453012 125.3818932  92.5438125
  61.3701081 116.5932706 100.7922194  60.8254549 117.3692514 100.9242468
  62.2480430 116.9403511 100.6341315  68.1588697 109.9244290  93.1702993
  68.2804608 108.9960936  93.3693880  67.8690740 109.9382976  92.2581308
  81.4063512 117.3454460  94.3448935  81.8494658 116.5961785  93.9468058
  80.5290022 117.3364597  93.9622667  76.5399293 123.8984802  89.8255534
  77.2350198 124.5191494  90.0442848  76.8822443 123.0480153  90.1007911
  62.1567102 115.7202603 103.6852351  61.4148839 115.8685238 104.2716981
  61.8359847 115.9810868 102.8219100  78.4390716 121.3484507  91.3542864
  78.9642040 121.6871780  90.6292184  78.3513069 120.4131523  91.1705999
  70.1010765 125.2618581 103.4832741  70.4097892 125.0167728 104.3555441
  70.8986247 125.4665219 102.9951611  70.1231377 127.4156490  95.7138117
  69.6836367 126.9232869  96.4070974  70.8739494 126.8729458  95.4730193
  62.6023716 123.6068031  95.7162746  63.4281736 123.3071803  95.3361389
  62.2517768 122.8375654  96.1652534  67.5705249 122.9594500  97.7860419
  66.9485259 122.2965205  97.4862647  68.2410116 122.9855631  97.1034067
  60.8032321 121.5254358  96.6751679  59.9664229 121.0976532  96.4935680
  60.7755967 121.7186801  97.6122470  67.6429777 111.4376288 107.3792925
  67.6917932 112.3138410 106.9970695  68.1852291 110.8953681 106.8064568
  78.1284622 121.9817411 106.6594062  77.3380166 121.9641550 106.1198562
  77.8917977 122.5205705 107.4143099  78.2482498 118.8309877 103.9726791
  78.2980502 118.6659885 104.9142314  78.1396421 117.9637136 103.5824672
  67.1318756 121.5098423  91.2618880  67.2806877 122.1933887  90.6085552
  67.9385200 121.4903513  91.7768335  75.5386260 114.8140805 105.2886098
  76.4396123 114.6747270 104.9970095  75.6134234 114.9795260 106.2284275
  69.8729065 112.1907660 104.1339284  69.0032375 112.4841226 103.8621872
  70.1088546 112.7748105 104.8546547  79.7500694 121.2506819 104.2168812
  79.4585503 121.6136799 105.0532273  79.1372826 120.5373827 104.0382144
  80.9496377 118.8159699  96.7371383  81.7843268 119.2549503  96.9008943
  81.0855505 118.3398352  95.9179628  77.9987883 116.3739433 102.6848870
  78.4742004 116.5667080 101.8767722  77.0753448 116.4298619 102.4392254
  64.8871389 117.5363601  92.2679949  64.6417431 116.6325931  92.4660159
  65.0567304 117.5380751  91.3259427  72.5768099 108.4087277 101.6504704
  73.0950043 109.1448304 101.3251193  72.2223232 108.7151270 102.4851463
  64.1567037 113.2691958  89.7666110  63.4636282 113.3436313  89.1106146
  63.9118789 112.5052302  90.2887627  70.6314162 124.0046553  88.7330627
  70.0588129 124.6236740  88.2801099  71.2046955 124.5545915  89.2670549
  76.6989552 113.2505193 100.9177176  77.6506974 113.3503291 100.9389400
  76.5293002 112.4583462 101.4275260  74.7203931 110.3360777 101.1036577
  74.1253863 110.6165789 100.4083065  74.4353628 110.8254678 101.8753318
  73.8511422 124.2883703  89.8639209  74.7842095 124.2229265  90.0672085
  73.7634634 125.1239970  89.4053742  76.4799438 123.6049574  86.8243157
  76.4013070 123.2709437  87.7178915  77.3009105 124.0971342  86.8234629
  79.1777629 116.4711313 100.0319476  79.1453949 115.5327314 100.2179159
  79.7878253 116.5495350  99.2985300  71.0160960 115.3407366  86.0746680
  71.9620065 115.2113574  86.1435098  70.6375205 114.6022028  86.5516108
  79.3272118 113.2622357 100.0777759  78.8111167 112.4780813  99.8907688
  80.2112066 112.9341073 100.2424278  84.9954179 117.5327320  99.1725512
  85.7257568 117.2712608  99.7333216  84.3861125 116.7956042  99.2127580
  83.0769476 115.6735183  99.7699964  82.3502640 115.5391147  99.1616455
  82.6616763 115.9812011 100.5756682  70.8999653 119.3925112 107.5347337
  71.8202662 119.5703711 107.7287383  70.8649236 118.4481158 107.3827036
  69.2003877 113.2657342  86.0101565  68.2935333 112.9690455  86.0864278
  69.4779858 112.9687161  85.1435851  60.1181818 114.5863706  96.4600611
  59.7984602 113.7329014  96.1674985  59.5715246 114.8012284  97.2158579
  63.8961725 117.3026147 100.1770118  64.1147735 118.2343255 100.1958152
  64.3087499 116.9434121 100.9624922  68.7689591 112.8759353 109.5672867
  68.6686318 113.8253710 109.4984958  68.5511133 112.5477592 108.6948937
  67.9702662 110.1244278  86.1513544  68.8321826 110.4499176  86.4109361
  68.1553006 109.3375774  85.6386610  59.9870078 118.2066617  98.4293733
  59.2933549 117.7920570  97.9163687  60.7343069 118.2487154  97.8327152
  68.6320861 116.3056492 108.3837928  68.1487942 117.1056852 108.5901817
  68.7181800 116.3164436 107.4305372  61.9006820 118.1384871  96.3059748
  61.8777508 118.2372558  95.3541631  62.2107457 118.9850022  96.6276914
  64.5594198 120.1961026 100.4206362  65.5137452 120.1644969 100.3536294
  64.3606722 119.7351650 101.2356588  65.1493580 118.7662142 102.9877160
  65.9686469 119.2606221 103.0111997  65.4230388 117.8494110 102.9594727
  78.2574713 111.1819416  96.0659455  79.0335103 111.6715868  96.3384071
  77.5322847 111.6077470  96.5231324  80.6947271 111.8947035  97.1233395
  81.2891762 111.6542771  96.4126703  80.7673855 111.1754165  97.7506931
  62.9144427 125.7380646  97.4376560  62.7798895 124.9781047  96.8714558
  62.4976489 126.4621546  96.9705349  74.0503390 120.9217569  86.4453135
  74.7539240 121.1267572  87.0610791  73.3266039 121.4894331  86.7102219
  74.8801200 116.6727430  92.5655405  74.8236402 117.1295982  91.7263038
  75.4329543 115.9118115  92.3878248  78.6906006 112.4617162  93.3905525
  78.4342940 112.0613798  94.2213733  78.0658874 113.1760956  93.2655664
  83.0018344 115.2013236  95.8976816  82.4417902 115.2706425  96.6708378
  82.3961847 115.0254220  95.1776313  66.0713553 126.6349963  97.6495003
  65.9545937 127.5795395  97.5473693  65.2505999 126.3323524  98.0380802
  75.9590087 121.3600098  88.4951595  76.7935691 120.9281297  88.3129070
  75.7974430 121.1882112  89.4228490  75.6135980 117.8632212  89.8607935
  75.5584783 117.6976483  88.9196379  74.9882035 118.5708245  90.0170124
  60.4028495 113.1000276 103.6869357  61.0487358 112.5899230 104.1756582
  60.1945646 113.8368958 104.2612782  72.9281887 120.1681124 109.1861497
  73.7973046 120.3421776 108.8248132  72.4488638 120.9875540 109.0637227
  67.0968067 127.2878225 100.8650931  67.9995314 127.3201835 101.1817426
  66.8705437 126.3578676 100.8797267  68.8521669 126.0409211  97.5261010
  67.9017300 126.0411073  97.4125382  69.1554155 125.2941946  97.0097044
  64.7425986 110.2467893 107.7844371  65.6057447 109.8904698 107.9947696
  64.1691396 109.9081788 108.4719775  84.5874362 131.8769750  98.5906772
  85.2252772 131.7576497  97.8870112  84.4695205 132.8250593  98.6494724
  81.3964069 131.8297178  98.5268297  81.0582580 131.7138242  97.6388832
  82.2653837 131.4288343  98.5069303  77.2550884 133.6832654  94.5165188
  76.6915750 133.5922591  93.7481475  77.1403279 132.8632559  94.9967680
  81.8783852 132.9832029 104.4854502  81.8672493 132.5884828 103.6135006
  82.0404491 132.2498102 105.0788274  74.8015316 135.1783846  97.3549408
  75.5936608 134.8374670  96.9395707  75.0411967 135.2878821  98.2751562
  82.8350443 137.3503622  89.8279653  82.1838423 137.9357702  89.4413666
  83.6294806 137.8809817  89.8874690  76.7606070 134.4392759  90.2266787
  77.5336946 133.8921746  90.0879663  77.1131469 135.3037008  90.4381248
  78.5991113 135.7669141 103.4333686  78.3080979 136.6714772 103.3180353
  79.2348097 135.8085669 104.1477756  79.5247320 133.1445990 100.0235046
  80.1210892 132.9202012  99.3092009  79.5822291 132.4030735 100.6260494
  79.0972348 130.5985425  87.8585237  79.3497869 130.0766946  87.0968700
  78.1596907 130.4351570  87.9611921  84.1415631 129.6021203  95.6659980
  84.9278720 129.1840627  95.3150397  84.4054335 130.5067296  95.8341629
  84.3125708 135.0394054  90.3648637  83.6771541 135.1128680  91.0769542
  83.9823115 135.6287653  89.6867716  89.5424058 129.5396437  96.5692959
  90.2749230 128.9695653  96.8030788  88.7863414 129.1518037  97.0099464
  78.8168637 132.5013531  90.0609612  78.7004895 131.8258434  90.7290696
  78.9270897 132.0145905  89.2441765  81.1600178 131.9623678  93.7656301
  80.7958385 131.4354299  94.4769223  82.0167294 131.5722147  93.5922787
  87.0649478 123.2518011 101.0287567  86.7332803 124.1213422 100.8048782
  86.4695092 122.9354295 101.7081598  80.8005665 126.9913578  88.7617650
  80.9680067 127.8593814  89.1288121  80.6102834 127.1540859  87.8378939
  83.5580998 135.4530557 100.4283480  83.2581721 136.3555595 100.3199287
  83.2132057 135.1862740 101.2804633  77.0093479 131.9044354  96.4620184
  76.0843976 131.7720568  96.6697876  77.2577893 132.6838573  96.9590127
  86.9578142 127.9713097  98.1080917  86.0495019 127.9028505  97.8139678
  86.9065738 128.4485042  98.9362743  80.7794886 129.4471235  89.7464316
  80.6594511 129.8928286  90.5849797  80.0847474 129.7956553  89.1877855
  74.3702290 131.5477627  97.2963973  74.4994672 131.8012106  98.2103385
  73.6899742 132.1405335  96.9768629  78.5401778 142.2174877  93.3954448
  78.4625807 143.1682702  93.4742928  77.9363421 141.8720750  94.0529374
  81.0319008 129.3902742 106.0515815  80.2552342 129.9496663 106.0418679
  81.6709571 129.8759525 106.5730685  88.8239788 126.1729535  99.8858791
  88.1814168 126.4662068  99.2398586  88.3194717 126.0582456 100.6911988
  86.4779952 129.9192708  90.5744650  87.3897808 130.1520095  90.3992348
  85.9689599 130.5029753  90.0119729  79.2865380 132.1988196 105.6133782
  80.0280064 132.7373240 105.3368605  78.5802365 132.8254485 105.7705333
  84.7620719 134.3417336 104.2105943  85.1704076 133.8999747 103.4660575
  84.0397981 133.7669964 104.4640136  81.1151790 129.2789943 101.5839500
  81.9612985 129.7029357 101.7274149  81.0550427 128.6223567 102.2778063
  85.0849534 134.9018527  97.9658232  84.4558397 135.0664241  97.2634300
  84.6975196 135.3160136  98.7369196  88.9638766 135.8372965  95.3202596
  88.2789804 136.2171866  94.7699629  89.0482615 136.4468291  96.0534543
  84.2651235 126.9394311 103.2420674  84.0212167 127.6936372 102.7054949
  84.5411165 127.3179659 104.0767921  86.2189698 133.4832924 101.9197939
  86.4306593 134.1264684 101.2432320  86.1719446 132.6495240 101.4519869
  83.8215927 126.0950744  98.8234511  82.9600406 126.3931998  99.1151249
  83.8478361 126.3121143  97.8915544  80.6377496 134.6392935  95.2308317
  81.1015842 134.9180638  94.4412940  80.3734294 133.7376380  95.0481408
  77.5301577 134.1864417  98.1688080  78.1002934 134.6151685  97.5305565
  78.1209689 133.9047001  98.8672266  79.5746382 130.7616087  92.0397882
  80.2770425 131.2137131  92.5071809  79.2427011 130.1199906  92.6677775
  78.0226744 129.3527844 106.4149092  77.3925404 130.0344125 106.6484488
  77.9162831 129.2410926 105.4702230  73.3171716 129.0199640  97.3415016
  72.5270770 129.2757169  96.8655126  73.8082963 129.8347978  97.4467056
  87.3335526 136.3604879 100.0920297  88.1552969 135.9585066  99.8102978
  87.3297928 136.2573113 101.0436412  75.2686461 129.3844219  94.2998492
  74.4717625 129.4962914  94.8181988  75.0412054 129.7230871  93.4339383
  81.0992129 135.9088923 102.2481007  81.1636562 136.3709330 103.0839179
  80.3903053 135.2786287 102.3763317  71.6009419 129.2730130  99.7730007
  71.8517457 130.1577140 100.0387582  72.1368967 129.0934732  99.0005098
  95.4241519 132.7043628  96.4405268  94.6705227 132.1351026  96.2849272
  95.5589060 132.6706292  97.3875903  80.8140147 137.5757030  92.1159987
  80.6785821 138.4208566  92.5444835  81.3549959 137.7776308  91.3525921
  77.3007486 123.6548610 108.7774343  76.9074432 123.1014808 109.4521987
  78.1173627 123.9659188 109.1680860  74.2669544 135.0932468  92.6887912
  74.7794065 135.8875718  92.8393477  74.9192257 134.3958758  92.6221514
  76.0764429 138.2098224  94.7710666  76.2531057 139.1316189  94.5831650
  76.8721262 137.8956644  95.2005045  80.2175447 125.0706489 106.3694599
  80.9585161 125.6713642 106.2899062  80.4493370 124.3284127 105.8112642
  75.3616785 130.2562856 104.6472829  75.2470300 129.3548113 104.9479928
  74.5061303 130.5026553 104.2957645  82.4408623 138.1980597 106.2460329
  81.9972477 137.4116975 105.9281234  83.1025837 138.3859747 105.5804220
  77.1995744 139.7276398 100.7721008  77.7503169 139.5993461  99.9998002
  76.3607220 140.0271287 100.4215901  84.5389861 138.4783396 104.2741731
  84.5208336 139.2992277 103.7822000  85.4609781 138.3537472 104.4991872
  80.9962915 135.9927526 105.1165239  81.5291252 135.2315814 104.8864547
  80.4676996 135.7001178 105.8589394  84.1632610 121.0987592 100.6458881
  83.8196880 121.9889234 100.5697991  84.5311573 120.9089250  99.7828466
  72.2318461 133.4221122  93.4647483  73.0693683 133.8318131  93.2481191
  72.4096729 132.4820564  93.4347677  84.1282893 131.0896203  89.1531316
  83.6129516 131.8600808  89.3919703  83.8560201 130.4161339  89.7764377
  81.7130004 125.9345904  94.2116554  80.8571600 125.5452754  94.0322193
  82.1256956 126.0137865  93.3516340  83.2429151 123.4692247  98.6108114
  82.7393946 123.4322382  97.7975919  83.5359758 124.3784990  98.6704771
  79.4872037 123.5530977  97.6174296  80.3525033 123.3573785  97.2580185
  79.5549545 123.3241329  98.5443653  89.1017167 133.8428558  91.0884489
  88.3246610 133.5039717  90.6439652  89.7808648 133.8481181  90.4139455
  83.9169196 128.9623295  90.9791097  83.6119332 129.2769444  91.8301240
  84.8699638 129.0404715  91.0218430  82.3615628 135.1213518  92.6284051
  81.8336990 134.3866278  92.3157289  81.8603131 135.8988195  92.3824019
  87.3408474 133.3162539  97.7451097  86.6832148 134.0061800  97.8331226
  88.1448873 133.7058971  98.0885084  77.0934356 125.7833185  94.9890663
  77.6678108 125.5608366  94.2563856  77.6805338 125.8521879  95.7419264
  86.1513933 131.6706912  95.7955039  86.6645815 132.3036903  96.2976749
  86.8015157 131.0708107  95.4298399  77.4203943 127.8137646  89.0086548
  76.5841255 128.1512332  89.3295823  77.2808712 127.6786625  88.0713685
  79.3957023 122.6574434  93.7165732  78.7421436 122.3423451  93.0922347
  79.3537497 122.0350174  94.4425555  80.5068228 132.9393729  85.6319024
  79.5995290 132.7082982  85.8310173  81.0039260 132.1431348  85.8193006
  83.4136307 141.6491236  88.5515710  82.7398006 141.9522933  89.1600668
  83.8002129 142.4520316  88.2021167  82.6294764 129.1456367  98.0413380
  81.7117325 129.3671314  97.8835068  83.0454907 129.2202678  97.1825087
  83.4129811 130.5447783  93.1716060  84.1601630 131.0569180  92.8623182
  83.6821401 130.2231836  94.0320454  81.6856462 133.0406324  90.1543014
  80.7767681 132.7565356  90.2515484  81.7151545 133.4605402  89.2946321
  86.9175729 136.6512913  93.9234182  86.4638056 135.8103823  93.9799372
  86.2869696 137.2874311  94.2608962  85.8608649 127.5804899  95.1534849
  85.1231405 127.0682285  95.4845092  86.1135422 127.1405281  94.3418126
  85.3608668 138.4889410  94.8584000  85.6531643 139.0494467  94.1396366
  85.8707289 138.7817971  95.6137159  85.9620276 120.3581151  95.7476619
  86.2679153 119.4978514  95.4602534  86.6872881 120.9498771  95.5475612
  72.2544632 130.7611838  94.1358216  72.0569032 130.1681198  93.4109283
  71.6991296 130.4564048  94.8534155  80.2341356 130.6534944  96.2552810
  80.2889965 129.7008781  96.1795286  79.4232558 130.8094383  96.7394108
  81.3832549 134.5815067  87.4931093  80.9451979 133.8650926  87.0336730
  82.1242990 134.8091182  86.9316184  78.1733716 129.2712004  94.0143188
  77.3601581 129.5706174  94.4208381  78.6692710 128.8767693  94.7317671
  80.3242293 139.2669761  95.9477453  80.2818472 139.4930607  95.0185985
  81.2404992 139.0333135  96.0963254  83.7707927 129.7353828 102.8458082
  84.1257315 129.9625301 103.7052548  84.4180058 130.0672205 102.2235338
  89.5005664 132.8572264  93.5507411  89.3623563 133.0473860  92.6228601
  89.1441883 133.6191647  94.0075463  77.6647790 126.8430359  99.6304423
  78.3047170 126.7019118  98.9327387  76.8325321 126.5564873  99.2543025
  89.5275044 134.9248791  98.5618683  89.9611550 134.8324080  99.4101737
  90.2406625 134.9006292  97.9238699  78.4408094 136.1432790  95.7439416
  79.2348693 135.6483110  95.5421991  77.7299787 135.6150653  95.3807121
  83.2602939 138.5250885 100.0951784  83.3139961 139.0941822 100.8629499
  82.3917720 138.6952770  99.7305821  74.7490858 130.2875872  91.8199169
  73.8188446 130.2260327  92.0369131  74.8448330 129.7651824  91.0235810
  74.6676407 126.8130684  94.4077410  74.9283224 127.7276018  94.2986571
  75.4893579 126.3455127  94.5574023  76.1401332 128.2268442 101.5776235
  76.8124386 128.0185804 100.9288884  75.3131119 128.0290528 101.1381467
  90.3890593 134.9672492 101.0951568  90.5826483 135.8718302 101.3410843
  90.2891212 134.5079911 101.9290153  82.0426904 124.8530382 103.5941896
  81.3954819 125.5520332 103.5006372  82.8127920 125.2866526 103.9618144
  85.4505702 135.1179235 106.6692449  85.2991208 134.8889786 105.7522533
  85.4410382 136.0749836 106.6823794  82.2191038 132.6911147 101.6538715
  83.1483098 132.8422307 101.4807683  81.7982068 132.7795168 100.7987362
  81.0179370 136.7161812  99.4237253  80.8790456 136.3480596 100.2963191
  80.2293966 137.2309451  99.2521211  81.6127522 141.8170908  90.7662790
  81.7879278 141.3458951  91.5808412  80.9260310 142.4436674  90.9944050
  82.5684585 136.0943414  96.8126091  82.2334418 136.0544184  97.7083741
  82.0688531 135.4288130  96.3396501  76.5428829 131.5011045 102.3378672
  76.4048627 130.7691283 102.9390211  77.4533753 131.4119945 102.0562860
  85.5043777 133.4399449  87.0863150  84.8872948 132.7146277  86.9896203
  85.0360265 134.2008809  86.7430225  79.1711130 131.2131004 101.8262352
  79.8810749 130.5724196 101.7848970  79.1280438 131.4643899 102.7488532
  87.1597909 138.1498357 104.7468931  87.1010455 137.4657577 104.0799514
  87.5617427 138.8917347 104.2949557  77.8840064 128.1996222 103.6457991
  77.3477421 127.7486960 104.2979587  77.2956772 128.3342131 102.9028455
  76.1788607 144.9660271  97.5402650  76.4185206 145.5978795  98.2181668
  75.3357804 144.6148311  97.8268009  77.2942323 127.6584873  86.2084455
  76.4171789 127.5373674  85.8446701  77.7700076 126.8670951  85.9563343
  87.1615316 136.1137941 102.9782910  86.2742095 135.7763863 103.1009309
  87.7313867 135.3820972 103.2151676  68.8144463 132.4462033  96.3025962
  69.5015503 132.1323763  95.7146977  68.6592592 133.3503398  96.0293213
  73.6179185 127.3352229 100.7310986  73.5337374 126.7277899  99.9961395
  72.7961892 127.8261248 100.7320482  80.6916469 140.7739393  99.9444154
  80.6186641 141.5794365 100.4563458  80.2493862 140.9731359  99.1192175
  80.4806249 140.0111164  93.4546975  79.6973771 140.5532844  93.5485200
  81.1798994 140.5285143  93.8541216  83.7902899 125.8205793  96.0981181
  84.2871599 125.0675755  95.7782251  83.0189881 125.8570110  95.5324390
  91.6432656 131.5246158  97.7399472  91.6322533 132.4070874  97.3693405
  90.7750036 131.1717709  97.5454009  83.1515153 140.6726228 102.1002312
  83.8643125 141.3073692 102.0278214  82.6605182 140.7690094 101.2842314
  84.8732680 134.5777480  93.6719604  83.9388959 134.6978943  93.5024308
  85.0509348 133.6749947  93.4079614  80.3737868 127.9623176  95.8252865
  80.0035655 127.4094216  96.5133771  80.8696960 127.3581309  95.2727865
  88.2605231 130.4194799  94.2069638  88.7265683 131.2522791  94.1329941
  88.7112732 129.9539781  94.9114897  78.2027066 138.4220671 102.9207883
  78.9036526 139.0557154 103.0737277  77.7322181 138.7635403 102.1603522
  86.3281462 136.7638621  91.2055790  86.6041306 136.6495215  92.1149664
  85.4585961 136.3656106  91.1667963  86.2321894 122.7875386  98.2460539
  85.3184974 123.0179613  98.4142746  86.6614995 122.8713831  99.0974572
  86.0028352 130.9765278 100.7460433  85.3499803 131.2241186 100.0912886
  86.3808732 130.1629417 100.4122911  82.9635526 141.0124972  94.8488604
  83.1457921 140.1946628  95.3116356  83.7868512 141.2292664  94.4113494
  83.2977692 139.9393157  92.1103652  83.8265458 139.4285611  91.4973814
  83.5605911 139.6235687  92.9749185  82.0515925 131.7185089 107.2326471
  81.3756562 131.6179219 107.9028846  82.8743559 131.5624303 107.6962468
  73.7994784 137.9557026  99.8538986  74.3848221 137.2100714  99.9866890
  73.6019623 138.2660983 100.7375650  76.6533440 140.9908273  94.8701428
  75.9843815 141.4754401  94.3865468  76.5146309 141.2377494  95.7844807
  68.3912439 130.5262626  98.5743429  68.4296539 129.9926217  99.3680547
  67.8852732 129.9997832  97.9554406  80.7938708 143.0252017 101.4684087
  81.3457016 143.1883638 102.2333172  81.1344902 143.6156455 100.7964111
  75.7703201 125.3727167 102.0705971  75.8344528 126.2341998 101.6583369
  75.7070322 124.7601168 101.3378330  75.2455474 127.4450299 105.7179006
  75.8727513 127.0627377 106.3316530  74.3883393 127.2264501 106.0834698
  85.6449583 137.8513274 107.3232741  86.1889487 138.4643233 106.8287696
  85.0636427 138.4092853 107.8399754  72.0221017 129.2526728  91.6497360
  72.3174458 128.3437407  91.5964414  71.1209053 129.2314468  91.3278363
  83.9307096 140.9733992  98.4547769  83.8058235 140.1723732  97.9458714
  84.5886187 141.4680186  97.9661739  75.5515264 127.3282725  97.6324909
  74.8301850 127.9418693  97.4932382  76.3408520 127.8640490  97.5541555
  85.9942004 138.7743013 100.0827319  85.0472339 138.6548364 100.0105646
  86.3424777 137.8865511 100.1653580  78.3541577 124.6637151 103.9065561
  78.8775979 124.9099448 104.6691870  78.1353911 125.4957186 103.4868698
  73.7508858 126.9340826  91.7736686  73.4221565 126.0538205  91.5911791
  74.1048229 126.8788495  92.6613075  82.9988437 138.5695729  96.2831671
  82.8513400 137.6412436  96.4639241  83.8241931 138.5915819  95.7988746
  76.8650682 127.2213796  92.1412163  77.2046754 127.7499717  91.4190772
  77.3122802 127.5594202  92.9170730  86.6022559 139.3924287  97.3696544
  87.5269107 139.1867149  97.2320995  86.4337862 139.1440689  98.2785885
  79.5594122 125.6050847 101.5915231  79.2190943 124.8058660 101.9935911
  78.8533129 125.9052557 101.0192064  80.2110594 122.6900159 100.0442554
  81.0336663 122.2160637  99.9221445  80.4548658 123.4690643 100.5441241
  78.8518829 125.7188417  90.3405456  79.5727191 126.0969670  89.8369173
  78.2284133 126.4377294  90.4440434  82.9949952 126.4233566  91.2763788
  83.2113566 127.3058204  90.9752616  82.5144019 126.0319780  90.5469430
  77.7349173 129.3819280  97.8534533  77.5893754 129.6959583  98.7458814
  77.2574377 130.0004180  97.3005432  79.5945556 126.3721828  97.9015422
  79.5807125 125.4762921  97.5647720  80.3117984 126.3792491  98.5353708
  81.4471687 126.8059168  99.9468550  81.1889464 127.7276238  99.9452880
  80.9156727 126.4089602 100.6369014  86.3917875 139.9109955  92.7258635
  86.5654753 139.3456377  91.9732488  86.8846767 140.7110850  92.5438125
  72.2094835 131.9224624 100.7922194  71.6648303 132.6984432 100.9242468
  73.0874185 132.2695429 100.6341315  78.9982452 125.2536208  93.1702993
  79.1198363 124.3252854  93.3693880  78.7084494 125.2674894  92.2581308
  81.8673642 122.9391118  96.3069712  81.8895339 123.0030451  95.3521692
  82.2841701 122.0995627  96.5010219  92.2457266 132.6746378  94.3448935
  92.6888412 131.9253703  93.9468058  91.3683777 132.6656514  93.9622667
  87.3793048 139.2276719  89.8255534  88.0743952 139.8483412  90.0442848
  87.7216198 138.3772071  90.1007911  72.9960857 131.0494520 103.6852351
  72.2542593 131.1977156 104.2716981  72.6753601 131.3102786 102.8219100
  89.2784471 136.6776425  91.3542864  89.8035795 137.0163698  90.6292184
  89.1906823 135.7423440  91.1705999  80.9404520 140.5910499 103.4832741
  81.2491646 140.3459645 104.3555441  81.7380002 140.7957137 102.9951611
  80.9625132 142.7448408  95.7138117  80.5230122 142.2524787  96.4070974
  81.7133249 142.2021376  95.4730193  73.4417471 138.9359949  95.7162746
  74.2675491 138.6363721  95.3361389  73.0911523 138.1667571  96.1652534
  78.4099004 138.2886417  97.7860419  77.7879013 137.6257122  97.4862647
  79.0803871 138.3147549  97.1034067  71.6426076 136.8546275  96.6751679
  70.8057984 136.4268450  96.4935680  71.6149721 137.0478719  97.6122470
  78.4823531 126.7668205 107.3792925  78.5311687 127.6430328 106.9970695
  79.0246045 126.2245598 106.8064568  88.9678377 137.3109329 106.6594062
  88.1773921 137.2933467 106.1198562  88.7311732 137.8497622 107.4143099
  89.0876252 134.1601795 103.9726791  89.1374257 133.9951802 104.9142314
  88.9790175 133.2929054 103.5824672  77.9712511 136.8390341  91.2618880
  78.1200631 137.5225805  90.6085552  78.7778954 136.8195431  91.7768335
  86.3780014 130.1432723 105.2886098  87.2789877 130.0039188 104.9970095
  86.4527989 130.3087178 106.2284275  80.7122820 127.5199578 104.1339284
  79.8426129 127.8133144 103.8621872  80.9482300 128.1040023 104.8546547
  90.5894449 136.5798736 104.2168812  90.2979257 136.9428717 105.0532273
  89.9766580 135.8665745 104.0382144  91.7890131 134.1451616  96.7371383
  92.6237023 134.5841420  96.9008943  91.9249260 133.6690269  95.9179628
  88.8381637 131.7031351 102.6848870  89.3135759 131.8958997 101.8767722
  87.9147202 131.7590537 102.4392254  75.7265144 132.8655518  92.2679949
  75.4811186 131.9617848  92.4660159  75.8961058 132.8672669  91.3259427
  83.4161854 123.7379195 101.6504704  83.9343797 124.4740222 101.3251193
  83.0616986 124.0443188 102.4851463  74.9960791 128.5983876  89.7666110
  74.3030036 128.6728231  89.1106146  74.7512543 127.8344219  90.2887627
  83.6674448 120.1579477  97.1705601  83.9476202 119.4902666  97.7966027
  84.4525055 120.3508573  96.6580265  81.4707916 139.3338471  88.7330627
  80.8981883 139.9528658  88.2801099  82.0440710 139.8837833  89.2670549
  87.5383306 128.5797111 100.9177176  88.4900729 128.6795209 100.9389400
  87.3686757 127.7875380 101.4275260  85.5597686 125.6652694 101.1036577
  84.9647618 125.9457707 100.4083065  85.2747382 126.1546595 101.8753318
  84.6905176 139.6175621  89.8639209  85.6235849 139.5521183  90.0672085
  84.6028389 140.4531888  89.4053742  87.3193193 138.9341492  86.8243157
  87.2406824 138.6001355  87.7178915  88.1402859 139.4263259  86.8234629
  90.0171384 131.8003231 100.0319476  89.9847704 130.8619232 100.2179159
  90.6272008 131.8787268  99.2985300  81.8554715 130.6699284  86.0746680
  82.8013819 130.5405492  86.1435098  81.4768960 129.9313946  86.5516108
  90.1665872 128.5914274 100.0777759  89.6504921 127.8072731  99.8907688
  91.0505821 128.2632991 100.2424278  87.8276599 122.3355290  96.0373571
  87.6301420 122.0270378  96.9216903  88.4376305 123.0616929  96.1671501
  95.8347934 132.8619238  99.1725512  96.5651322 132.6004526  99.7333216
  95.2254879 132.1247960  99.2127580  93.9163231 131.0027100  99.7699964
  93.1896394 130.8683065  99.1616455  93.5010518 131.3103929 100.5756682
  81.7393407 134.7217030 107.5347337  82.6596417 134.8995629 107.7287383
  81.7042990 133.7773075 107.3827036  80.0397632 128.5949260  86.0101565
  79.1329087 128.2982373  86.0864278  80.3173613 128.2979078  85.1435851
  70.9575572 129.9155624  96.4600611  70.6378357 129.0620932  96.1674985
  70.4109000 130.1304202  97.2158579  74.7355480 132.6318065 100.1770118
  74.9541490 133.5635172 100.1958152  75.1481254 132.2726039 100.9624922
  81.6559698 123.1386150  92.1645806  80.8460426 122.7933235  92.5401052
  82.3444115 122.8293694  92.7533418  83.5850246 122.2164197  93.7870103
  84.1381285 122.6359650  94.4460126  83.8220332 121.2899945  93.8293059
  79.6083345 128.2051270 109.5672867  79.5080072 129.1545627 109.4984958
  79.3904887 127.8769509 108.6948937  78.8096417 125.4536195  86.1513544
  79.6715581 125.7791094  86.4109361  78.9946761 124.6667691  85.6386610
  70.8263832 133.5358535  98.4293733  70.1327304 133.1212488  97.9163687
  71.5736823 133.5779072  97.8327152  86.9629053 124.3264722  93.2948767
  86.3827722 124.9849526  92.9126819  86.6964986 123.5042066  92.8836185
  85.4132619 123.7269780  95.4970087  85.9132398 123.8386314  94.6884406
  86.0568227 123.4230832  96.1370896  79.4714615 131.6348409 108.3837928
  78.9881697 132.4348769 108.5901817  79.5575554 131.6456354 107.4305372
  72.7400575 133.4676789  96.3059748  72.7171263 133.5664476  95.3541631
  73.0501211 134.3141940  96.6276914  75.3987953 135.5252944 100.4206362
  76.3531206 135.4936886 100.3536294  75.2000476 135.0643568 101.2356588
  75.9887335 134.0954060 102.9877160  76.8080224 134.5898139 103.0111997
  76.2624143 133.1786028 102.9594727  85.7453931 126.4864812  92.3505115
  84.8579786 126.7714463  92.1325310  86.1607920 126.3258576  91.5032392
  89.0968467 126.5111333  96.0659455  89.8728857 127.0007786  96.3384071
  88.3716601 126.9369387  96.5231324  91.5341026 127.2238952  97.1233395
  92.1285517 126.9834688  96.4126703  91.6067609 126.5046083  97.7506931
  73.7538181 141.0672563  97.4376560  73.6192649 140.3072964  96.8714558
  73.3370244 141.7913463  96.9705349  84.8897144 136.2509487  86.4453135
  85.5932995 136.4559489  87.0610791  84.1659793 136.8186249  86.7102219
  85.7194955 132.0019348  92.5655405  85.6630156 132.4587900  91.7263038
  86.2723297 131.2410033  92.3878248  89.5299761 127.7909080  93.3905525
  89.2736695 127.3905716  94.2213733  88.9052629 128.5052874  93.2655664
  93.8412099 130.5305153  95.8976816  93.2811656 130.5998343  96.6708378
  93.2355602 130.3546138  95.1776313  76.9107307 141.9641880  97.6495003
  76.7939691 142.9087313  97.5473693  76.0899754 141.6615442  98.0380802
  86.7983842 136.6892016  88.4951595  87.6329446 136.2573215  88.3129070
  86.6368185 136.5174030  89.4228490  86.4529734 133.1924129  89.8607935
  86.3978538 133.0268401  88.9196379  85.8275789 133.9000162  90.0170124
  71.2422249 128.4292194 103.6869357  71.8881113 127.9191148 104.1756582
  71.0339400 129.1660875 104.2612782  83.7675641 135.4973041 109.1861497
  84.6366801 135.6713694 108.8248132  83.2882393 136.3167458 109.0637227
  79.7625860 122.6932238  89.4393253  79.7504529 123.6374078  89.5961524
  80.6549281 122.5102384  89.1452714  77.9361821 142.6170142 100.8650931
  78.8389068 142.6493753 101.1817426  77.7099192 141.6870593 100.8797267
  79.6915423 141.3701129  97.5261010  78.7411054 141.3702990  97.4125382
  79.9947910 140.6233863  97.0097044  83.5777979 119.2875015  93.6939190
  82.8110375 118.7333502  93.8395872  83.9888684 119.3596884  94.5553341
  75.5819740 125.5759811 107.7844371  76.4451202 125.2196616 107.9947696
  75.0085151 125.2373706 108.4719775  95.4268117 147.2061667  98.5906772
  96.0646527 147.0868415  97.8870112  95.3088960 148.1542511  98.6494724
  92.2357823 147.1589095  98.5268297  91.8976335 147.0430160  97.6388832
  93.1047591 146.7580260  98.5069303  88.0944639 149.0124572  94.5165188
  87.5309504 148.9214509  93.7481475  87.9797034 148.1924476  94.9967680
  85.6409071 150.5075763  97.3549408  86.4330363 150.1666588  96.9395707
  85.8805721 150.6170738  98.2751562  87.5999825 149.7684677  90.2266787
  88.3730701 149.2213664  90.0879663  87.9525224 150.6328926  90.4381248
  90.3641074 148.4737907 100.0235046  90.9604646 148.2493930  99.3092009
  90.4216046 147.7322653 100.6260494  89.9366103 145.9277343  87.8585237
  90.1891623 145.4058864  87.0968700  88.9990662 145.7643488  87.9611921
  94.9809385 144.9313121  95.6659980  95.7672475 144.5132544  95.3150397
  95.2448090 145.8359213  95.8341629  95.1519463 150.3685971  90.3648637
  94.5165296 150.4420598  91.0769542  94.8216869 150.9579570  89.6867716
 100.3817813 144.8688354  96.5692959 101.1142985 144.2987571  96.8030788
  99.6257168 144.4809955  97.0099464  89.6562391 147.8305449  90.0609612
  89.5398649 147.1550352  90.7290696  89.7664651 147.3437823  89.2441765
  91.9993932 147.2915596  93.7656301  91.6352140 146.7646217  94.4769223
  92.8561048 146.9014065  93.5922787  97.9043233 138.5809928 101.0287567
  97.5726558 139.4505339 100.8048782  97.3088846 138.2646212 101.7081598
  91.6399419 142.3205495  88.7617650  91.8073822 143.1885732  89.1288121
  91.4496588 142.4832777  87.8378939  87.8487234 147.2336271  96.4620184
  86.9237730 147.1012485  96.6697876  88.0971647 148.0130490  96.9590127
  97.7971896 143.3005015  98.1080917  96.8888774 143.2320423  97.8139678
  97.7459492 143.7776959  98.9362743  91.6188640 144.7763153  89.7464316
  91.4988265 145.2220204  90.5849797  90.9241229 145.1248471  89.1877855
  85.2096045 146.8769545  97.2963973  85.3388426 147.1304024  98.2103385
  84.5293496 147.4697253  96.9768629  99.6633543 141.5021453  99.8858791
  99.0207923 141.7953986  99.2398586  99.1588471 141.3874373 100.6911988
  97.3173706 145.2484626  90.5744650  98.2291562 145.4812013  90.3992348
  96.8083353 145.8321670  90.0119729  91.9545544 144.6081861 101.5839500
  92.8006739 145.0321274 101.7274149  91.8944182 143.9515485 102.2778063
  95.9243289 150.2310445  97.9658232  95.2952151 150.3956159  97.2634300
  95.5368951 150.6452054  98.7369196  95.1044989 142.2686229 103.2420674
  94.8605921 143.0228290 102.7054949  95.3804920 142.6471577 104.0767921
  94.6609681 141.4242662  98.8234511  93.7994160 141.7223916  99.1151249
  94.6872116 141.6413061  97.8915544  91.4771251 149.9684853  95.2308317
  91.9409596 150.2472556  94.4412940  91.2128049 149.0668297  95.0481408
  88.3695332 149.5156334  98.1688080  88.9396689 149.9443603  97.5305565
  88.9603443 149.2338919  98.8672266  90.4140137 146.0908005  92.0397882
  91.1164180 146.5429049  92.5071809  90.0820765 145.4491824  92.6677775
  84.1565471 144.3491558  97.3415016  83.3664525 144.6049086  96.8655126
  84.6476718 145.1639896  97.4467056  86.1080216 144.7136137  94.2998492
  85.3111379 144.8254831  94.8181988  85.8805808 145.0522789  93.4339383
  82.4403174 144.6022048  99.7730007  82.6911212 145.4869058 100.0387582
  82.9762722 144.4226650  99.0005098  88.1401241 138.9840528 108.7774343
  87.7468186 138.4306726 109.4521987  88.9567381 139.2951106 109.1680860
  91.0569202 140.3998407 106.3694599  91.7978915 141.0005560 106.2899062
  91.2887125 139.6576044 105.8112642  86.2010540 145.5854774 104.6472829
  86.0864055 144.6840031 104.9479928  85.3455058 145.8318471 104.2957645
  95.0026365 136.4279510 100.6458881  94.6590634 137.3181151 100.5697991
  95.3705327 136.2381167  99.7828466  83.0712215 148.7513040  93.4647483
  83.9087437 149.1610048  93.2481191  83.2490483 147.8112482  93.4347677
  94.9676647 146.4188121  89.1531316  94.4523271 147.1892725  89.3919703
  94.6953956 145.7453257  89.7764377  92.5523759 141.2637821  94.2116554
  91.6965355 140.8744672  94.0322193  92.9650710 141.3429782  93.3516340
  94.0822905 138.7984165  98.6108114  93.5787701 138.7614300  97.7975919
  94.3753512 139.7076907  98.6704771  90.3265791 138.8822894  97.6174296
  91.1918788 138.6865703  97.2580185  90.3943300 138.6533246  98.5443653
  94.7562951 144.2915213  90.9791097  94.4513086 144.6061362  91.8301240
  95.7093393 144.3696633  91.0218430  93.2009382 150.4505436  92.6284051
  92.6730744 149.7158196  92.3157289  92.6996885 151.2280112  92.3824019
  98.1802229 148.6454457  97.7451097  97.5225903 149.3353718  97.8331226
  98.9842628 149.0350888  98.0885084  87.9328110 141.1125102  94.9890663
  88.5071862 140.8900284  94.2563856  88.5199093 141.1813797  95.7419264
  96.9907687 146.9998829  95.7955039  97.5039569 147.6328821  96.2976749
  97.6408911 146.4000025  95.4298399  88.2597697 143.1429563  89.0086548
  87.4235009 143.4804250  89.3295823  88.1202467 143.0078543  88.0713685
  90.2350778 137.9866351  93.7165732  89.5815190 137.6715368  93.0922347
  90.1931252 137.3642092  94.4425555  91.3461983 148.2685646  85.6319024
  90.4389044 148.0374900  85.8310173  91.8433015 147.4723266  85.8193006
  93.4688518 144.4748285  98.0413380  92.5511080 144.6963232  97.8835068
  93.8848662 144.5494595  97.1825087  94.2523566 145.8739700  93.1716060
  94.9995385 146.3861098  92.8623182  94.5215155 145.5523753  94.0320454
  92.5250216 148.3698241  90.1543014  91.6161435 148.0857274  90.2515484
  92.5545300 148.7897320  89.2946321  96.7002403 142.9096817  95.1534849
  95.9625160 142.3974203  95.4845092  96.9529177 142.4697198  94.3418126
  96.8014030 135.6873069  95.7476619  97.1072907 134.8270432  95.4602534
  97.5266635 136.2790689  95.5475612  83.0938386 146.0903755  94.1358216
  82.8962786 145.4973116  93.4109283  82.5385050 145.7855966  94.8534155
  91.0735110 145.9826862  96.2552810  91.1283720 145.0300698  96.1795286
  90.2626312 146.1386301  96.7394108  92.2226304 149.9106985  87.4931093
  91.7845734 149.1942844  87.0336730  92.9636745 150.1383100  86.9316184
  89.0127470 144.6003922  94.0143188  88.1995336 144.8998092  94.4208381
  89.5086464 144.2059610  94.7317671  94.6101682 145.0645746 102.8458082
  94.9651069 145.2917219 103.7052548  95.2573813 145.3964123 102.2235338
 100.3399419 148.1864182  93.5507411 100.2017317 148.3765778  92.6228601
  99.9835638 148.9483565  94.0075463  88.5041545 142.1722277  99.6304423
  89.1440924 142.0311036  98.9327387  87.6719075 141.8856790  99.2543025
  89.2801849 151.4724707  95.7439416  90.0742447 150.9775028  95.5421991
  88.5693541 150.9442571  95.3807121  85.5884612 145.6167789  91.8199169
  84.6582200 145.5552245  92.0369131  85.6842084 145.0943742  91.0235810
  85.5070161 142.1422602  94.4077410  85.7676979 143.0567935  94.2986571
  86.3287334 141.6747045  94.5574023  86.9795087 143.5560359 101.5776235
  87.6518140 143.3477721 100.9288884  86.1524873 143.3582445 101.1381467
  92.8820659 140.1822300 103.5941896  92.2348574 140.8812250 103.5006372
  93.6521674 140.6158444 103.9618144  93.0584793 148.0203065 101.6538715
  93.9876853 148.1714225 101.4807683  92.6375823 148.1087086 100.7987362
  93.4078340 151.4235332  96.8126091  93.0728172 151.3836102  97.7083741
  92.9082286 150.7580048  96.3396501  87.3822584 146.8302962 102.3378672
  87.2442382 146.0983201 102.9390211  88.2927507 146.7411862 102.0562860
  96.3437532 148.7691367  87.0863150  95.7266702 148.0438195  86.9896203
  95.8754020 149.5300727  86.7430225  90.0104884 146.5422922 101.8262352
  90.7204503 145.9016114 101.7848970  89.9674193 146.7935816 102.7488532
  88.7233818 143.5288139 103.6457991  88.1871175 143.0778878 104.2979587
  88.1350527 143.6634048 102.9028455  88.1336077 142.9876791  86.2084455
  87.2565544 142.8665592  85.8446701  88.6093830 142.1962869  85.9563343
  84.4572940 142.6644147 100.7310986  84.3731128 142.0569817  99.9961395
  83.6355646 143.1553165 100.7320482  94.6296654 141.1497711  96.0981181
  95.1265353 140.3967673  95.7782251  93.8583635 141.1862027  95.5324390
 102.4826411 146.8538076  97.7399472 102.4716287 147.7362792  97.3693405
 101.6143790 146.5009627  97.5454009  95.7126434 149.9069398  93.6719604
  94.7782713 150.0270860  93.5024308  95.8903103 149.0041865  93.4079614
  91.2131622 143.2915094  95.8252865  90.8429410 142.7386134  96.5133771
  91.7090715 142.6873227  95.2727865  99.0998986 145.7486717  94.2069638
  99.5659438 146.5814709  94.1329941  99.5506486 145.2831699  94.9114897
  97.0715648 138.1167304  98.2460539  96.1578728 138.3471531  98.4142746
  97.5008750 138.2005748  99.0974572  96.8422107 146.3057196 100.7460433
  96.1893557 146.5533104 100.0912886  97.2202487 145.4921334 100.4122911
  79.2306194 145.8554544  98.5743429  79.2690293 145.3218135  99.3680547
  78.7246487 145.3289749  97.9554406  86.6096956 140.7019084 102.0705971
  86.6738282 141.5633915 101.6583369  86.5464076 140.0893086 101.3378330
  86.0849229 142.7742217 105.7179006  86.7121267 142.3919294 106.3316530
  85.2277147 142.5556419 106.0834698  82.8614771 144.5818646  91.6497360
  83.1568212 143.6729324  91.5964414  81.9602807 144.5606386  91.3278363
  86.3909018 142.6574643  97.6324909  85.6695604 143.2710610  97.4932382
  87.1802274 143.1932407  97.5541555  89.1935332 139.9929069 103.9065561
  89.7169734 140.2391366 104.6691870  88.9747665 140.8249104 103.4868698
  84.5902613 142.2632744  91.7736686  84.2615319 141.3830123  91.5911791
  84.9441984 142.2080412  92.6613075  87.7044436 142.5505714  92.1412163
  88.0440509 143.0791635  91.4190772  88.1516556 142.8886120  92.9170730
  90.3987877 140.9342764 101.5915231  90.0584697 140.1350577 101.9935911
  89.6926883 141.2344475 101.0192064  91.0504349 138.0192077 100.0442554
  91.8730418 137.5452555  99.9221445  91.2942412 138.7982560 100.5441241
  89.6912583 141.0480335  90.3405456  90.4120946 141.4261588  89.8369173
  89.0677887 141.7669212  90.4440434  93.8343706 141.7525484  91.2763788
  94.0507320 142.6350122  90.9752616  93.3537773 141.3611697  90.5469430
  88.5742927 144.7111197  97.8534533  88.4287508 145.0251500  98.7458814
  88.0968131 145.3296098  97.3005432  90.4339310 141.7013745  97.9015422
  90.4200879 140.8054839  97.5647720  91.1511738 141.7084409  98.5353708
  92.2865441 142.1351086  99.9468550  92.0283219 143.0568156  99.9452880
  91.7550481 141.7381520 100.6369014  83.0488590 147.2516542 100.7922194
  82.5042058 148.0276350 100.9242468  83.9267939 147.5987346 100.6341315
  89.8376206 140.5828126  93.1702993  89.9592117 139.6544772  93.3693880
  89.5478249 140.5966812  92.2581308  92.7067397 138.2683036  96.3069712
  92.7289093 138.3322369  95.3521692  93.1235456 137.4287545  96.5010219
  83.8354611 146.3786438 103.6852351  83.0936347 146.5269073 104.2716981
  83.5147356 146.6394704 102.8219100  89.3217286 142.0960123 107.3792925
  89.3705441 142.9722246 106.9970695  89.8639800 141.5537516 106.8064568
  91.5516574 142.8491495 104.1339284  90.6819884 143.1425061 103.8621872
  91.7876055 143.4331940 104.8546547  86.5658898 148.1947436  92.2679949
  86.3204940 147.2909766  92.4660159  86.7354813 148.1964586  91.3259427
  94.2555608 139.0671112 101.6504704  94.7737552 139.8032139 101.3251193
  93.9010741 139.3735106 102.4851463  85.8354546 143.9275793  89.7666110
  85.1423791 144.0020148  89.1106146  85.5906298 143.1636137  90.2887627
  94.5068202 135.4871395  97.1705601  94.7869956 134.8194584  97.7966027
  95.2918809 135.6800490  96.6580265  98.3777061 143.9089029 100.9177176
  99.3294483 144.0087126 100.9389400  98.2080511 143.1167297 101.4275260
  96.3991440 140.9944612 101.1036577  95.8041372 141.2749625 100.4083065
  96.1141137 141.4838513 101.8753318 100.8565138 147.1295148 100.0319476
 100.8241458 146.1911149 100.2179159 101.4665762 147.2079185  99.2985300
  92.6948469 145.9991201  86.0746680  93.6407574 145.8697410  86.1435098
  92.3162714 145.2605863  86.5516108 101.0059627 143.9206192 100.0777759
 100.4898675 143.1364649  99.8907688 101.8899575 143.5924909 100.2424278
  98.6670354 137.6647207  96.0373571  98.4695175 137.3562296  96.9216903
  99.2770059 138.3908846  96.1671501  90.8791386 143.9241178  86.0101565
  89.9722842 143.6274291  86.0864278  91.1567367 143.6270996  85.1435851
  81.7969327 145.2447541  96.4600611  81.4772111 144.3912849  96.1674985
  81.2502755 145.4596119  97.2158579  85.5749234 147.9609982 100.1770118
  85.7935244 148.8927090 100.1958152  85.9875008 147.6017957 100.9624922
  92.4953452 138.4678068  92.1645806  91.6854180 138.1225153  92.5401052
  93.1837869 138.1585611  92.7533418  94.4244000 137.5456114  93.7870103
  94.9775039 137.9651568  94.4460126  94.6614087 136.6191862  93.8293059
  89.6490171 140.7828113  86.1513544  90.5109335 141.1083011  86.4109361
  89.8340515 139.9959609  85.6386610  81.6657587 148.8650453  98.4293733
  80.9721058 148.4504406  97.9163687  82.4130578 148.9070989  97.8327152
  97.8022807 139.6556640  93.2948767  97.2221477 140.3141444  92.9126819
  97.5358740 138.8333984  92.8836185  96.2526374 139.0561697  95.4970087
  96.7526152 139.1678232  94.6884406  96.8961982 138.7522750  96.1370896
  83.5794329 148.7968707  96.3059748  83.5565017 148.8956394  95.3541631
  83.8894966 149.6433857  96.6276914  86.8281089 149.4245978 102.9877160
  87.6473978 149.9190056 103.0111997  87.1017897 148.5077946 102.9594727
  96.5847685 141.8156730  92.3505115  95.6973541 142.1006381  92.1325310
  97.0001675 141.6550493  91.5032392  99.9362222 141.8403251  96.0659455
 100.7122612 142.3299703  96.3384071  99.2110356 142.2661305  96.5231324
 102.3734780 142.5530870  97.1233395 102.9679271 142.3126606  96.4126703
 102.4461364 141.8338001  97.7506931  95.7290899 151.5801405  86.4453135
  96.4326749 151.7851407  87.0610791  95.0053548 152.1478166  86.7102219
  96.5588709 147.3311266  92.5655405  96.5023911 147.7879817  91.7263038
  97.1117052 146.5701950  92.3878248 100.3693515 143.1200998  93.3905525
 100.1130449 142.7197633  94.2213733  99.7446383 143.8344792  93.2655664
 104.6805853 145.8597071  95.8976816 104.1205411 145.9290260  96.6708378
 104.0749356 145.6838056  95.1776313  97.2923489 148.5216047  89.8607935
  97.2372292 148.3560319  88.9196379  96.6669544 149.2292080  90.0170124
  82.0816004 143.7584111 103.6869357  82.7274867 143.2483065 104.1756582
  81.8733155 144.4952793 104.2612782  90.6019614 138.0224156  89.4393253
  90.5898284 138.9665996  89.5961524  91.4943036 137.8394302  89.1452714
  94.4171733 134.6166933  93.6939190  93.6504129 134.0625419  93.8395872
  94.8282438 134.6888801  94.5553341  86.4213495 140.9051729 107.7844371
  87.2844956 140.5488533 107.9947696  85.8478905 140.5665623 108.4719775
  19.5511837  16.9080366  85.3152079  20.1890247  16.7887113  84.6115419
  19.4332680  17.8561210  85.3740031  16.3601543  16.8607794  85.2513603
  16.0220055  16.7448859  84.3634138  17.2291311  16.4598959  85.2314610
  12.2188359  18.7143271  81.2410494  11.6553224  18.6233208  80.4726782
  12.1040754  17.8943175  81.7212987  16.8421326  18.0142646  91.2099809
  16.8309967  17.6195444  90.3380313  17.0041966  17.2808719  91.8033580
   9.7652791  20.2094462  84.0794715  10.5574083  19.8685287  83.6641014
  10.0049441  20.3189437  84.9996868  17.7987917  22.3814238  76.5524959
  17.1475897  22.9668319  76.1658973  18.5932280  22.9120433  76.6119997
  11.7243545  19.4703375  76.9512094  12.4974421  18.9232363  76.8124969
  12.0768944  20.3347625  77.1626555  13.5628587  20.7979758  90.1578993
  13.2718453  21.7025389  90.0425659  14.1985572  20.8396285  90.8723062
  14.4884794  18.1756606  86.7480353  15.0848366  17.9512629  86.0337316
  14.5459766  17.4341352  87.3505800  14.0609822  15.6296042  74.5830544
  14.3135343  15.1077563  73.8214007  13.1234382  15.4662187  74.6857227
  19.1053105  14.6331820  82.3905287  19.8916195  14.2151243  82.0395704
  19.3691810  15.5377912  82.5586935  19.2763183  20.0704670  77.0893944
  18.6409016  20.1439297  77.8014848  18.9460589  20.6598269  76.4113023
  24.5061532  14.5707053  83.2938265  25.2386704  14.0006270  83.5276095
  23.7500888  14.1828654  83.7344771  13.7806111  17.5324148  76.7854918
  13.6642369  16.8569051  77.4536003  13.8908371  17.0456521  75.9687072
  16.1237652  16.9934295  80.4901608  15.7595859  16.4664916  81.2014529
  16.9804768  16.6032764  80.3168093  22.0286953   8.2828627  87.7532874
  21.6970278   9.1524038  87.5294089  21.4332566   7.9664911  88.4326904
  15.7643139  12.0224194  75.4862956  15.9317541  12.8904431  75.8533427
  15.5740308  12.1851476  74.5624245  18.5218472  20.4841173  87.1528787
  18.2219195  21.3866212  87.0444594  18.1769532  20.2173356  88.0049939
  11.9730954  16.9354970  83.1865491  11.0481450  16.8031184  83.3943183
  12.2215367  17.7149189  83.6835433  21.9215616  13.0023713  84.8326224
  21.0132493  12.9339122  84.5384985  21.8703212  13.4795658  85.6608049
  15.7432360  14.4781852  76.4709623  15.6231985  14.9238903  77.3095103
  15.0484948  14.8267170  75.9123161   9.3339765  16.5788244  84.0209280
   9.4632146  16.8322723  84.9348692   8.6537216  17.1715952  83.7013935
  13.5039252  27.2485494  80.1199754  13.4263282  28.1993319  80.1988235
  12.9000896  26.9031366  80.7774681  15.9956482  14.4213359  92.7761121
  15.2189816  14.9807279  92.7663986  16.6347045  14.9070142  93.2975991
  23.7877262  11.2040152  86.6104098  23.1451643  11.4972685  85.9643892
  23.2832191  11.0893072  87.4157295  21.4417426  14.9503325  77.2989957
  22.3535282  15.1830712  77.1237655  20.9327073  15.5340369  76.7365036
  14.2502854  17.2298812  92.3379088  14.9917539  17.7683856  92.0613912
  13.5439840  17.8565101  92.4950640  19.7258194  19.3727953  90.9351250
  20.1341550  18.9310363  90.1905882  19.0035455  18.7980580  91.1885443
  16.0789264  14.3100560  88.3084807  16.9250459  14.7339973  88.4519456
  16.0187902  13.6534184  89.0023370  20.0487008  19.9329143  84.6903539
  19.4195871  20.0974858  83.9879606  19.6612671  20.3470753  85.4614503
  23.9276240  20.8683581  82.0447902  23.2427279  21.2482483  81.4944936
  24.0120090  21.4778908  82.7779850  19.2288709  11.9704928  89.9665980
  18.9849641  12.7246988  89.4300256  19.5048640  12.3490276  90.8013227
  21.1827172  18.5143540  88.6443246  21.3944067  19.1575300  87.9677627
  21.1356920  17.6805857  88.1765176  18.7853401  11.1261361  85.5479818
  17.9237880  11.4242615  85.8396556  18.8115836  11.3431760  84.6160851
  15.6014970  19.6703552  81.9553624  16.0653316  19.9491255  81.1658246
  15.3371768  18.7686996  81.7726714  12.4939051  19.2175033  84.8933387
  13.0640408  19.6462301  84.2550871  13.0847163  18.9357618  85.5917573
  14.5383856  15.7926704  78.7643189  15.2407900  16.2447748  79.2317115
  14.2064485  15.1510523  79.3923082  12.9864218  14.3838461  93.1394398
  12.3562878  15.0654741  93.3729795  12.8800306  14.2721542  92.1947536
  22.2973000  21.3915496  86.8165603  23.1190444  20.9895683  86.5348285
  22.2935403  21.2883730  87.7681719  16.0629603  20.9399539  88.9726314
  16.1274036  21.4019946  89.8084486  15.3540527  20.3096904  89.1008624
  30.3878993  17.7354244  83.1650575  29.6342701  17.1661642  83.0094579
  30.5226534  17.7016909  84.1121209  15.7777621  22.6067647  78.8405294
  15.6423296  23.4519182  79.2690142  16.3187434  22.8086924  78.0771228
   9.2307018  20.1243085  79.4133219   9.7431539  20.9186335  79.5638784
   9.8829731  19.4269375  79.3466821  11.0401903  23.2408841  81.4955972
  11.2168531  24.1626806  81.3076956  11.8358737  22.9267260  81.9250352
  10.3254260  15.2873473  91.3718136  10.2107775  14.3858730  91.6725234
   9.4698777  15.5337170  91.0202952  17.4046097  23.2291213  92.9705636
  16.9609952  22.4427592  92.6526541  18.0663311  23.4170364  92.3049527
  12.1633219  24.7587015  87.4966315  12.7140644  24.6304078  86.7243309
  11.3244694  25.0581904  87.1461207  19.5027335  23.5094013  90.9987037
  19.4845811  24.3302894  90.5067307  20.4247256  23.3848088  91.2237179
  15.9600390  21.0238142  91.8410546  16.4928726  20.2626431  91.6109854
  15.4314471  20.7311794  92.5834700   7.1955935  18.4531739  80.1892790
   8.0331157  18.8628747  79.9726497   7.3734203  17.5131181  80.1592984
  19.0920367  16.1206820  75.8776623  18.5766991  16.8911424  76.1165010
  18.8197676  15.4471956  76.5009684  16.6767478  10.9656520  80.9361861
  15.8209075  10.5763371  80.7567500  17.0894430  11.0448481  80.0761647
  24.0654641  18.8739174  77.8129796  23.2884084  18.5350334  77.3684958
  24.7446122  18.8791797  77.1384761  18.8806670  13.9933912  77.7036404
  18.5756806  14.3080061  78.5546547  19.8337113  14.0715332  77.7463737
  17.3253102  20.1524135  79.3529358  16.7974464  19.4176895  79.0402595
  16.8240605  20.9298811  79.1069326  22.3045948  18.3473155  84.4696404
  21.6469623  19.0372417  84.5576533  23.1086348  18.7369587  84.8130390
  21.1151407  16.7017528  82.5200346  21.6283289  17.3347520  83.0222056
  21.7652631  16.1018724  82.1543706  12.3841417  12.8448262  75.7331855
  11.5478729  13.1822949  76.0541129  12.2446187  12.7097242  74.7958992
  15.4705702  17.9704345  72.3564331  14.5632764  17.7393599  72.5555480
  15.9676734  17.1741964  72.5438312  18.3773781  26.6801852  75.2761017
  17.7035480  26.9833549  75.8845975  18.7639603  27.4830933  74.9266474
  17.5932238  14.1766984  84.7658686  16.6754799  14.3981931  84.6080374
  18.0092382  14.2513294  83.9070394  18.3767286  15.5758399  79.8961367
  19.1239105  16.0879797  79.5868489  18.6458875  15.2542452  80.7565760
  16.6493936  18.0716940  76.8788321  15.7405155  17.7875973  76.9760791
  16.6789020  18.4916019  76.0191628  21.8813203  21.6823530  80.6479488
  21.4275530  20.8414439  80.7044679  21.2507170  22.3184928  80.9854269
  20.8246123  12.6115516  81.8780156  20.0868880  12.0992902  82.2090398
  21.0772896  12.1715897  81.0663433  20.3246143  23.5200026  81.5829307
  20.6169117  24.0805083  80.8641672  20.8344763  23.8128587  82.3382466
  15.1978830  15.6845561  82.9798116  15.2527440  14.7319397  82.9040593
  14.3870032  15.8405000  83.4639415  16.3470024  19.6125684  74.2176399
  15.9089454  18.8961543  73.7582037  17.0880465  19.8401799  73.6561491
  13.1371190  14.3022620  80.7388495  12.3239055  14.6016791  81.1453687
  13.6330184  13.9078309  81.4562977  15.2879768  24.2980377  82.6722760
  15.2455947  24.5241224  81.7431292  16.2042467  24.0643752  82.8208561
  18.7345402  14.7664445  89.5703389  19.0894789  14.9935918  90.4297855
  19.3817533  15.0982822  88.9480644  24.4643139  17.8882881  80.2752718
  24.3261037  18.0784477  79.3473907  24.1079357  18.6502264  80.7320769
  24.4912518  19.9559408  85.2863990  24.9249025  19.8634697  86.1347044
  25.2044099  19.9316908  84.6484006  13.4045569  21.1743406  82.4684723
  14.1986167  20.6793726  82.2667297  12.6937261  20.6461269  82.1052428
  18.2240413  23.5561502  86.8197090  18.2777435  24.1252438  87.5874806
  17.3555194  23.7263387  86.4551127   9.7128332  15.3186488  78.5444475
   8.7825920  15.2570944  78.7614437   9.8085804  14.7962441  77.7481116
  25.3528068  19.9983108  87.8196875  25.5463958  20.9028919  88.0656150
  25.2528686  19.5390528  88.6535460  17.0064378   9.8840999  90.3187202
  16.3592293  10.5830949  90.2251679  17.7765394  10.3177143  90.6863450
  20.4143176  20.1489851  93.3937756  20.2628683  19.9200403  92.4767839
  20.4047856  21.1060453  93.4069101  17.1828513  17.7221764  88.3784022
  18.1120573  17.8732924  88.2052989  16.7619543  17.8105785  87.5232669
  15.9816845  21.7472428  86.1482560  15.8427930  21.3791213  87.0208498
  15.1931441  22.2620068  85.9766517  16.5764997  26.8481525  77.4908096
  16.7516752  26.3769568  78.3053719  15.8897785  27.4747291  77.7189357
  17.5322060  21.1254031  83.5371397  17.1971892  21.0854801  84.4329047
  17.0326005  20.4598747  83.0641808  11.5066304  16.5321661  89.0623979
  11.3686102  15.8001900  89.6635518  12.4171227  16.4430561  88.7808166
  20.4681251  18.4710065  73.8108457  19.8510422  17.7456894  73.7141510
  19.9997740  19.2319426  73.4675531  14.1348604  16.2441620  88.5507658
  14.8448223  15.6034813  88.5094277  14.0917912  16.4954515  89.4733839
  22.1235383  23.1808974  91.4714237  22.0647929  22.4968194  90.8044820
  22.5254901  23.9227964  91.0194863  12.8477538  13.2306838  90.3703298
  12.3114895  12.7797577  91.0224894  12.2594247  13.3652747  89.6273762
  11.1426082  29.9970888  84.2647956  11.3822680  30.6289412  84.9426975
  10.2995278  29.6458928  84.5513316  22.1252790  21.1448558  89.7028217
  21.2379569  20.8074479  89.8254616  22.6951341  20.4131589  89.9396982
  15.6553944  25.8050010  86.6689460  15.5824115  26.6104982  87.1808765
  15.2131337  26.0041976  85.8437482  15.4443723  25.0421780  80.1792282
  14.6611245  25.5843460  80.2730506  16.1436468  25.5595760  80.5786523
  18.7540373  10.8516410  82.8226487  19.2509073  10.0986372  82.5027557
  17.9827355  10.8880726  82.2569697  26.6070131  16.5556775  84.4644779
  26.5960007  17.4381490  84.0938712  25.7387510  16.2028326  84.2699316
  18.1152627  25.7036844  88.8247619  18.8280599  26.3384309  88.7523520
  17.6242656  25.8000710  88.0087621  19.8370154  19.6088097  80.3964911
  18.9026433  19.7289559  80.2269615  20.0146823  18.7060564  80.1324920
  15.3375342  12.9933793  82.5498172  14.9673130  12.4404833  83.2379077
  15.8334435  12.3891926  81.9973172  23.2242705  15.4505416  80.9314945
  23.6903158  16.2833408  80.8575247  23.6750206  14.9850398  81.6360203
  13.1664541  23.4531288  89.6453190  13.8674000  24.0867770  89.7982584
  12.6959656  23.7946019  88.8848829  21.2918937  21.7949237  77.9301097
  21.5678780  21.6805832  78.8394971  20.4223435  21.3966722  77.8913270
  21.1959368   7.8186003  84.9705846  20.2822448   8.0490230  85.1388053
  21.6252470   7.9024447  85.8219878  20.9665827  16.0075895  87.4705740
  20.3137277  16.2551802  86.8158193  21.3446207  15.1940033  87.1368217
  17.9273001  26.0435588  81.5733910  18.1095395  25.2257244  82.0361663
  18.7505987  26.2603280  81.1358800  18.2615166  24.9703773  78.8348959
  18.7902932  24.4596228  78.2219121  18.5243386  24.6546303  79.6994492
  17.0153400  16.7495706  93.9571777  16.3394037  16.6489835  94.6274152
  17.8381034  16.5934920  94.4207774   8.7632259  22.9867643  86.5784292
   9.3485696  22.2411330  86.7112197   8.5657097  23.2971599  87.4620956
  11.6170914  26.0218890  81.5946735  10.9481289  26.5065018  81.1110775
  11.4783784  26.2688110  82.5090113  15.7576183  28.0562633  88.1929393
  16.3094491  28.2194255  88.9578478  16.0982376  28.6467071  87.5209418
  20.6087057  22.8823891  94.0478048  21.1526961  23.4953849  93.5533002
  20.0273902  23.4403469  94.5645061  18.8944570  26.0044609  85.1793075
  18.7695709  25.2034349  84.6704021  19.5523661  26.4990802  84.6907045
  20.9579478  23.8053629  86.8072625  20.0109814  23.6858980  86.7350952
  21.3062251  22.9176127  86.8898887  17.9625912  23.6006345  83.0076978
  17.8150874  22.6723053  83.1884548  18.7879405  23.6226436  82.5234053
  21.5660033  24.4234904  84.0941850  22.4906581  24.2177765  83.9566302
  21.3975337  24.1751305  85.0031192  17.9587426  11.4544183  78.0009095
  18.1751040  12.3368821  77.6997923  17.4781493  11.0630396  77.2714737
  12.6986647  14.4129896  84.5779840  12.5531228  14.7270199  85.4704121
  12.2211851  15.0314797  84.0250738  16.4109161  11.8369784  86.6713857
  16.1526939  12.7586855  86.6698187  15.8794201  11.4400219  87.3614321
  21.3555350  24.9420571  79.4503942  21.5292227  24.3766994  78.6977794
  21.8484241  25.7421466  79.2683432   7.1732309  16.9535241  87.5167501
   6.6285777  17.7295049  87.6487775   8.0511659  17.3006045  87.3586622
  27.2094741  17.7056994  81.0694242  27.6525887  16.9564320  80.6713365
  26.3321251  17.6967131  80.6867974  22.3430522  24.2587336  76.5500840
  23.0381427  24.8794029  76.7688155  22.6853672  23.4082687  76.8253218
   7.9598331  16.0805137  90.4097658   7.2180067  16.2287772  90.9962288
   7.6391076  16.3413402  89.5464407  24.2421945  21.7087041  78.0788171
  24.7673269  22.0474314  77.3537491  24.1544298  20.7734057  77.8951306
  15.9041994  25.6221115  90.2078048  16.2129120  25.3770262  91.0800747
  16.7017476  25.8267754  89.7196918  15.9262606  27.7759025  82.4383424
  15.4867596  27.2835403  83.1316281  16.6770723  27.2331992  82.1975499
   8.4054945  23.9670566  82.4408052   9.2312965  23.6674337  82.0606696
   8.0548997  23.1978188  82.8897841  13.3736478  23.3197034  84.5105726
  12.7516487  22.6567739  84.2107954  14.0441345  23.3458166  83.8279374
   6.6063550  21.8856892  83.3996986   5.7695458  21.4579066  83.2180987
   6.5787195  22.0789335  84.3367777  23.9315851  22.3419945  93.3839369
  23.1411395  22.3244084  92.8443868  23.6949206  22.8808239  94.1388405
  24.0513726  19.1912411  90.6972097  24.1011731  19.0262419  91.6387620
  23.9427650  18.3239670  90.3069978  12.9349985  21.8700957  77.9864186
  13.0838105  22.5536422  77.3330859  13.7416428  21.8506047  78.5013642
  21.3417489  15.1743339  92.0131404  22.2427351  15.0349804  91.7215402
  21.4165463  15.3397794  92.9529582  15.6760294  12.5510194  90.8584590
  14.8063603  12.8443760  90.5867179  15.9119774  13.1350639  91.5791854
  25.5531923  21.6109353  90.9414119  25.2616731  21.9739333  91.7777580
  24.9404054  20.8976361  90.7627451  26.7527605  19.1762233  83.4616689
  27.5874497  19.6152037  83.6254250  26.8886734  18.7000886  82.6424935
  23.8019111  16.7341968  89.4094177  24.2773233  16.9269614  88.6013028
  22.8784677  16.7901153  89.1637561  10.6902618  17.8966135  78.9925255
  10.4448660  16.9928465  79.1905465  10.8598533  17.8983285  78.0504733
  18.3799328   8.7689811  88.3750011  18.8981272   9.5050838  88.0496499
  18.0254461   9.0753804  89.2096770  16.4345391  24.3649088  75.4575934
  15.8619358  24.9839275  75.0046406  17.0078184  24.9148449  75.9915856
  22.5020780  13.6107728  87.6422483  23.4538203  13.7105825  87.6634707
  22.3324231  12.8185996  88.1520567  20.5235160  10.6963311  87.8281883
  19.9285092  10.9768324  87.1328372  20.2384857  11.1857212  88.5998625
  19.6542650  24.6486238  76.5884516  20.5873323  24.5831799  76.7917392
  19.5665863  25.4842505  76.1299049  22.2830667  23.9652108  73.5488464
  22.2044299  23.6311972  74.4424222  23.1040334  24.4573876  73.5479936
  24.9808858  16.8313847  86.7564782  24.9485178  15.8929848  86.9424466
  25.5909482  16.9097884  86.0230607  16.8192189  15.7009900  72.7991986
  17.7651294  15.5716108  72.8680404  16.4406434  14.9624562  73.2761414
  25.1303347  13.6224891  86.8023065  24.6142395  12.8383347  86.6152994
  26.0143295  13.2943607  86.9669585  22.7914074   7.3665906  82.7618878
  22.5938895   7.0580995  83.6462210  23.4013779   8.0927545  82.8916808
  30.7985408  17.8929854  85.8970819  31.5288797  17.6315142  86.4578522
  30.1892354  17.1558576  85.9372887  28.8800705  16.0337717  86.4945270
  28.1533869  15.8993682  85.8861762  28.4647992  16.3414545  87.3001988
  16.7030882  19.7527646  94.2592643  17.6233891  19.9306245  94.4532690
  16.6680465  18.8083692  94.1072342  15.0035106  13.6259877  72.7346871
  14.0966562  13.3292989  72.8109585  15.2811087  13.3289695  71.8681158
   9.6992954  17.6628681  86.9015424   9.9178964  18.5945789  86.9203458
  10.1118728  17.3036656  87.6870228  14.5720819  13.2361887  96.2918173
  14.4717546  14.1856244  96.2230264  14.3542361  12.9080126  95.4194243
   5.7901307  18.5669152  85.1539039   5.0964778  18.1523104  84.6408994
   6.5374298  18.6089688  84.5572458  21.9266527   9.3575338  80.0194074
  21.3465196  10.0160142  79.6372126  21.6602460   8.5352683  79.6081491
  20.3770094   8.7580396  82.2215394  20.8769872   8.8696931  81.4129713
  21.0205702   8.4541449  82.8616202  14.4352090  16.6659026  95.1083235
  13.9519171  17.4659386  95.3147124  14.5213029  16.6766971  94.1550679
   7.7038049  18.4987405  83.0305054   7.6808737  18.5975093  82.0786937
   8.0138686  19.3452556  83.3522220  10.3625427  20.5563560  87.1451669
  11.3168681  20.5247503  87.0781600  10.1637951  20.0954184  87.9601895
  10.9524809  19.1264676  89.7122466  11.7717698  19.6208755  89.7357304
  11.2261617  18.2096645  89.6840034  20.7091405  11.5175429  79.0750422
  19.8217260  11.8025079  78.8570617  21.1245394  11.3569192  78.2277699
  24.0605941  11.5421950  82.7904761  24.8366332  12.0318402  83.0629378
  23.3354076  11.9680004  83.2476631  26.4978500  12.2549569  83.8478702
  27.0922991  12.0145305  83.1372010  26.5705084  11.5356700  84.4752238
   8.7175656  26.0983180  84.1621867   8.5830124  25.3383581  83.5959865
   8.3007718  26.8224080  83.6950656  19.8534619  21.2820103  73.1698442
  20.5570469  21.4870106  73.7856098  19.1297268  21.8496865  73.4347525
  20.6832429  17.0329965  79.2900712  20.6267630  17.4898516  78.4508345
  21.2360772  16.2720649  79.1123555  24.4937235  12.8219697  80.1150832
  24.2374169  12.4216332  80.9459039  23.8690103  13.5363491  79.9900971
  28.8049573  15.5615770  82.6222123  28.2449131  15.6308959  83.3953685
  28.1993076  15.3856754  81.9021619  11.8744782  26.9952497  84.3740309
  11.7577166  27.9397929  84.2719000  11.0537228  26.6926058  84.7626108
  21.7621316  21.7202633  75.2196902  22.5966920  21.2883831  75.0374377
  21.6005659  21.5484646  76.1473796  21.4167208  18.2234746  76.5853241
  21.3616012  18.0579017  75.6441685  20.7913264  18.9310779  76.7415431
  18.7313116  20.5283658  95.9106804  19.6004275  20.7024310  95.5493439
  18.2519867  21.3478075  95.7882533  12.8999296  27.6480759  87.5896238
  13.8026542  27.6804369  87.9062733  12.6736666  26.7181210  87.6042573
  14.6552898  26.4011745  84.2506316  13.7048529  26.4013607  84.1370689
  14.9585384  25.6544480  83.7342351  30.3905591  32.2372284  85.3152079
  31.0284001  32.1179031  84.6115419  30.2726434  33.1853128  85.3740031
  27.1995298  32.1899712  85.2513603  26.8613809  32.0740777  84.3634138
  28.0685066  31.7890877  85.2314610  23.0582113  34.0435188  81.2410494
  22.4946978  33.9525125  80.4726782  22.9434508  33.2235093  81.7212987
  27.6815081  33.3434564  91.2099809  27.6703721  32.9487362  90.3380313
  27.8435720  32.6100636  91.8033580  20.6046545  35.5386380  84.0794715
  21.3967837  35.1977205  83.6641014  20.8443195  35.6481355  84.9996868
  28.6381672  37.7106156  76.5524959  27.9869652  38.2960236  76.1658973
  29.4326035  38.2412351  76.6119997  22.5637299  34.7995293  76.9512094
  23.3368175  34.2524280  76.8124969  22.9162698  35.6639542  77.1626555
  24.4022342  36.1271675  90.1578993  24.1112208  37.0317306  90.0425659
  25.0379326  36.1688203  90.8723062  25.3278549  33.5048524  86.7480353
  25.9242121  33.2804546  86.0337316  25.3853520  32.7633269  87.3505800
  24.9003577  30.9587959  74.5830544  25.1529098  30.4369481  73.8214007
  23.9628136  30.7954105  74.6857227  29.9446860  29.9623738  82.3905287
  30.7309949  29.5443161  82.0395704  30.2085564  30.8669830  82.5586935
  30.1156937  35.3996588  77.0893944  29.4802770  35.4731214  77.8014848
  29.7854344  35.9890187  76.4113023  35.3455287  29.8998971  83.2938265
  36.0780459  29.3298188  83.5276095  34.5894643  29.5120571  83.7344771
  24.6199866  32.8616065  76.7854918  24.5036124  32.1860969  77.4536003
  24.7302126  32.3748439  75.9687072  26.9631407  32.3226212  80.4901608
  26.5989614  31.7956833  81.2014529  27.8198523  31.9324681  80.3168093
  32.8680707  23.6120545  87.7532874  32.5364032  24.4815956  87.5294089
  32.2726321  23.2956829  88.4326904  26.6036894  27.3516112  75.4862956
  26.7711296  28.2196348  75.8533427  26.4134063  27.5143394  74.5624245
  29.3612227  35.8133091  87.1528787  29.0612950  36.7158130  87.0444594
  29.0163286  35.5465274  88.0049939  22.8124708  32.2646888  83.1865491
  21.8875205  32.1323102  83.3943183  23.0609121  33.0441107  83.6835433
  32.7609371  28.3315631  84.8326224  31.8526248  28.2631040  84.5384985
  32.7096966  28.8087576  85.6608049  26.5826114  29.8073769  76.4709623
  26.4625740  30.2530820  77.3095103  25.8878703  30.1559087  75.9123161
  20.1733519  31.9080161  84.0209280  20.3025900  32.1614640  84.9348692
  19.4930971  32.5007869  83.7013935  24.3433007  42.5777411  80.1199754
  24.2657036  43.5285236  80.1988235  23.7394650  42.2323284  80.7774681
  26.8350236  29.7505277  92.7761121  26.0583570  30.3099197  92.7663986
  27.4740799  30.2362060  93.2975991  34.6271017  26.5332069  86.6104098
  33.9845397  26.8264603  85.9643892  34.1225945  26.4184990  87.4157295
  32.2811181  30.2795243  77.2989957  33.1929037  30.5122629  77.1237655
  31.7720828  30.8632287  76.7365036  25.0896609  32.5590730  92.3379088
  25.8311293  33.0975774  92.0613912  24.3833594  33.1857019  92.4950640
  30.5651948  34.7019871  90.9351250  30.9735304  34.2602281  90.1905882
  29.8429210  34.1272498  91.1885443  26.9183018  29.6392477  88.3084807
  27.7644214  30.0631891  88.4519456  26.8581656  28.9826102  89.0023370
  30.8880763  35.2621061  84.6903539  30.2589625  35.4266775  83.9879606
  30.5006425  35.6762671  85.4614503  34.7669995  36.1975499  82.0447902
  34.0821033  36.5774400  81.4944936  34.8513844  36.8070826  82.7779850
  30.0682464  27.2996846  89.9665980  29.8243396  28.0538906  89.4300256
  30.3442394  27.6782193  90.8013227  32.0220926  33.8435458  88.6443246
  32.2337822  34.4867218  87.9677627  31.9750675  33.0097775  88.1765176
  29.6247155  26.4553279  85.5479818  28.7631634  26.7534532  85.8396556
  29.6509590  26.6723678  84.6160851  26.4408725  34.9995469  81.9553624
  26.9047070  35.2783172  81.1658246  26.1765523  34.0978914  81.7726714
  23.3332806  34.5466951  84.8933387  23.9034163  34.9754219  84.2550871
  23.9240918  34.2649535  85.5917573  25.3777611  31.1218622  78.7643189
  26.0801654  31.5739665  79.2317115  25.0458239  30.4802440  79.3923082
  23.8257972  29.7130378  93.1394398  23.1956633  30.3946659  93.3729795
  23.7194060  29.6013460  92.1947536  19.1202945  29.3802174  84.0660322
  18.3301999  29.6359703  83.5900433  19.6114192  30.1950512  84.1712363
  33.1366754  36.7207413  86.8165603  33.9584198  36.3187601  86.5348285
  33.1329157  36.6175648  87.7681719  21.0717690  29.7446754  81.0243799
  20.2748853  29.8565448  81.5427295  20.8443282  30.0833406  80.1584690
  26.9023358  36.2691457  88.9726314  26.9667790  36.7311864  89.8084486
  26.1934282  35.6388822  89.1008624  17.4040648  29.6332665  86.4975313
  17.6548686  30.5179675  86.7632889  17.9400196  29.4537266  85.7250405
  41.2272747  33.0646162  83.1650575  40.4736456  32.4953560  83.0094579
  41.3620289  33.0308826  84.1121209  26.6171375  37.9359564  78.8405294
  26.4817050  38.7811100  79.2690142  27.1581188  38.1378842  78.0771228
  23.1038715  24.0151144  95.5019649  22.7105661  23.4617343  96.1767293
  23.9204855  24.3261723  95.8926167  20.0700773  35.4535002  79.4133219
  20.5825293  36.2478253  79.5638784  20.7223486  34.7561293  79.3466821
  21.8795658  38.5700759  81.4955972  22.0562286  39.4918723  81.3076956
  22.6752491  38.2559178  81.9250352  26.0206676  25.4309023  93.0939906
  26.7616389  26.0316176  93.0144368  26.2524599  24.6886661  92.5357948
  21.1648014  30.6165390  91.3718136  21.0501529  29.7150648  91.6725234
  20.3092532  30.8629087  91.0202952  28.2439852  38.5583131  92.9705636
  27.8003706  37.7719509  92.6526541  28.9057065  38.7462281  92.3049527
  23.0026973  40.0878932  87.4966315  23.5534398  39.9595996  86.7243309
  22.1638449  40.3873821  87.1461207  30.3421090  38.8385931  90.9987037
  30.3239565  39.6594812  90.5067307  31.2641010  38.7140006  91.2237179
  26.7994144  36.3530060  91.8410546  27.3322481  35.5918348  91.6109854
  26.2708225  36.0603712  92.5834700  29.9663839  21.4590126  87.3704188
  29.6228108  22.3491768  87.2943298  30.3342802  21.2691784  86.5073773
  18.0349690  33.7823657  80.1892790  18.8724912  34.1920665  79.9726497
  18.2127957  32.8423099  80.1592984  29.9314122  31.4498737  75.8776623
  29.4160745  32.2203342  76.1165010  29.6591430  30.7763873  76.5009684
  27.5161233  26.2948438  80.9361861  26.6602829  25.9055288  80.7567500
  27.9288185  26.3740399  80.0761647  29.0460379  23.8294781  85.3353421
  28.5425175  23.7924916  84.5221226  29.3390986  24.7387524  85.3950077
  25.2903265  23.9133511  84.3419602  26.1556262  23.7176320  83.9825492
  25.3580774  23.6843863  85.2688959  34.9048396  34.2031092  77.8129796
  34.1277839  33.8642251  77.3684958  35.5839877  34.2083715  77.1384761
  29.7200425  29.3225829  77.7036404  29.4150561  29.6371978  78.5546547
  30.6730867  29.4007249  77.7463737  28.1646857  35.4816053  79.3529358
  27.6368218  34.7468812  79.0402595  27.6634360  36.2590729  79.1069326
  33.1439703  33.6765073  84.4696404  32.4863377  34.3664334  84.5576533
  33.9480102  34.0661505  84.8130390  22.8965584  26.1435719  81.7135969
  23.4709336  25.9210900  80.9809162  23.4836567  26.2124413  82.4664571
  31.9545162  32.0309446  82.5200346  32.4677043  32.6639438  83.0222056
  32.6046386  31.4310641  82.1543706  23.2235172  28.1740180  75.7331855
  22.3872484  28.5114866  76.0541129  23.0839941  28.0389160  74.7958992
  25.1988252  23.0176968  80.4411039  24.5452664  22.7025985  79.8167653
  25.1568726  22.3952708  81.1670862  26.3099457  33.2996263  72.3564331
  25.4026519  33.0685516  72.5555480  26.8070489  32.5033882  72.5438312
  29.2167536  42.0093770  75.2761017  28.5429235  42.3125467  75.8845975
  29.6033358  42.8122850  74.9266474  28.4325992  29.5058901  84.7658686
  27.5148554  29.7273848  84.6080374  28.8486136  29.5805212  83.9070394
  29.2161040  30.9050317  79.8961367  29.9632859  31.4171714  79.5868489
  29.4852630  30.5834370  80.7565760  27.4887690  33.4008858  76.8788321
  26.5798910  33.1167891  76.9760791  27.5182774  33.8207936  76.0191628
  32.7206958  37.0115447  80.6479488  32.2669285  36.1706357  80.7044679
  32.0900925  37.6476846  80.9854269  31.6639877  27.9407433  81.8780156
  30.9262634  27.4284819  82.2090398  31.9166651  27.5007815  81.0663433
  31.1639897  38.8491944  81.5829307  31.4562871  39.4097001  80.8641672
  31.6738518  39.1420505  82.3382466  31.7651505  20.7183685  82.4721925
  32.0710382  19.8581049  82.1847840  32.4904110  21.3101305  82.2720919
  18.0575861  31.1214372  80.8603523  17.8600261  30.5283733  80.1354590
  17.5022525  30.8166582  81.5779462  26.0372584  31.0137478  82.9798116
  26.0921194  30.0611315  82.9040593  25.2263786  31.1696917  83.4639415
  27.1863778  34.9417601  74.2176399  26.7483208  34.2253460  73.7582037
  27.9274219  35.1693716  73.6561491  23.9764944  29.6314538  80.7388495
  23.1632810  29.9308709  81.1453687  24.4723939  29.2370227  81.4562977
  26.1273522  39.6272295  82.6722760  26.0849701  39.8533141  81.7431292
  27.0436221  39.3935670  82.8208561  29.5739156  30.0956363  89.5703389
  29.9288544  30.3227836  90.4297855  30.2211287  30.4274739  88.9480644
  35.3036893  33.2174798  80.2752718  35.1654792  33.4076394  79.3473907
  34.9473112  33.9794181  80.7320769  23.4679019  27.2032894  86.3549730
  24.1078398  27.0621653  85.6572693  22.6356550  26.9167407  85.9788332
  35.3306273  35.2851325  85.2863990  35.7642779  35.1926615  86.1347044
  36.0437853  35.2608826  84.6484006  24.2439323  36.5035324  82.4684723
  25.0379922  36.0085644  82.2667297  23.5331015  35.9753187  82.1052428
  29.0634168  38.8853420  86.8197090  29.1171190  39.4544356  87.5874806
  28.1948949  39.0555305  86.4551127  20.5522087  30.6478406  78.5444475
  19.6219675  30.5862861  78.7614437  20.6479558  30.1254359  77.7481116
  20.4707636  27.1733219  81.1322717  20.7314453  28.0878552  81.0231877
  21.2924808  26.7057661  81.2819330  21.9432561  28.5870976  88.3021541
  22.6155614  28.3788338  87.6534190  21.1162347  28.3893062  87.8626774
  36.1921822  35.3275026  87.8196875  36.3857712  36.2320837  88.0656150
  36.0922440  34.8682445  88.6535460  27.8458133  25.2132917  90.3187202
  27.1986048  25.9122866  90.2251679  28.6159148  25.6469061  90.6863450
  31.2536931  35.4781769  93.3937756  31.1022437  35.2492321  92.4767839
  31.2441610  36.4352370  93.4069101  28.0222267  33.0513682  88.3784022
  28.9514327  33.2024841  88.2052989  27.6013297  33.1397702  87.5232669
  26.8210599  37.0764346  86.1482560  26.6821685  36.7083130  87.0208498
  26.0325195  37.5911985  85.9766517  27.4158751  42.1773442  77.4908096
  27.5910507  41.7061486  78.3053719  26.7291539  42.8039209  77.7189357
  28.3715814  36.4545949  83.5371397  28.0365647  36.4146719  84.4329047
  27.8719760  35.7890665  83.0641808  22.3460058  31.8613579  89.0623979
  22.2079856  31.1293818  89.6635518  23.2564982  31.7722479  88.7808166
  31.3075006  33.8001983  73.8108457  30.6904176  33.0748811  73.7141510
  30.8391494  34.5611343  73.4675531  24.9742359  31.5733538  88.5507658
  25.6841977  30.9326730  88.5094277  24.9311667  31.8246433  89.4733839
  32.9629137  38.5100891  91.4714237  32.9041684  37.8260112  90.8044820
  33.3648656  39.2519881  91.0194863  23.6871293  28.5598756  90.3703298
  23.1508650  28.1089494  91.0224894  23.0988001  28.6944665  89.6273762
  21.9819836  45.3262805  84.2647956  22.2216435  45.9581329  84.9426975
  21.1389033  44.9750845  84.5513316  23.0973552  28.0187407  72.9329761
  22.2203018  27.8976208  72.5692008  23.5731305  27.2273486  72.6808650
  32.9646545  36.4740475  89.7028217  32.0773324  36.1366397  89.8254616
  33.5345096  35.7423507  89.9396982  14.6175692  32.8064567  83.0271268
  15.3046732  32.4926297  82.4392284  14.4623821  33.7105932  82.7538520
  19.4210414  27.6954764  87.4556292  19.3368603  27.0880433  86.7206702
  18.5993120  28.1863782  87.4565789  26.4947698  41.1341928  86.6689460
  26.4217870  41.9396899  87.1808765  26.0525091  41.3333894  85.8437482
  26.2837478  40.3713698  80.1792282  25.5005000  40.9135378  80.2730506
  26.9830223  40.8887677  80.5786523  29.5934128  26.1808327  82.8226487
  30.0902827  25.4278290  82.5027557  28.8221109  26.2172644  82.2569697
  37.4463885  31.8848693  84.4644779  37.4353762  32.7673408  84.0938712
  36.5781265  31.5320244  84.2699316  28.9546382  41.0328762  88.8247619
  29.6674354  41.6676227  88.7523520  28.4636410  41.1292628  88.0087621
  30.6763909  34.9380014  80.3964911  29.7420187  35.0581477  80.2269615
  30.8540577  34.0352481  80.1324920  26.1769097  28.3225710  82.5498172
  25.8066884  27.7696751  83.2379077  26.6728189  27.7183844  81.9973172
  34.0636460  30.7797334  80.9314945  34.5296912  31.6125325  80.8575247
  34.5143960  30.3142315  81.6360203  24.0058295  38.7823205  89.6453190
  24.7067755  39.4159688  89.7982584  23.5353410  39.1237937  88.8848829
  32.1312691  37.1241155  77.9301097  32.4072535  37.0097750  78.8394971
  31.2617190  36.7258640  77.8913270  32.0353123  23.1477921  84.9705846
  31.1216202  23.3782148  85.1388053  32.4646224  23.2316365  85.8219878
  31.8059581  31.3367813  87.4705740  31.1531031  31.5843720  86.8158193
  32.1839961  30.5231951  87.1368217  28.7666755  41.3727506  81.5733910
  28.9489150  40.5549162  82.0361663  29.5899741  41.5895198  81.1358800
  29.1008921  40.2995691  78.8348959  29.6296687  39.7888146  78.2219121
  29.3637140  39.9838221  79.6994492  27.8547154  32.0787624  93.9571777
  27.1787791  31.9781753  94.6274152  28.6774788  31.9226837  94.4207774
  19.6026013  38.3159560  86.5784292  20.1879450  37.5703248  86.7112197
  19.4050852  38.6263517  87.4620956  22.4564668  41.3510808  81.5946735
  21.7875044  41.8356935  81.1110775  22.3177538  41.5980028  82.5090113
  14.1943668  30.8865160  85.2988736  14.2327768  30.3528751  86.0925854
  13.6883961  30.3600366  84.6799713  26.5969937  43.3854551  88.1929393
  27.1488245  43.5486173  88.9578478  26.9376131  43.9758989  87.5209418
  21.5734430  25.7329701  88.7951278  21.6375757  26.5944532  88.3828676
  21.5101551  25.1203703  88.0623636  21.0486703  27.8052833  92.4424312
  21.6758742  27.4229911  93.0561836  20.1914622  27.5867035  92.8080005
  31.4480811  38.2115809  94.0478048  31.9920715  38.8245767  93.5533002
  30.8667656  38.7695387  94.5645061  17.8252246  29.6129263  78.3742667
  18.1205687  28.7039941  78.3209721  16.9240281  29.5917002  78.0523669
  29.7338324  41.3336527  85.1793075  29.6089464  40.5326267  84.6704021
  30.3917415  41.8282720  84.6907045  21.3546493  27.6885259  84.3570216
  20.6333078  28.3021227  84.2177689  22.1439748  28.2243024  84.2786862
  31.7973233  39.1345547  86.8072625  30.8503568  39.0150898  86.7350952
  32.1456006  38.2468045  86.8898887  24.1572806  25.0239686  90.6310867
  24.6807208  25.2701982  91.3937177  23.9385139  25.8559720  90.2114005
  19.5540087  27.2943360  78.4981992  19.2252793  26.4140739  78.3157098
  19.9079458  27.2391029  79.3858381  28.8019666  38.9298263  83.0076978
  28.6544628  38.0014970  83.1884548  29.6273160  38.9518354  82.5234053
  22.6681910  27.5816330  78.8657470  23.0077983  28.1102251  78.1436078
  23.1154031  27.9196736  79.6416036  32.4053788  39.7526822  84.0941850
  33.3300335  39.5469683  83.9566302  32.2369091  39.5043223  85.0031192
  25.3625351  25.9653381  88.3160538  25.0222172  25.1661194  88.7181218
  24.6564357  26.2655092  87.7437371  26.0141823  23.0502693  86.7687861
  26.8367892  22.5763171  86.6466751  26.2579887  23.8293177  87.2686547
  24.6550057  26.0790952  77.0650763  25.3758420  26.4572204  76.5614479
  24.0315362  26.7979828  77.1685741  28.7981180  26.7836101  78.0009095
  29.0144795  27.6660738  77.6997923  28.3175248  26.3922314  77.2714737
  23.5380402  29.7421814  84.5779840  23.3924982  30.0562117  85.4704121
  23.0605605  30.3606714  84.0250738  25.3976785  26.7324362  84.6260729
  25.3838353  25.8365455  84.2893027  26.1149213  26.7395026  85.2599015
  27.2502915  27.1661702  86.6713857  26.9920693  28.0878773  86.6698187
  26.7187956  26.7692137  87.3614321  32.1949104  40.2712489  79.4503942
  32.3685982  39.7058912  78.6977794  32.6877995  41.0713384  79.2683432
  18.0126064  32.2827158  87.5167501  17.4679532  33.0586966  87.6487775
  18.8905414  32.6297963  87.3586622  24.8013681  25.6138742  79.8948299
  24.9229592  24.6855388  80.0939187  24.5115723  25.6277428  78.9826615
  27.6704871  23.2993653  83.0315019  27.6926568  23.3632986  82.0766999
  28.0872930  22.4598161  83.2255525  38.0488495  33.0348912  81.0694242
  38.4919641  32.2856237  80.6713365  37.1715006  33.0259048  80.6867974
  33.1824277  39.5879254  76.5500840  33.8775181  40.2085946  76.7688155
  33.5247427  38.7374605  76.8253218  18.7992086  31.4097055  90.4097658
  18.0573822  31.5579690  90.9962288  18.4784830  31.6705320  89.5464407
  35.0815700  37.0378959  78.0788171  35.6067024  37.3766232  77.3537491
  34.9938052  36.1025974  77.8951306  26.7435748  40.9513033  90.2078048
  27.0522875  40.7062180  91.0800747  27.5411230  41.1559671  89.7196918
  26.7656360  43.1050942  82.4383424  26.3261351  42.6127321  83.1316281
  27.5164477  42.5623910  82.1975499  19.2448699  39.2962483  82.4408052
  20.0706719  38.9966255  82.0606696  18.8942751  38.5270106  82.8897841
  24.2130233  38.6488951  84.5105726  23.5910242  37.9859656  84.2107954
  24.8835100  38.6750083  83.8279374  17.4457304  37.2148810  83.3996986
  16.6089213  36.7870984  83.2180987  17.4180950  37.4081253  84.3367777
  24.2854760  27.1270739  94.1038232  24.3342916  28.0032862  93.7216001
  24.8277274  26.5848133  93.5309875  34.7709606  37.6711863  93.3839369
  33.9805149  37.6536002  92.8443868  34.5342960  38.2100156  94.1388405
  34.8907481  34.5204329  90.6972097  34.9405486  34.3554337  91.6387620
  34.7821404  33.6531588  90.3069978  23.7743740  37.1992875  77.9864186
  23.9231860  37.8828339  77.3330859  24.5810183  37.1797965  78.5013642
  32.1811243  30.5035257  92.0131404  33.0821106  30.3641722  91.7215402
  32.2559218  30.6689712  92.9529582  26.5154049  27.8802112  90.8584590
  25.6457358  28.1735678  90.5867179  26.7513529  28.4642557  91.5791854
  36.3925678  36.9401271  90.9414119  36.1010486  37.3031251  91.7777580
  35.7797809  36.2268279  90.7627451  37.5921360  34.5054150  83.4616689
  38.4268251  34.9443954  83.6254250  37.7280489  34.0292804  82.6424935
  34.6412866  32.0633885  89.4094177  35.1166987  32.2561532  88.6013028
  33.7178431  32.1193071  89.1637561  21.5296372  33.2258052  78.9925255
  21.2842414  32.3220382  79.1905465  21.6992287  33.2275203  78.0504733
  29.2193082  24.0981729  88.3750011  29.7375026  24.8342756  88.0496499
  28.8648215  24.4045722  89.2096770  20.7992020  28.9586410  76.4911417
  20.1061265  29.0330765  75.8351453  20.5543772  28.1946754  77.0132934
  29.4705677  20.5182011  83.8950907  29.7507430  19.8505200  84.5211334
  30.2556283  20.7111107  83.3825571  27.2739145  39.6941005  75.4575934
  26.7013112  40.3131192  75.0046406  27.8471939  40.2440367  75.9915856
  33.3414535  28.9399645  87.6422483  34.2931958  29.0397743  87.6634707
  33.1717985  28.1477914  88.1520567  31.3628914  26.0255229  87.8281883
  30.7678846  26.3060241  87.1328372  31.0778611  26.5149129  88.5998625
  30.4936405  39.9778155  76.5884516  31.4267078  39.9123717  76.7917392
  30.4059618  40.8134422  76.1299049  33.1224421  39.2944026  73.5488464
  33.0438053  38.9603889  74.4424222  33.9434088  39.7865794  73.5479936
  35.8202613  32.1605765  86.7564782  35.7878933  31.2221766  86.9424466
  36.4303236  32.2389802  86.0230607  27.6585944  31.0301818  72.7991986
  28.6045048  30.9008026  72.8680404  27.2800188  30.2916480  73.2761414
  35.9697101  28.9516808  86.8023065  35.4536150  28.1675265  86.6152994
  36.8537050  28.6235525  86.9669585  33.6307828  22.6957824  82.7618878
  33.4332649  22.3872912  83.6462210  34.2407534  23.4219463  82.8916808
  41.6379163  33.2221772  85.8970819  42.3682551  32.9607060  86.4578522
  41.0286108  32.4850494  85.9372887  39.7194460  31.3629634  86.4945270
  38.9927623  31.2285599  85.8861762  39.3041747  31.6706463  87.3001988
  27.5424636  35.0819564  94.2592643  28.4627646  35.2598163  94.4532690
  27.5074219  34.1375609  94.1072342  25.8428861  28.9551794  72.7346871
  24.9360316  28.6584907  72.8109585  26.1204842  28.6581612  71.8681158
  16.7606801  30.2758158  83.1845918  16.4409585  29.4223466  82.8920292
  16.2140229  30.4906736  83.9403885  20.5386709  32.9920599  86.9015424
  20.7572718  33.9237707  86.9203458  20.9512482  32.6328573  87.6870228
  27.4590926  23.4988684  78.8891113  26.6491655  23.1535769  79.2646359
  28.1475343  23.1896228  79.4778724  29.3881475  22.5766731  80.5115409
  29.9412513  22.9962184  81.1705433  29.6251561  21.6502479  80.5538365
  25.4114574  28.5653805  96.2918173  25.3111301  29.5148162  96.2230264
  25.1936116  28.2372043  95.4194243  24.6127645  25.8138730  72.8758851
  25.4746809  26.1393628  73.1354668  24.7977989  25.0270226  72.3631916
  16.6295061  33.8961069  85.1539039  15.9358533  33.4815022  84.6408994
  17.3768052  33.9381606  84.5572458  32.7660282  24.6867256  80.0194074
  32.1858951  25.3452060  79.6372126  32.4996214  23.8644601  79.6081491
  31.2163848  24.0872314  82.2215394  31.7163627  24.1988848  81.4129713
  31.8599456  23.7833367  82.8616202  25.2745844  31.9950943  95.1083235
  24.7912926  32.7951304  95.3147124  25.3606783  32.0058888  94.1550679
  18.5431804  33.8279323  83.0305054  18.5202492  33.9267010  82.0786937
  18.8532440  34.6744474  83.3522220  21.2019181  35.8855478  87.1451669
  22.1562435  35.8539420  87.0781600  21.0031705  35.4246102  87.9601895
  21.7918564  34.4556594  89.7122466  22.6111453  34.9500673  89.7357304
  22.0655371  33.5388562  89.6840034  31.5485160  26.8467346  79.0750422
  30.6611015  27.1316997  78.8570617  31.9639149  26.6861110  78.2277699
  34.8999696  26.8713867  82.7904761  35.6760086  27.3610320  83.0629378
  34.1747830  27.2971922  83.2476631  37.3372255  27.5841487  83.8478702
  37.9316745  27.3437223  83.1372010  37.4098838  26.8648617  84.4752238
  19.5569410  41.4275098  84.1621867  19.4223878  40.6675498  83.5959865
  19.1401473  42.1515997  83.6950656  30.6928373  36.6112021  73.1698442
  31.3964223  36.8162024  73.7856098  29.9691022  37.1788783  73.4347525
  31.5226184  32.3621882  79.2900712  31.4661385  32.8190434  78.4508345
  32.0754526  31.6012567  79.1123555  35.3330989  28.1511614  80.1150832
  35.0767924  27.7508250  80.9459039  34.7083857  28.8655408  79.9900971
  39.6443327  30.8907687  82.6222123  39.0842885  30.9600877  83.3953685
  39.0386831  30.7148672  81.9021619  22.7138536  42.3244415  84.3740309
  22.5970920  43.2689847  84.2719000  21.8930982  42.0217976  84.7626108
  32.6015071  37.0494550  75.2196902  33.4360675  36.6175749  75.0374377
  32.4399414  36.8776564  76.1473796  32.2560963  33.5526664  76.5853241
  32.2009767  33.3870935  75.6441685  31.6307018  34.2602697  76.7415431
  17.0453478  28.7894728  90.4114663  17.6912341  28.2793682  90.9001889
  16.8370629  29.5263410  90.9858089  29.5706870  35.8575575  95.9106804
  30.4398030  36.0316228  95.5493439  29.0913622  36.6769992  95.7882533
  25.5657088  23.0534773  76.1638560  25.5535758  23.9976613  76.3206831
  26.4580510  22.8704918  75.8698021  23.7393050  42.9772676  87.5896238
  24.6420297  43.0096287  87.9062733  23.5130420  42.0473127  87.6042573
  25.4946652  41.7303663  84.2506316  24.5442283  41.7305525  84.1370689
  25.7979138  40.9836398  83.7342351  29.3809208  19.6477549  80.4184496
  28.6141604  19.0936036  80.5641179  29.7919913  19.7199418  81.2798648
  21.3850969  25.9362345  94.5089678  22.2482430  25.5799150  94.7193002
  20.8116379  25.5976240  95.1965082  41.2299346  47.5664201  85.3152079
  41.8677756  47.4470949  84.6115419  41.1120189  48.5145045  85.3740031
  38.0389052  47.5191630  85.2513603  37.7007564  47.4032694  84.3634138
  38.9078820  47.1182795  85.2314610  33.8975868  49.3727106  81.2410494
  33.3340733  49.2817043  80.4726782  33.7828263  48.5527010  81.7212987
  38.5208835  48.6726481  91.2099809  38.5097476  48.2779280  90.3380313
  38.6829475  47.9392554  91.8033580  31.4440300  50.8678298  84.0794715
  32.2361592  50.5269122  83.6641014  31.6836950  50.9773273  84.9996868
  39.4775426  53.0398074  76.5524959  38.8263406  53.6252154  76.1658973
  40.2719789  53.5704269  76.6119997  33.4031054  50.1287211  76.9512094
  34.1761930  49.5816198  76.8124969  33.7556452  50.9931460  77.1626555
  35.2416096  51.4563593  90.1578993  34.9505962  52.3609224  90.0425659
  35.8773081  51.4980121  90.8723062  36.1672303  48.8340442  86.7480353
  36.7635875  48.6096464  86.0337316  36.2247275  48.0925187  87.3505800
  35.7397331  46.2879877  74.5830544  35.9922852  45.7661398  73.8214007
  34.8021891  46.1246022  74.6857227  40.7840614  45.2915655  82.3905287
  41.5703703  44.8735078  82.0395704  41.0479319  46.1961747  82.5586935
  40.9550692  50.7288506  77.0893944  40.3196525  50.8023132  77.8014848
  40.6248098  51.3182104  76.4113023  46.1849041  45.2290888  83.2938265
  46.9174213  44.6590105  83.5276095  45.4288397  44.8412489  83.7344771
  35.4593620  48.1907983  76.7854918  35.3429878  47.5152886  77.4536003
  35.5695880  47.7040357  75.9687072  37.8025161  47.6518130  80.4901608
  37.4383368  47.1248751  81.2014529  38.6592277  47.2616599  80.3168093
  43.7074462  38.9412463  87.7532874  43.3757787  39.8107874  87.5294089
  43.1120075  38.6248747  88.4326904  37.4430648  42.6808030  75.4862956
  37.6105050  43.5488266  75.8533427  37.2527817  42.8435311  74.5624245
  40.2005981  51.1425009  87.1528787  39.9006704  52.0450047  87.0444594
  39.8557041  50.8757192  88.0049939  33.6518463  47.5938805  83.1865491
  32.7268959  47.4615020  83.3943183  33.9002876  48.3733025  83.6835433
  43.6003125  43.6607549  84.8326224  42.6920002  43.5922957  84.5384985
  43.5490721  44.1379494  85.6608049  37.4219869  45.1365687  76.4709623
  37.3019494  45.5822738  77.3095103  36.7272457  45.4851005  75.9123161
  31.0127274  47.2372079  84.0209280  31.1419655  47.4906558  84.9348692
  30.3324725  47.8299787  83.7013935  35.1826761  57.9069329  80.1199754
  35.1050791  58.8577154  80.1988235  34.5788405  57.5615201  80.7774681
  37.6743991  45.0797194  92.7761121  36.8977325  45.6391114  92.7663986
  38.3134554  45.5653977  93.2975991  45.4664771  41.8623987  86.6104098
  44.8239152  42.1556520  85.9643892  44.9619700  41.7476908  87.4157295
  43.1204935  45.6087160  77.2989957  44.0322791  45.8414547  77.1237655
  42.6114582  46.1924205  76.7365036  35.9290363  47.8882648  92.3379088
  36.6705048  48.4267692  92.0613912  35.2227349  48.5148936  92.4950640
  41.4045703  50.0311788  90.9351250  41.8129059  49.5894199  90.1905882
  40.6822964  49.4564416  91.1885443  37.7576773  44.9684395  88.3084807
  38.6037968  45.3923809  88.4519456  37.6975411  44.3118019  89.0023370
  41.7274517  50.5912979  84.6903539  41.0983380  50.7558693  83.9879606
  41.3400180  51.0054588  85.4614503  45.6063749  51.5267417  82.0447902
  44.9214787  51.9066318  81.4944936  45.6907599  52.1362743  82.7779850
  40.9076218  42.6288763  89.9665980  40.6637150  43.3830824  89.4300256
  41.1836149  43.0074111  90.8013227  42.8614681  49.1727376  88.6443246
  43.0731576  49.8159136  87.9677627  42.8144429  48.3389692  88.1765176
  40.4640910  41.7845196  85.5479818  39.6025389  42.0826450  85.8396556
  40.4903345  42.0015595  84.6160851  37.2802479  50.3287387  81.9553624
  37.7440825  50.6075090  81.1658246  37.0159277  49.4270831  81.7726714
  34.1726560  49.8758868  84.8933387  34.7427917  50.3046137  84.2550871
  34.7634672  49.5941453  85.5917573  36.2171365  46.4510539  78.7643189
  36.9195409  46.9031583  79.2317115  35.8851994  45.8094358  79.3923082
  34.6651727  45.0422296  93.1394398  34.0350387  45.7238577  93.3729795
  34.5587815  44.9305377  92.1947536  29.9596699  44.7094092  84.0660322
  29.1695753  44.9651620  83.5900433  30.4507947  45.5242430  84.1712363
  43.9760509  52.0499331  86.8165603  44.7977953  51.6479518  86.5348285
  43.9722912  51.9467565  87.7681719  31.9111445  45.0738671  81.0243799
  31.1142608  45.1857365  81.5427295  31.6837037  45.4125323  80.1584690
  37.7417112  51.5983374  88.9726314  37.8061545  52.0603782  89.8084486
  37.0328036  50.9680739  89.1008624  28.2434402  44.9624582  86.4975313
  28.4942441  45.8471592  86.7632889  28.7793951  44.7829184  85.7250405
  52.0666502  48.3938080  83.1650575  51.3130210  47.8245478  83.0094579
  52.2014043  48.3600744  84.1121209  37.4565130  53.2651482  78.8405294
  37.3210805  54.1103018  79.2690142  37.9974942  53.4670760  78.0771228
  33.9432470  39.3443062  95.5019649  33.5499415  38.7909260  96.1767293
  34.7598610  39.6553640  95.8926167  30.9094527  50.7826920  79.4133219
  31.4219048  51.5770170  79.5638784  31.5617240  50.0853210  79.3466821
  32.7189412  53.8992676  81.4955972  32.8956040  54.8210641  81.3076956
  33.5146246  53.5851095  81.9250352  36.8600431  40.7600941  93.0939906
  37.6010144  41.3608094  93.0144368  37.0918353  40.0178579  92.5357948
  32.0041769  45.9457308  91.3718136  31.8895284  45.0442565  91.6725234
  31.1486286  46.1921005  91.0202952  39.0833606  53.8875048  92.9705636
  38.6397461  53.1011427  92.6526541  39.7450820  54.0754199  92.3049527
  33.8420728  55.4170850  87.4966315  34.3928153  55.2887913  86.7243309
  33.0032203  55.7165739  87.1461207  41.1814844  54.1677848  90.9987037
  41.1633320  54.9886729  90.5067307  42.1034764  54.0431924  91.2237179
  37.6387899  51.6821978  91.8410546  38.1716235  50.9210266  91.6109854
  37.1101980  51.3895630  92.5834700  40.8057594  36.7882044  87.3704188
  40.4621863  37.6783685  87.2943298  41.1736556  36.5983701  86.5073773
  28.8743444  49.1115574  80.1892790  29.7118666  49.5212583  79.9726497
  29.0521712  48.1715016  80.1592984  40.7707876  46.7790655  75.8776623
  40.2554500  47.5495260  76.1165010  40.4985185  46.1055791  76.5009684
  38.3554987  41.6240356  80.9361861  37.4996584  41.2347206  80.7567500
  38.7681939  41.7032316  80.0761647  39.8854134  39.1586699  85.3353421
  39.3818930  39.1216834  84.5221226  40.1784741  40.0679442  85.3950077
  36.1297020  39.2425429  84.3419602  36.9950017  39.0468237  83.9825492
  36.1974529  39.0135780  85.2688959  45.7442150  49.5323010  77.8129796
  44.9671593  49.1934169  77.3684958  46.4233631  49.5375633  77.1384761
  40.5594179  44.6517747  77.7036404  40.2544315  44.9663896  78.5546547
  41.5124622  44.7299167  77.7463737  39.0040611  50.8107970  79.3529358
  38.4761973  50.0760730  79.0402595  38.5028114  51.5882647  79.1069326
  43.9833457  49.0056991  84.4696404  43.3257132  49.6956252  84.5576533
  44.7873857  49.3953423  84.8130390  33.7359339  41.4727637  81.7135969
  34.3103091  41.2502818  80.9809162  34.3230321  41.5416331  82.4664571
  42.7938916  47.3601363  82.5200346  43.3070798  47.9931355  83.0222056
  43.4440140  46.7602559  82.1543706  34.0628926  43.5032098  75.7331855
  33.2266238  43.8406784  76.0541129  33.9233696  43.3681077  74.7958992
  36.0382007  38.3468885  80.4411039  35.3846419  38.0317903  79.8167653
  35.9962481  37.7244626  81.1670862  37.1493211  48.6288181  72.3564331
  36.2420273  48.3977434  72.5555480  37.6464243  47.8325800  72.5438312
  40.0561290  57.3385688  75.2761017  39.3822989  57.6417384  75.8845975
  40.4427112  58.1414768  74.9266474  39.2719747  44.8350819  84.7658686
  38.3542308  45.0565766  84.6080374  39.6879891  44.9097129  83.9070394
  40.0554795  46.2342235  79.8961367  40.8026614  46.7463632  79.5868489
  40.3246384  45.9126287  80.7565760  38.3281445  48.7300775  76.8788321
  37.4192664  48.4459808  76.9760791  38.3576529  49.1499854  76.0191628
  43.5600712  52.3407365  80.6479488  43.1063039  51.4998275  80.7044679
  42.9294679  52.9768763  80.9854269  42.5033632  43.2699351  81.8780156
  41.7656389  42.7576737  82.2090398  42.7560405  42.8299733  81.0663433
  42.6045259  36.0475603  82.4721925  42.9104136  35.1872966  82.1847840
  43.3297864  36.6393223  82.2720919  28.8969615  46.4506290  80.8603523
  28.6994015  45.8575650  80.1354590  28.3416279  46.1458500  81.5779462
  36.8766339  46.3429396  82.9798116  36.9314949  45.3903232  82.9040593
  36.0657541  46.4988835  83.4639415  38.0257533  50.2709519  74.2176399
  37.5876963  49.5545378  73.7582037  38.7667974  50.4985634  73.6561491
  34.8158699  44.9606456  80.7388495  34.0026564  45.2600626  81.1453687
  35.3117693  44.5662145  81.4562977  36.9667277  54.9564213  82.6722760
  36.9243456  55.1825059  81.7431292  37.8829976  54.7227587  82.8208561
  40.4132911  45.4248280  89.5703389  40.7682298  45.6519753  90.4297855
  41.0605042  45.7566657  88.9480644  46.1430647  48.5466716  80.2752718
  46.0048546  48.7368312  79.3473907  45.7866866  49.3086099  80.7320769
  34.3072774  42.5324811  86.3549730  34.9472153  42.3913570  85.6572693
  33.4750304  42.2459325  85.9788332  46.1700027  50.6143243  85.2863990
  46.6036534  50.5218532  86.1347044  46.8831608  50.5900744  84.6484006
  35.0833078  51.8327242  82.4684723  35.8773676  51.3377562  82.2667297
  34.3724770  51.3045105  82.1052428  31.3915841  45.9770323  78.5444475
  30.4613429  45.9154779  78.7614437  31.4873313  45.4546276  77.7481116
  31.3101390  42.5025136  81.1322717  31.5708207  43.4170470  81.0231877
  32.1318562  42.0349579  81.2819330  32.7826315  43.9162893  88.3021541
  33.4549369  43.7080256  87.6534190  31.9556102  43.7184979  87.8626774
  47.0315577  50.6566944  87.8196875  47.2251467  51.5612754  88.0656150
  46.9316195  50.1974363  88.6535460  38.6851887  40.5424834  90.3187202
  38.0379802  41.2414784  90.2251679  39.4552903  40.9760978  90.6863450
  42.0930685  50.8073687  93.3937756  41.9416192  50.5784238  92.4767839
  42.0835365  51.7644288  93.4069101  38.8616022  48.3805599  88.3784022
  39.7908082  48.5316759  88.2052989  38.4407052  48.4689620  87.5232669
  37.6604354  52.4056264  86.1482560  37.5215439  52.0375048  87.0208498
  36.8718950  52.9203903  85.9766517  38.2552505  57.5065360  77.4908096
  38.4304261  57.0353403  78.3053719  37.5685294  58.1331126  77.7189357
  39.2109569  51.7837866  83.5371397  38.8759401  51.7438636  84.4329047
  38.7113514  51.1182582  83.0641808  33.1853813  47.1905496  89.0623979
  33.0473611  46.4585735  89.6635518  34.0958736  47.1014397  88.7808166
  42.1468760  49.1293901  73.8108457  41.5297931  48.4040729  73.7141510
  41.6785249  49.8903261  73.4675531  35.8136113  46.9025456  88.5507658
  36.5235732  46.2618648  88.5094277  35.7705421  47.1538351  89.4733839
  43.8022892  53.8392809  91.4714237  43.7435438  53.1552029  90.8044820
  44.2042410  54.5811799  91.0194863  34.5265047  43.8890674  90.3703298
  33.9902404  43.4381412  91.0224894  33.9381756  44.0236582  89.6273762
  33.9367306  43.3479325  72.9329761  33.0596773  43.2268126  72.5692008
  34.4125059  42.5565403  72.6808650  43.8040299  51.8032393  89.7028217
  42.9167078  51.4658315  89.8254616  44.3738850  51.0715424  89.9396982
  25.4569446  48.1356485  83.0271268  26.1440486  47.8218215  82.4392284
  25.3017575  49.0397849  82.7538520  30.2604169  43.0246681  87.4556292
  30.1762357  42.4172351  86.7206702  29.4386875  43.5155700  87.4565789
  37.1231232  55.7005615  80.1792282  36.3398754  56.2427296  80.2730506
  37.8223977  56.2179595  80.5786523  40.4327882  41.5100245  82.8226487
  40.9296582  40.7570207  82.5027557  39.6614864  41.5464562  82.2569697
  48.2857640  47.2140610  84.4644779  48.2747516  48.0965326  84.0938712
  47.4175019  46.8612161  84.2699316  41.5157663  50.2671932  80.3964911
  40.5813942  50.3873395  80.2269615  41.6934332  49.3644399  80.1324920
  37.0162851  43.6517628  82.5498172  36.6460639  43.0988668  83.2379077
  37.5121944  43.0475761  81.9973172  44.9030214  46.1089251  80.9314945
  45.3690667  46.9417243  80.8575247  45.3537715  45.6434233  81.6360203
  34.8452050  54.1115123  89.6453190  35.5461509  54.7451606  89.7982584
  34.3747165  54.4529854  88.8848829  42.9706446  52.4533073  77.9301097
  43.2466289  52.3389667  78.8394971  42.1010944  52.0550558  77.8913270
  42.8746877  38.4769838  84.9705846  41.9609957  38.7074065  85.1388053
  43.3039979  38.5608282  85.8219878  42.6453336  46.6659730  87.4705740
  41.9924786  46.9135638  86.8158193  43.0233716  45.8523869  87.1368217
  38.6940909  47.4079541  93.9571777  38.0181546  47.3073671  94.6274152
  39.5168543  47.2518755  94.4207774  30.4419768  53.6451478  86.5784292
  31.0273205  52.8995166  86.7112197  30.2444606  53.9555435  87.4620956
  33.2958423  56.6802725  81.5946735  32.6268798  57.1648853  81.1110775
  33.1571293  56.9271946  82.5090113  25.0337422  46.2157078  85.2988736
  25.0721522  45.6820669  86.0925854  24.5277715  45.6892284  84.6799713
  37.4363692  58.7146469  88.1929393  37.9882000  58.8778090  88.9578478
  37.7769885  59.3050907  87.5209418  32.4128185  41.0621619  88.7951278
  32.4769511  41.9236450  88.3828676  32.3495305  40.4495620  88.0623636
  31.8880457  43.1344751  92.4424312  32.5152496  42.7521828  93.0561836
  31.0308376  42.9158953  92.8080005  42.2874566  53.5407726  94.0478048
  42.8314470  54.1537685  93.5533002  41.7061411  54.0987305  94.5645061
  28.6646000  44.9421180  78.3742667  28.9599441  44.0331859  78.3209721
  27.7634036  44.9208920  78.0523669  32.1940247  43.0177177  84.3570216
  31.4726833  43.6313145  84.2177689  32.9833503  43.5534942  84.2786862
  34.9966561  40.3531603  90.6310867  35.5200962  40.5993900  91.3937177
  34.7778894  41.1851638  90.2114005  30.3933842  42.6235278  78.4981992
  30.0646548  41.7432657  78.3157098  30.7473212  42.5682947  79.3858381
  33.5075665  42.9108248  78.8657470  33.8471737  43.4394169  78.1436078
  33.9547785  43.2488654  79.6416036  36.2019106  41.2945298  88.3160538
  35.8615926  40.4953112  88.7181218  35.4958112  41.5947009  87.7437371
  36.8535577  38.3794611  86.7687861  37.6761647  37.9055089  86.6466751
  37.0973641  39.1585095  87.2686547  35.4943812  41.4082869  77.0650763
  36.2152174  41.7864122  76.5614479  34.8709116  42.1271746  77.1685741
  39.6374935  42.1128018  78.0009095  39.8538549  42.9952656  77.6997923
  39.1569002  41.7214232  77.2714737  34.3774156  45.0713732  84.5779840
  34.2318737  45.3854035  85.4704121  33.8999360  45.6898632  84.0250738
  36.2370539  42.0616280  84.6260729  36.2232108  41.1657373  84.2893027
  36.9542967  42.0686943  85.2599015  38.0896670  42.4953620  86.6713857
  37.8314448  43.4170690  86.6698187  37.5581710  42.0984054  87.3614321
  28.8519818  47.6119076  87.5167501  28.3073286  48.3878884  87.6487775
  29.7299168  47.9589880  87.3586622  35.6407435  40.9430660  79.8948299
  35.7623346  40.0147306  80.0939187  35.3509477  40.9569346  78.9826615
  38.5098625  38.6285570  83.0315019  38.5320322  38.6924903  82.0766999
  38.9266684  37.7890079  83.2255525  48.8882250  48.3640830  81.0694242
  49.3313396  47.6148155  80.6713365  48.0108760  48.3550966  80.6867974
  44.0218031  54.9171171  76.5500840  44.7168936  55.5377864  76.7688155
  44.3641181  54.0666522  76.8253218  29.6385840  46.7388972  90.4097658
  28.8967576  46.8871608  90.9962288  29.3178585  46.9997238  89.5464407
  45.9209454  52.3670877  78.0788171  46.4460778  52.7058150  77.3537491
  45.8331807  51.4317892  77.8951306  37.5829503  56.2804950  90.2078048
  37.8916629  56.0354097  91.0800747  38.3804985  56.4851589  89.7196918
  37.6050115  58.4342860  82.4383424  37.1655105  57.9419239  83.1316281
  38.3558232  57.8915828  82.1975499  30.0842454  54.6254401  82.4408052
  30.9100474  54.3258173  82.0606696  29.7336506  53.8562023  82.8897841
  35.0523987  53.9780869  84.5105726  34.4303996  53.3151574  84.2107954
  35.7228854  54.0042001  83.8279374  28.2851059  52.5440727  83.3996986
  27.4482967  52.1162902  83.2180987  28.2574704  52.7373171  84.3367777
  35.1248515  42.4562657  94.1038232  35.1736670  43.3324780  93.7216001
  35.6671029  41.9140050  93.5309875  45.6103360  53.0003780  93.3839369
  44.8198904  52.9827919  92.8443868  45.3736715  53.5392074  94.1388405
  45.7301235  49.8496247  90.6972097  45.7799240  49.6846254  91.6387620
  45.6215159  48.9823506  90.3069978  34.6137494  52.5284792  77.9864186
  34.7625614  53.2120257  77.3330859  35.4203937  52.5089883  78.5013642
  43.0204998  45.8327175  92.0131404  43.9214860  45.6933640  91.7215402
  43.0952972  45.9981630  92.9529582  37.3547803  43.2094030  90.8584590
  36.4851112  43.5027596  90.5867179  37.5907283  43.7934475  91.5791854
  47.2319432  52.2693188  90.9414119  46.9404240  52.6323169  91.7777580
  46.6191563  51.5560197  90.7627451  48.4315114  49.8346068  83.4616689
  49.2662006  50.2735872  83.6254250  48.5674243  49.3584721  82.6424935
  45.4806620  47.3925803  89.4094177  45.9560742  47.5853449  88.6013028
  44.5572186  47.4484989  89.1637561  32.3690127  48.5549970  78.9925255
  32.1236169  47.6512300  79.1905465  32.5386042  48.5567121  78.0504733
  40.0586837  39.4273646  88.3750011  40.5768781  40.1634673  88.0496499
  39.7041970  39.7337640  89.2096770  31.6385775  44.2878328  76.4911417
  30.9455019  44.3622683  75.8351453  31.3937526  43.5238671  77.0132934
  40.3099431  35.8473929  83.8950907  40.5901185  35.1797118  84.5211334
  41.0950038  36.0403025  83.3825571  38.1132900  55.0232923  75.4575934
  37.5406867  55.6423110  75.0046406  38.6865693  55.5732285  75.9915856
  44.1808289  44.2691563  87.6422483  45.1325712  44.3689661  87.6634707
  44.0111740  43.4769832  88.1520567  42.2022669  41.3547146  87.8281883
  41.6072601  41.6352159  87.1328372  41.9172366  41.8441047  88.5998625
  41.3330159  55.3070073  76.5884516  42.2660832  55.2415635  76.7917392
  41.2453372  56.1426340  76.1299049  43.9618176  54.6235943  73.5488464
  43.8831808  54.2895807  74.4424222  44.7827843  55.1157711  73.5479936
  46.6596367  47.4897683  86.7564782  46.6272687  46.5513683  86.9424466
  47.2696991  47.5681719  86.0230607  38.4979698  46.3593736  72.7991986
  39.4438803  46.2299944  72.8680404  38.1193943  45.6208398  73.2761414
  46.8090856  44.2808726  86.8023065  46.2929904  43.4967183  86.6152994
  47.6930804  43.9527443  86.9669585  44.4701583  38.0249742  82.7618878
  44.2726404  37.7164830  83.6462210  45.0801288  38.7511381  82.8916808
  52.4772917  48.5513690  85.8970819  53.2076305  48.2898978  86.4578522
  51.8679862  47.8142411  85.9372887  50.5588214  46.6921552  86.4945270
  49.8321378  46.5577517  85.8861762  50.1435501  46.9998381  87.3001988
  38.3818391  50.4111482  94.2592643  39.3021400  50.5890081  94.4532690
  38.3467974  49.4667527  94.1072342  36.6822615  44.2843712  72.7346871
  35.7754071  43.9876825  72.8109585  36.9598596  43.9873530  71.8681158
  27.6000556  45.6050075  83.1845918  27.2803340  44.7515384  82.8920292
  27.0533984  45.8198654  83.9403885  31.3780463  48.3212516  86.9015424
  31.5966473  49.2529624  86.9203458  31.7906237  47.9620491  87.6870228
  38.2984681  38.8280602  78.8891113  37.4885409  38.4827687  79.2646359
  38.9869098  38.5188146  79.4778724  40.2275229  37.9058649  80.5115409
  40.7806268  38.3254102  81.1705433  40.4645316  36.9794397  80.5538365
  36.2508328  43.8945722  96.2918173  36.1505055  44.8440079  96.2230264
  36.0329870  43.5663961  95.4194243  35.4521400  41.1430647  72.8758851
  36.3140564  41.4685546  73.1354668  35.6371744  40.3562143  72.3631916
  27.4688816  49.2252987  85.1539039  26.7752287  48.8106940  84.6408994
  28.2161807  49.2673523  84.5572458  43.6054036  40.0159174  80.0194074
  43.0252705  40.6743978  79.6372126  43.3389969  39.1936518  79.6081491
  42.0557603  39.4164231  82.2215394  42.5557381  39.5280766  81.4129713
  42.6993211  39.1125284  82.8616202  36.1139598  47.3242861  95.1083235
  35.6306680  48.1243221  95.3147124  36.2000538  47.3350806  94.1550679
  29.3825558  49.1571241  83.0305054  29.3596246  49.2558928  82.0786937
  29.6926195  50.0036392  83.3522220  32.0412936  51.2147396  87.1451669
  32.9956190  51.1831338  87.0781600  31.8425460  50.7538020  87.9601895
  32.6312318  49.7848512  89.7122466  33.4505207  50.2792590  89.7357304
  32.9049126  48.8680480  89.6840034  42.3878914  42.1759264  79.0750422
  41.5004769  42.4608915  78.8570617  42.8032903  42.0153028  78.2277699
  45.7393450  42.2005785  82.7904761  46.5153841  42.6902238  83.0629378
  45.0141585  42.6263839  83.2476631  48.1766009  42.9133404  83.8478702
  48.7710500  42.6729140  83.1372010  48.2492593  42.1940535  84.4752238
  30.3963165  56.7567015  84.1621867  30.2617633  55.9967416  83.5959865
  29.9795227  57.4807915  83.6950656  41.5322128  51.9403939  73.1698442
  42.2357978  52.1453941  73.7856098  40.8084777  52.5080701  73.4347525
  42.3619938  47.6913800  79.2900712  42.3055139  48.1482351  78.4508345
  42.9148281  46.9304485  79.1123555  46.1724744  43.4803532  80.1150832
  45.9161678  43.0800168  80.9459039  45.5477612  44.1947326  79.9900971
  50.4837082  46.2199605  82.6222123  49.9236640  46.2892794  83.3953685
  49.8780585  46.0440590  81.9021619  33.5532291  57.6536332  84.3740309
  33.4364675  58.5981765  84.2719000  32.7324737  57.3509894  84.7626108
  43.4408825  52.3786468  75.2196902  44.2754429  51.9467666  75.0374377
  43.2793168  52.2068482  76.1473796  43.0954717  48.8818581  76.5853241
  43.0403521  48.7162853  75.6441685  42.4700773  49.5894614  76.7415431
  27.8847232  44.1186646  90.4114663  28.5306096  43.6085600  90.9001889
  27.6764383  44.8555327  90.9858089  40.4100625  51.1867493  95.9106804
  41.2791784  51.3608145  95.5493439  39.9307376  52.0061910  95.7882533
  36.4050843  38.3826690  76.1638560  36.3929513  39.3268530  76.3206831
  37.2974265  38.1996836  75.8698021  34.5786805  58.3064594  87.5896238
  35.4814051  58.3388204  87.9062733  34.3524175  57.3765045  87.6042573
  36.3340407  57.0595581  84.2506316  35.3836038  57.0597442  84.1370689
  36.6372893  56.3128315  83.7342351  40.2202962  34.9769467  80.4184496
  39.4535358  34.4227954  80.5641179  40.6313667  35.0491336  81.2798648
  32.2244723  41.2654263  94.5089678  33.0876185  40.9091068  94.7193002
  31.6510134  40.9268158  95.1965082  51.6234369  60.6207573  82.3905287
  52.4097458  60.2026996  82.0395704  51.8873073  61.5253665  82.5586935
  51.7944446  66.0580423  77.0893944  51.1590279  66.1315050  77.8014848
  51.4641853  66.6474022  76.4113023  48.5970527  60.2976313  88.3084807
  49.4431723  60.7215726  88.4519456  48.5369165  59.6409937  89.0023370
  44.7826224  54.6734979  95.5019649  44.3893170  54.1201178  96.1767293
  45.5992364  54.9845558  95.8926167  47.6994185  56.0892859  93.0939906
  48.4403898  56.6900012  93.0144368  47.9312108  55.3470496  92.5357948
  51.6451348  52.1173961  87.3704188  51.3015617  53.0075603  87.2943298
  52.0130311  51.9275619  86.5073773  49.1948742  56.9532273  80.9361861
  48.3390338  56.5639124  80.7567500  49.6075694  57.0324234  80.0761647
  50.7247888  54.4878617  85.3353421  50.2212684  54.4508752  84.5221226
  51.0178495  55.3971359  85.3950077  46.9690774  54.5717346  84.3419602
  47.8343771  54.3760155  83.9825492  47.0368283  54.3427698  85.2688959
  46.8775761  53.6760803  80.4411039  46.2240173  53.3609820  79.8167653
  46.8356235  53.0536544  81.1670862  47.9886966  63.9580098  72.3564331
  47.0814028  63.7269352  72.5555480  48.4857998  63.1617717  72.5438312
  53.3427386  58.5991269  81.8780156  52.6050143  58.0868655  82.2090398
  53.5954160  58.1591650  81.0663433  53.4439014  51.3767521  82.4721925
  53.7497891  50.5164884  82.1847840  54.1691619  51.9685141  82.2720919
  48.8651287  65.6001437  74.2176399  48.4270717  64.8837296  73.7582037
  49.6061728  65.8277552  73.6561491  50.7421676  69.5437255  86.8197090
  50.7958699  70.1128191  87.5874806  49.8736458  69.7139140  86.4551127
  49.5245642  55.8716752  90.3187202  48.8773557  56.5706702  90.2251679
  50.2946657  56.3052896  90.6863450  50.0503323  67.1129784  83.5371397
  49.7153156  67.0730554  84.4329047  49.5507269  66.4474500  83.0641808
  44.7761061  58.6771243  72.9329761  43.8990527  58.5560043  72.5692008
  45.2518814  57.8857321  72.6808650  51.2721637  56.8392163  82.8226487
  51.7690336  56.0862125  82.5027557  50.5008618  56.8756479  82.2569697
  53.7140632  53.8061756  84.9705846  52.8003711  54.0365983  85.1388053
  54.1433733  53.8900200  85.8219878  39.5039755  60.2713098  78.3742667
  39.7993196  59.3623776  78.3209721  38.6027790  60.2500837  78.0523669
  51.4125833  71.9920362  85.1793075  51.2876973  71.1910102  84.6704021
  52.0704924  72.4866555  84.6907045  45.8360315  55.6823521  90.6310867
  46.3594717  55.9285818  91.3937177  45.6172648  56.5143556  90.2114005
  47.0412860  56.6237216  88.3160538  46.7009680  55.8245029  88.7181218
  46.3351866  56.9238927  87.7437371  47.6929332  53.7086529  86.7687861
  48.5155401  53.2347007  86.6466751  47.9367395  54.4877012  87.2686547
  46.3337566  56.7374787  77.0650763  47.0545929  57.1156040  76.5614479
  45.7102871  57.4563664  77.1685741  50.4768689  57.4419936  78.0009095
  50.6932304  58.3244574  77.6997923  49.9962756  57.0506149  77.2714737
  47.0764294  57.3908197  84.6260729  47.0625862  56.4949290  84.2893027
  47.7936722  57.3978861  85.2599015  48.9290424  57.8245537  86.6713857
  48.6708202  58.7462608  86.6698187  48.3975465  57.4275972  87.3614321
  46.4801190  56.2722577  79.8948299  46.6017101  55.3439224  80.0939187
  46.1903232  56.2861263  78.9826615  49.3492380  53.9577488  83.0315019
  49.3714077  54.0216821  82.0766999  49.7660439  53.1181997  83.2255525
  51.1493186  51.1765847  83.8950907  51.4294939  50.5089036  84.5211334
  51.9343792  51.3694942  83.3825571  49.3373453  61.6885653  72.7991986
  50.2832557  61.5591861  72.8680404  48.9587697  60.9500315  73.2761414
  55.3095337  53.3541659  82.7618878  55.1120158  53.0456748  83.6462210
  55.9195043  54.0803298  82.8916808  47.5216370  59.6135630  72.7346871
  46.6147825  59.3168742  72.8109585  47.7992351  59.3165448  71.8681158
  49.1378435  54.1572519  78.8891113  48.3279164  53.8119604  79.2646359
  49.8262852  53.8480063  79.4778724  51.0668984  53.2350566  80.5115409
  51.6200022  53.6546020  81.1705433  51.3039070  52.3086314  80.5538365
  46.2915154  56.4722565  72.8758851  47.1534318  56.7977463  73.1354668
  46.4765498  55.6854061  72.3631916  54.4447791  55.3451091  80.0194074
  53.8646460  56.0035895  79.6372126  54.1783723  54.5228436  79.6081491
  52.8951357  54.7456149  82.2215394  53.3951135  54.8572684  81.4129713
  53.5386965  54.4417202  82.8616202  53.2272669  57.5051182  79.0750422
  52.3398524  57.7900832  78.8570617  53.6426658  57.3444945  78.2277699
  38.7240987  59.4478563  90.4114663  39.3699850  58.9377517  90.9001889
  38.5158138  60.1847245  90.9858089  47.2444597  53.7118608  76.1638560
  47.2323267  54.6560448  76.3206831  48.1368019  53.5288753  75.8698021
  51.0596717  50.3061385  80.4184496  50.2929113  49.7519871  80.5641179
  51.4707422  50.3783253  81.2798648  43.0638478  56.5946180  94.5089678
  43.9269939  56.2382985  94.7193002  42.4903888  56.2560075  95.1965082
  49.9221911  75.6208418  86.4975313  50.1729950  76.5055428  86.7632889
  50.4581460  75.4413019  85.7250405  50.5307327  78.2702911  87.5167501
  49.9860795  79.0462719  87.6487775  51.4086677  78.6173716  87.3586622
  53.0567972  78.9796352  86.9015424  53.2753982  79.9113460  86.9203458
  53.4693746  78.6204326  87.6870228  49.1476325  79.8836822  85.1539039
  48.4539796  79.4690775  84.6408994  49.8949316  79.9257359  84.5572458
  77.2550886 110.6894777  81.2410494  76.6915751 110.5984714  80.4726782
  77.1403281 109.8694681  81.7212987  81.8783853 109.9894152  91.2099809
  81.8672494 109.5946950  90.3380313  82.0404492 109.2560225  91.8033580
  74.8015318 112.1845968  84.0794715  75.5936610 111.8436793  83.6641014
  75.0411968 112.2940943  84.9996868  82.8350444 114.3565744  76.5524959
  82.1838424 114.9419825  76.1658973  83.6294807 114.8871939  76.6119997
  76.7606072 111.4454882  76.9512094  77.5336948 110.8983869  76.8124969
  77.1131470 112.3099131  77.1626555  78.5991114 112.7731264  90.1578993
  78.3080980 113.6776895  90.0425659  79.2348099 112.8147791  90.8723062
  79.5247321 110.1508112  86.7480353  80.1210893 109.9264135  86.0337316
  79.5822293 109.4092858  87.3505800  79.0972349 107.6047548  74.5830544
  79.3497870 107.0829069  73.8214007  78.1596908 107.4413693  74.6857227
  84.1415632 106.6083326  82.3905287  84.9278721 106.1902749  82.0395704
  84.4054337 107.5129418  82.5586935  84.3125710 112.0456176  77.0893944
  83.6771543 112.1190803  77.8014848  83.9823116 112.6349775  76.4113023
  78.8168638 109.5075654  76.7854918  78.7004896 108.8320557  77.4536003
  78.9270898 109.0208028  75.9687072  81.1600179 108.9685801  80.4901608
  80.7958386 108.4416422  81.2014529  82.0167295 108.5784270  80.3168093
  83.5580999 112.4592679  87.1528787  83.2581722 113.3617718  87.0444594
  83.2132059 112.1924863  88.0049939  80.7794887 106.4533358  76.4709623
  80.6594512 106.8990409  77.3095103  80.0847475 106.8018676  75.9123161
  78.5401779 119.2237000  80.1199754  78.4625809 120.1744825  80.1988235
  77.9363423 118.8782872  80.7774681  86.4779953 106.9254831  77.2989957
  87.3897809 107.1582218  77.1237655  85.9689600 107.5091875  76.7365036
  84.7620721 111.3479459  90.9351250  85.1704077 110.9061869  90.1905882
  84.0397982 110.7732086  91.1885443  85.0849535 111.9080650  84.6903539
  84.4558398 112.0726364  83.9879606  84.6975197 112.3222259  85.4614503
  88.9638767 112.8435087  82.0447902  88.2789805 113.2233989  81.4944936
  89.0482617 113.4530414  82.7779850  86.2189699 110.4895046  88.6443246
  86.4306594 111.1326806  87.9677627  86.1719447 109.6557363  88.1765176
  80.6377497 111.6455058  81.9553624  81.1015843 111.9242761  81.1658246
  80.3734295 110.7438502  81.7726714  77.5301578 111.1926539  84.8933387
  78.1002935 111.6213808  84.2550871  78.1209690 110.9109124  85.5917573
  79.5746383 107.7678210  78.7643189  80.2770427 108.2199254  79.2317115
  79.2427012 107.1262029  79.3923082  87.3335527 113.3667002  86.8165603
  88.1552971 112.9647189  86.5348285  87.3297930 113.2635236  87.7681719
  81.0992130 112.9151045  88.9726314  81.1636563 113.3771452  89.8084486
  80.3903054 112.2848410  89.1008624  95.4241520 109.7105750  83.1650575
  94.6705228 109.1413148  83.0094579  95.5589061 109.6768415  84.1121209
  80.8140148 114.5819153  78.8405294  80.6785823 115.4270688  79.2690142
  81.3549960 114.7838430  78.0771228  74.2669545 112.0994591  79.4133219
  74.7794066 112.8937841  79.5638784  74.9192258 111.4020881  79.3466821
  76.0764430 115.2160347  81.4955972  76.2531058 116.1378312  81.3076956
  76.8721264 114.9018766  81.9250352  82.4408624 115.2042719  92.9705636
  81.9972479 114.4179098  92.6526541  83.1025838 115.3921870  92.3049527
  77.1995746 116.7338521  87.4966315  77.7503171 116.6055584  86.7243309
  76.3607221 117.0333410  87.1461207  84.5389862 115.4845519  90.9987037
  84.5208338 116.3054400  90.5067307  85.4609782 115.3599594  91.2237179
  80.9962917 112.9989649  91.8410546  81.5291253 112.2377937  91.6109854
  80.4676998 112.7063300  92.5834700  72.2318462 110.4283245  80.1892790
  73.0693684 110.8380253  79.9726497  72.4096730 109.4882687  80.1592984
  84.1282894 108.0958326  75.8776623  83.6129518 108.8662930  76.1165010
  83.8560203 107.4223462  76.5009684  89.1017168 110.8490680  77.8129796
  88.3246611 110.5101840  77.3684958  89.7808649 110.8543303  77.1384761
  83.9169197 105.9685418  77.7036404  83.6119333 106.2831567  78.5546547
  84.8699640 106.0466838  77.7463737  82.3615629 112.1275641  79.3529358
  81.8336991 111.3928401  79.0402595  81.8603132 112.9050317  79.1069326
  87.3408475 110.3224661  84.4696404  86.6832150 111.0123923  84.5576533
  88.1448874 110.7121093  84.8130390  86.1513934 108.6769034  82.5200346
  86.6645816 109.3099026  83.0222056  86.8015158 108.0770230  82.1543706
  80.5068229 109.9455851  72.3564331  79.5995291 109.7145105  72.5555480
  81.0039261 109.1493471  72.5438312  83.4136308 118.6553358  75.2761017
  82.7398007 118.9585055  75.8845975  83.8002130 119.4582439  74.9266474
  83.4129813 107.5509905  79.8961367  84.1601632 108.0631303  79.5868489
  83.6821402 107.2293958  80.7565760  81.6856463 110.0468446  76.8788321
  80.7767682 109.7627479  76.9760791  81.7151547 110.4667525  76.0191628
  86.9175730 113.6575036  80.6479488  86.4638057 112.8165946  80.7044679
  86.2869697 114.2936434  80.9854269  85.3608670 115.4951532  81.5829307
  85.6531644 116.0556589  80.8641672  85.8707290 115.7880093  82.3382466
  72.2544633 107.7673960  80.8603523  72.0569033 107.1743321  80.1354590
  71.6991297 107.4626170  81.5779462  81.3832551 111.5877190  74.2176399
  80.9451981 110.8713049  73.7582037  82.1242992 111.8153305  73.6561491
  80.3242295 116.2731883  82.6722760  80.2818474 116.4992730  81.7431292
  81.2404994 116.0395258  82.8208561  89.5005665 109.8634387  80.2752718
  89.3623564 110.0535983  79.3473907  89.1441884 110.6253770  80.7320769
  89.5275045 111.9310914  85.2863990  89.9611552 111.8386203  86.1347044
  90.2406626 111.9068414  84.6484006  78.4408095 113.1494912  82.4684723
  79.2348694 112.6545233  82.2667297  77.7299788 112.6212776  82.1052428
  83.2602940 115.5313008  86.8197090  83.3139962 116.1003944  87.5874806
  82.3917721 115.7014893  86.4551127  90.3890595 111.9734614  87.8196875
  90.5826485 112.8780425  88.0656150  90.2891213 111.5142034  88.6535460
  85.4505703 112.1241357  93.3937756  85.2991210 111.8951909  92.4767839
  85.4410383 113.0811959  93.4069101  81.0179371 113.7223934  86.1482560
  80.8790457 113.3542719  87.0208498  80.2293968 114.2371574  85.9766517
  81.6127523 118.8233031  77.4908096  81.7879279 118.3521074  78.3053719
  80.9260311 119.4498797  77.7189357  82.5684587 113.1005537  83.5371397
  82.2334419 113.0606307  84.4329047  82.0688532 112.4350253  83.0641808
  85.5043778 110.4461571  73.8108457  84.8872949 109.7208400  73.7141510
  85.0360267 111.2070932  73.4675531  87.1597910 115.1560480  91.4714237
  87.1010456 114.4719700  90.8044820  87.5617428 115.8979470  91.0194863
  76.1788609 121.9722394  84.2647956  76.4185207 122.6040918  84.9426975
  75.3357805 121.6210434  84.5513316  87.1615317 113.1200064  89.7028217
  86.2742096 112.7825986  89.8254616  87.7313868 112.3883095  89.9396982
  68.8144464 109.4524155  83.0271268  69.5015504 109.1385886  82.4392284
  68.6592593 110.3565520  82.7538520  80.6916471 117.7801516  86.6689460
  80.6186642 118.5856488  87.1808765  80.2493864 117.9793482  85.8437482
  80.4806250 117.0173286  80.1792282  79.6973772 117.5594966  80.2730506
  81.1798995 117.5347266  80.5786523  91.6432658 108.5308281  84.4644779
  91.6322534 109.4132997  84.0938712  90.7750037 108.1779832  84.2699316
  83.1515154 117.6788350  88.8247619  83.8643126 118.3135815  88.7523520
  82.6605183 117.7752216  88.0087621  84.8732681 111.5839603  80.3964911
  83.9388960 111.7041065  80.2269615  85.0509350 110.6812070  80.1324920
  88.2605232 107.4256922  80.9314945  88.7265685 108.2584914  80.8575247
  88.7112733 106.9601904  81.6360203  78.2027068 115.4282794  89.6453190
  78.9036527 116.0619277  89.7982584  77.7322183 115.7697525  88.8848829
  86.3281463 113.7700743  77.9301097  86.6041307 113.6557338  78.8394971
  85.4585962 113.3718228  77.8913270  82.9635528 118.0187094  81.5733910
  83.1457922 117.2008750  82.0361663  83.7868514 118.2354786  81.1358800
  83.2977693 116.9455279  78.8348959  83.8265459 116.4347734  78.2219121
  83.5605913 116.6297810  79.6994492  82.0515927 108.7247212  93.9571777
  81.3756564 108.6241341  94.6274152  82.8743561 108.5686426  94.4207774
  73.7994786 114.9619149  86.5784292  74.3848223 114.2162837  86.7112197
  73.6019624 115.2723105  87.4620956  76.6533441 117.9970396  81.5946735
  75.9843816 118.4816524  81.1110775  76.5146311 118.2439616  82.5090113
  80.7938710 120.0314140  88.1929393  81.3457018 120.1945761  88.9578478
  81.1344903 120.6218577  87.5209418  85.6449584 114.8575397  94.0478048
  86.1889488 115.4705355  93.5533002  85.0636429 115.4154975  94.5645061
  83.9307097 117.9796115  85.1793075  83.8058236 117.1785855  84.6704021
  84.5886188 118.4742308  84.6907045  85.9942005 115.7805135  86.8072625
  85.0472341 115.6610486  86.7350952  86.3424778 114.8927633  86.8898887
  82.9988439 115.5757851  83.0076978  82.8513401 114.6474559  83.1884548
  83.8241932 115.5977942  82.5234053  86.6022560 116.3986410  84.0941850
  87.5269108 116.1929271  83.9566302  86.4337864 116.1502811  85.0031192
  82.9949953 103.4295689  78.0009095  83.2113567 104.3120327  77.6997923
  82.5144020 103.0381902  77.2714737  86.3917877 116.9172078  79.4503942
  86.5654754 116.3518500  78.6977794  86.8846768 117.7172972  79.2683432
  92.2457268 109.6808500  81.0694242  92.6888414 108.9315826  80.6713365
  91.3683778 109.6718637  80.6867974  87.3793049 116.2338842  76.5500840
  88.0743954 116.8545535  76.7688155  87.7216199 115.3834193  76.8253218
  89.2784472 113.6838547  78.0788171  89.8035796 114.0225820  77.3537491
  89.1906825 112.7485563  77.8951306  80.9404521 117.5972621  90.2078048
  81.2491647 117.3521768  91.0800747  81.7380003 117.8019260  89.7196918
  80.9625133 119.7510531  82.4383424  80.5230123 119.2586909  83.1316281
  81.7133250 119.2083498  82.1975499  73.4417472 115.9422072  82.4408052
  74.2675492 115.6425843  82.0606696  73.0911524 115.1729694  82.8897841
  78.4099005 115.2948540  84.5105726  77.7879014 114.6319245  84.2107954
  79.0803872 115.3209672  83.8279374  71.6426077 113.8608398  83.3996986
  70.8057985 113.4330572  83.2180987  71.6149722 114.0540841  84.3367777
  88.9678378 114.3171451  93.3839369  88.1773922 114.2995590  92.8443868
  88.7311733 114.8559745  94.1388405  89.0876253 111.1663917  90.6972097
  89.1374258 111.0013925  91.6387620  88.9790177 110.2991177  90.3069978
  77.9712512 113.8452463  77.9864186  78.1200632 114.5287928  77.3330859
  78.7778955 113.8257553  78.5013642  90.5894450 113.5860859  90.9414119
  90.2979258 113.9490840  91.7777580  89.9766581 112.8727867  90.7627451
  91.7890132 111.1513739  83.4616689  92.6237024 111.5903543  83.6254250
  91.9249261 110.6752392  82.6424935  75.7265145 109.8717641  78.9925255
  75.4811187 108.9679971  79.1905465  75.8961059 109.8734791  78.0504733
  81.4707917 116.3400594  75.4575934  80.8981885 116.9590781  75.0046406
  82.0440711 116.8899955  75.9915856  84.6905177 116.6237744  76.5884516
  85.6235850 116.5583305  76.7917392  84.6028390 117.4594011  76.1299049
  87.3193194 115.9403614  73.5488464  87.2406825 115.6063478  74.4424222
  88.1402861 116.4325382  73.5479936  90.0171385 108.8065353  86.7564782
  89.9847705 107.8681354  86.9424466  90.6272009 108.8849390  86.0230607
  81.8554716 107.6761406  72.7991986  82.8013821 107.5467614  72.8680404
  81.4768961 106.9376068  73.2761414  95.8347935 109.8681360  85.8970819
  96.5651323 109.6066648  86.4578522  95.2254880 109.1310082  85.9372887
  93.9163232 108.0089223  86.4945270  93.1896396 107.8745188  85.8861762
  93.5010519 108.3166051  87.3001988  81.7393409 111.7279153  94.2592643
  82.6596418 111.9057752  94.4532690  81.7042992 110.7835198  94.1072342
  80.0397633 105.6011383  72.7346871  79.1329089 105.3044495  72.8109585
  80.3173614 105.3041201  71.8681158  74.7355481 109.6380187  86.9015424
  74.9541491 110.5697295  86.9203458  75.1481255 109.2788162  87.6870228
  70.8263834 110.5420658  85.1539039  70.1327305 110.1274610  84.6408994
  71.5736825 110.5841194  84.5572458  72.7400576 110.4738911  83.0305054
  72.7171264 110.5726599  82.0786937  73.0501213 111.3204062  83.3522220
  75.3987954 112.5315066  87.1451669  76.3531207 112.4999009  87.0781600
  75.2000478 112.0705690  87.9601895  85.7453932 103.4926935  79.0750422
  84.8579787 103.7776585  78.8570617  86.1607921 103.3320698  78.2277699
  91.5341027 104.2301075  83.8478702  92.1285518 103.9896811  83.1372010
  91.6067611 103.5108206  84.4752238  73.7538183 118.0734686  84.1621867
  73.6192651 117.3135087  83.5959865  73.3370245 118.7975586  83.6950656
  84.8897146 113.2571609  73.1698442  85.5932996 113.4621612  73.7856098
  84.1659794 113.8248371  73.4347525  85.7194956 109.0081471  79.2900712
  85.6630157 109.4650022  78.4508345  86.2723298 108.2472155  79.1123555
  89.5299762 104.7971203  80.1150832  89.2736696 104.3967838  80.9459039
  88.9052630 105.5114997  79.9900971  93.8412100 107.5367276  82.6222123
  93.2811658 107.6060465  83.3953685  93.2355603 107.3608261  81.9021619
  76.9107309 118.9704003  84.3740309  76.7939693 119.9149435  84.2719000
  76.0899755 118.6677565  84.7626108  86.7983843 113.6954139  75.2196902
  87.6329447 113.2635337  75.0374377  86.6368186 113.5236152  76.1473796
  86.4529735 110.1986252  76.5853241  86.3978539 110.0330523  75.6441685
  85.8275791 110.9062285  76.7415431  83.7675642 112.5035164  95.9106804
  84.6366802 112.6775816  95.5493439  83.2882394 113.3229581  95.7882533
  77.9361823 119.6232265  87.5896238  78.8389069 119.6555875  87.9062733
  77.7099193 118.6932716  87.6042573  79.6915425 118.3763251  84.2506316
  78.7411056 118.3765113  84.1370689  79.9947911 117.6295986  83.7342351
  95.4268118 124.2123790  85.3152079  96.0646528 124.0930537  84.6115419
  95.3088961 125.1604634  85.3740031  92.2357825 124.1651218  85.2513603
  91.8976336 124.0492283  84.3634138  93.1047593 123.7642383  85.2314610
  88.0944640 126.0186694  81.2410494  87.5309505 125.9276631  80.4726782
  87.9797035 125.1986599  81.7212987  92.7177608 125.3186070  91.2099809
  92.7066248 124.9238868  90.3380313  92.8798247 124.5852142  91.8033580
  85.6409072 127.5137886  84.0794715  86.4330364 127.1728711  83.6641014
  85.8805722 127.6232861  84.9996868  93.6744199 129.6857662  76.5524959
  93.0232179 130.2711742  76.1658973  94.4688562 130.2163857  76.6119997
  87.5999826 126.7746799  76.9512094  88.3730702 126.2275786  76.8124969
  87.9525225 127.6391049  77.1626555  89.4384869 128.1023181  90.1578993
  89.1474735 129.0068812  90.0425659  90.0741853 128.1439709  90.8723062
  90.3641075 125.4800030  86.7480353  90.9604648 125.2556052  86.0337316
  90.4216047 124.7384775  87.3505800  89.9366104 122.9339465  74.5830544
  90.1891625 122.4120987  73.8214007  88.9990663 122.7705611  74.6857227
  94.9809387 121.9375244  82.3905287  95.7672476 121.5194667  82.0395704
  95.2448091 122.8421336  82.5586935  95.1519464 127.3748094  77.0893944
  94.5165297 127.4482720  77.8014848  94.8216870 127.9641693  76.4113023
 100.3817814 121.8750477  83.2938265 101.1142986 121.3049694  83.5276095
  99.6257170 121.4872077  83.7344771  89.6562393 124.8367571  76.7854918
  89.5398651 124.1612475  77.4536003  89.7664653 124.3499945  75.9687072
  91.9993934 124.2977718  80.4901608  91.6352141 123.7708339  81.2014529
  92.8561049 123.9076187  80.3168093  97.9043234 115.5872051  87.7532874
  97.5726559 116.4567462  87.5294089  97.3088848 115.2708335  88.4326904
  91.6399421 119.3267618  75.4862956  91.8073823 120.1947854  75.8533427
  91.4496590 119.4894900  74.5624245  94.3974754 127.7884597  87.1528787
  94.0975477 128.6909636  87.0444594  94.0525813 127.5216780  88.0049939
  87.8487235 124.2398394  83.1865491  86.9237732 124.1074608  83.3943183
  88.0971648 125.0192613  83.6835433  97.7971898 120.3067137  84.8326224
  96.8888775 120.2382546  84.5384985  97.7459493 120.7839082  85.6608049
  91.6188641 121.7825276  76.4709623  91.4988267 122.2282326  77.3095103
  90.9241230 122.1310593  75.9123161  85.2096046 123.8831667  84.0209280
  85.3388427 124.1366146  84.9348692  84.5293498 124.4759375  83.7013935
  89.3795534 134.5528917  80.1199754  89.3019563 135.5036742  80.1988235
  88.7757177 134.2074790  80.7774681  91.8712763 121.7256783  92.7761121
  91.0946097 122.2850703  92.7663986  92.5103326 122.2113566  93.2975991
  99.6633544 118.5083576  86.6104098  99.0207924 118.8016109  85.9643892
  99.1588472 118.3936496  87.4157295  97.3173708 122.2546749  77.2989957
  98.2291564 122.4874135  77.1237655  96.8083355 122.8383793  76.7365036
  90.1259136 124.5342236  92.3379088  90.8673820 125.0727280  92.0613912
  89.4196121 125.1608525  92.4950640  95.6014475 126.6771377  90.9351250
  96.0097831 126.2353787  90.1905882  94.8791737 126.1024004  91.1885443
  91.9545545 121.6143983  88.3084807  92.8006740 122.0383397  88.4519456
  91.8944183 120.9577608  89.0023370  95.9243290 127.2372567  84.6903539
  95.2952152 127.4018281  83.9879606  95.5368952 127.6514177  85.4614503
  99.8032522 128.1727005  82.0447902  99.1183560 128.5525906  81.4944936
  99.8876371 128.7822332  82.7779850  95.1044991 119.2748352  89.9665980
  94.8605922 120.0290412  89.4300256  95.3804921 119.6533699  90.8013227
  97.0583453 125.8186964  88.6443246  97.2700349 126.4618724  87.9677627
  97.0113202 124.9849281  88.1765176  94.6609682 118.4304785  85.5479818
  93.7994161 118.7286038  85.8396556  94.6872117 118.6475184  84.6160851
  91.4771252 126.9746975  81.9553624  91.9409597 127.2534678  81.1658246
  91.2128050 126.0730420  81.7726714  88.3695333 126.5218457  84.8933387
  88.9396690 126.9505725  84.2550871  88.9603445 126.2401042  85.5917573
  90.4140138 123.0970128  78.7643189  91.1164181 123.5491171  79.2317115
  90.0820766 122.4553947  79.3923082  88.8620499 121.6881884  93.1394398
  88.2319160 122.3698165  93.3729795  88.7556587 121.5764966  92.1947536
  84.1565472 121.3553680  84.0660322  83.3664526 121.6111209  83.5900433
  84.6476719 122.1702018  84.1712363  98.1729281 128.6958919  86.8165603
  98.9946725 128.2939107  86.5348285  98.1691684 128.5927154  87.7681719
  86.1080217 121.7198260  81.0243799  85.3111380 121.8316954  81.5427295
  85.8805809 122.0584912  80.1584690  91.9385885 128.2442963  88.9726314
  92.0030317 128.7063370  89.8084486  91.2296809 127.6140328  89.1008624
  82.4403175 121.6084171  86.4975313  82.6911213 122.4931181  86.7632889
  82.9762723 121.4288772  85.7250405 106.2635274 125.0397668  83.1650575
 105.5098983 124.4705066  83.0094579 106.3982816 125.0060332  84.1121209
  91.6533902 129.9111070  78.8405294  91.5179577 130.7562606  79.2690142
  92.1943715 130.1130348  78.0771228  88.1401242 115.9902650  95.5019649
  87.7468188 115.4368849  96.1767293  88.9567382 116.3013229  95.8926167
  85.1063300 127.4286508  79.4133219  85.6187820 128.2229759  79.5638784
  85.7586013 126.7312799  79.3466821  86.9158185 130.5452265  81.4955972
  87.0924813 131.4670229  81.3076956  87.7115018 130.2310684  81.9250352
  91.0569203 117.4060529  93.0939906  91.7978916 118.0067682  93.0144368
  91.2887126 116.6638167  92.5357948  86.2010541 122.5916896  91.3718136
  86.0864056 121.6902154  91.6725234  85.3455059 122.8380593  91.0202952
  93.2802379 130.5334637  92.9705636  92.8366233 129.7471015  92.6526541
  93.9419592 130.7213787  92.3049527  88.0389500 132.0630438  87.4966315
  88.5896925 131.9347502  86.7243309  87.2000976 132.3625327  87.1461207
  95.3783617 130.8137437  90.9987037  95.3602092 131.6346318  90.5067307
  96.3003537 130.6891512  91.2237179  91.8356671 128.3281566  91.8410546
  92.3685008 127.5669854  91.6109854  91.3070752 128.0355218  92.5834700
  95.0026366 113.4341632  87.3704188  94.6590635 114.3243274  87.2943298
  95.3705329 113.2443290  86.5073773  83.0712217 125.7575163  80.1892790
  83.9087439 126.1672171  79.9726497  83.2490484 124.8174605  80.1592984
  94.9676649 123.4250243  75.8776623  94.4523272 124.1954848  76.1165010
  94.6953957 122.7515379  76.5009684  92.5523760 118.2699944  80.9361861
  91.6965356 117.8806794  80.7567500  92.9650712 118.3491905  80.0761647
  94.0822906 115.8046287  85.3353421  93.5787702 115.7676422  84.5221226
  94.3753513 116.7139030  85.3950077  90.3265792 115.8885017  84.3419602
  91.1918789 115.6927826  83.9825492  90.3943301 115.6595369  85.2688959
  99.9410923 126.1782598  77.8129796  99.1640366 125.8393757  77.3684958
 100.6202404 126.1835221  77.1384761  94.7562952 121.2977335  77.7036404
  94.4513087 121.6123485  78.5546547  95.7093394 121.3758755  77.7463737
  93.2009384 127.4567559  79.3529358  92.6730745 126.7220318  79.0402595
  92.6996886 128.2342235  79.1069326  98.1802230 125.6516579  84.4696404
  97.5225904 126.3415841  84.5576533  98.9842629 126.0413011  84.8130390
  87.9328111 118.1187225  81.7135969  88.5071863 117.8962406  80.9809162
  88.5199094 118.1875919  82.4664571  96.9907689 124.0060952  82.5200346
  97.5039570 124.6390944  83.0222056  97.6408912 123.4062147  82.1543706
  88.2597698 120.1491686  75.7331855  87.4235011 120.4866373  76.0541129
  88.1202468 120.0140666  74.7958992  90.2350779 114.9928474  80.4411039
  89.5815191 114.6777491  79.8167653  90.1931253 114.3704214  81.1670862
  91.3461984 125.2747769  72.3564331  90.4389046 125.0437022  72.5555480
  91.8433016 124.4785388  72.5438312  94.2530063 133.9845276  75.2761017
  93.5791762 134.2876973  75.8845975  94.6395885 134.7874356  74.9266474
  93.4688519 121.4810407  84.7658686  92.5511081 121.7025354  84.6080374
  93.8848663 121.5556718  83.9070394  94.2523567 122.8801823  79.8961367
  94.9995386 123.3923220  79.5868489  94.5215157 122.5585876  80.7565760
  92.5250217 125.3760364  76.8788321  91.6161437 125.0919397  76.9760791
  92.5545301 125.7959442  76.0191628  97.7569485 128.9866953  80.6479488
  97.3031812 128.1457863  80.7044679  97.1263451 129.6228352  80.9854269
  96.7002404 119.9158939  81.8780156  95.9625161 119.4036326  82.2090398
  96.9529178 119.4759321  81.0663433  96.2002424 130.8243450  81.5829307
  96.4925398 131.3848507  80.8641672  96.7101045 131.1172011  82.3382466
  96.8014032 112.6935191  82.4721925  97.1072908 111.8332555  82.1847840
  97.5266636 113.2852812  82.2720919  83.0938388 123.0965878  80.8603523
  82.8962788 122.5035239  80.1354590  82.5385052 122.7918088  81.5779462
  91.0735111 122.9888984  82.9798116  91.1283721 122.0362821  82.9040593
  90.2626313 123.1448423  83.4639415  92.2226305 126.9169107  74.2176399
  91.7845735 126.2004966  73.7582037  92.9636746 127.1445222  73.6561491
  89.0127471 121.6066044  80.7388495  88.1995337 121.9060215  81.1453687
  89.5086466 121.2121733  81.4562977  91.1636049 131.6023801  82.6722760
  91.1212228 131.8284647  81.7431292  92.0798748 131.3687176  82.8208561
  94.6101683 122.0707869  89.5703389  94.9651071 122.2979342  90.4297855
  95.2573814 122.4026245  88.9480644 100.3399420 125.1926305  80.2752718
 100.2017319 125.3827900  79.3473907  99.9835639 125.9545687  80.7320769
  88.5041546 119.1784400  86.3549730  89.1440925 119.0373159  85.6572693
  87.6719077 118.8918913  85.9788332 100.3668800 127.2602832  85.2863990
 100.8005306 127.1678121  86.1347044 101.0800380 127.2360332  84.6484006
  89.2801850 128.4786830  82.4684723  90.0742448 127.9837150  82.2667297
  88.5693542 127.9504693  82.1052428  94.0996694 130.8604926  86.8197090
  94.1533717 131.4295862  87.5874806  93.2311476 131.0306811  86.4551127
  85.5884613 122.6229912  78.5444475  84.6582202 122.5614367  78.7614437
  85.6842085 122.1005865  77.7481116  85.5070163 119.1484725  81.1322717
  85.7676980 120.0630058  81.0231877  86.3287335 118.6809167  81.2819330
  86.9795088 120.5622482  88.3021541  87.6518141 120.3539844  87.6534190
  86.1524874 120.3644568  87.8626774 101.2284349 127.3026532  87.8196875
 101.4220239 128.2072343  88.0656150 101.1284967 126.8433951  88.6535460
  92.8820660 117.1884423  90.3187202  92.2348575 117.8874372  90.2251679
  93.6521675 117.6220567  90.6863450  96.2899458 127.4533275  93.3937756
  96.1384964 127.2243827  92.4767839  96.2804137 128.4103876  93.4069101
  93.0584794 125.0265188  88.3784022  93.9876854 125.1776347  88.2052989
  92.6375824 125.1149208  87.5232669  91.8573126 129.0515852  86.1482560
  91.7184212 128.6834636  87.0208498  91.0687722 129.5663492  85.9766517
  92.4521278 134.1524949  77.4908096  92.6273034 133.6812992  78.3053719
  91.7654066 134.7790715  77.7189357  93.4078341 128.4297455  83.5371397
  93.0728174 128.3898225  84.4329047  92.9082287 127.7642171  83.0641808
  87.3822585 123.8365085  89.0623979  87.2442383 123.1045324  89.6635518
  88.2927509 123.7473985  88.7808166  96.3437533 125.7753489  73.8108457
  95.7266703 125.0500317  73.7141510  95.8754021 126.5362849  73.4675531
  90.0104886 123.5485044  88.5507658  90.7204504 122.9078236  88.5094277
  89.9674194 123.7997939  89.4733839  97.9991664 130.4852397  91.4714237
  97.9404211 129.8011618  90.8044820  98.4011183 131.2271387  91.0194863
  88.7233820 120.5350262  90.3703298  88.1871177 120.0841000  91.0224894
  88.1350528 120.6696171  89.6273762  87.0182363 137.3014311  84.2647956
  87.2578961 137.9332835  84.9426975  86.1751560 136.9502351  84.5513316
  88.1336079 119.9938913  72.9329761  87.2565545 119.8727714  72.5692008
  88.6093832 119.2024992  72.6808650  98.0009072 128.4491981  89.7028217
  97.1135850 128.1117903  89.8254616  98.5707623 127.7175013  89.9396982
  79.6538219 124.7816073  83.0271268  80.3409259 124.4677803  82.4392284
  79.4986348 125.6857438  82.7538520  84.4572941 119.6706270  87.4556292
  84.3731130 119.0631939  86.7206702  83.6355647 120.1615288  87.4565789
  91.5310225 133.1093434  86.6689460  91.4580397 133.9148405  87.1808765
  91.0887618 133.3085400  85.8437482  91.3200005 132.3465204  80.1792282
  90.5367527 132.8886884  80.2730506  92.0192750 132.8639183  80.5786523
  94.6296655 118.1559833  82.8226487  95.1265354 117.4029796  82.5027557
  93.8583636 118.1924150  82.2569697 102.4826412 123.8600199  84.4644779
 102.4716288 124.7424914  84.0938712 101.6143792 123.5071750  84.2699316
  93.9908909 133.0080268  88.8247619  94.7036881 133.6427733  88.7523520
  93.4998937 133.1044134  88.0087621  95.7126436 126.9131520  80.3964911
  94.7782714 127.0332983  80.2269615  95.8903104 126.0103987  80.1324920
  91.2131624 120.2977216  82.5498172  90.8429411 119.7448257  83.2379077
  91.7090716 119.6935350  81.9973172  99.0998987 122.7548840  80.9314945
  99.5659439 123.5876831  80.8575247  99.5506487 122.2893821  81.6360203
  89.0420822 130.7574711  89.6453190  89.7430282 131.3911194  89.7982584
  88.5715937 131.0989443  88.8848829  97.1675218 129.0992661  77.9301097
  97.4435062 128.9849256  78.8394971  96.2979717 128.7010146  77.8913270
  97.0715650 115.1229427  84.9705846  96.1578729 115.3533654  85.1388053
  97.5008751 115.2067871  85.8219878  96.8422108 123.3119319  87.4705740
  96.1893558 123.5595226  86.8158193  97.2202488 122.4983457  87.1368217
  93.8029282 133.3479012  81.5733910  93.9851677 132.5300668  82.0361663
  94.6262268 133.5646704  81.1358800  94.1371448 132.2747197  78.8348959
  94.6659214 131.7639652  78.2219121  94.3999667 131.9589727  79.6994492
  92.8909681 124.0539130  93.9571777  92.2150318 123.9533259  94.6274152
  93.7137315 123.8978343  94.4207774  84.6388540 130.2911066  86.5784292
  85.2241977 129.5454754  86.7112197  84.4413379 130.6015023  87.4620956
  87.4927195 133.3262314  81.5946735  86.8237571 133.8108441  81.1110775
  87.3540065 133.5731534  82.5090113  79.2306195 122.8616667  85.2988736
  79.2690294 122.3280257  86.0925854  78.7246488 122.3351872  84.6799713
  91.6332464 135.3606057  88.1929393  92.1850772 135.5237679  88.9578478
  91.9738657 135.9510495  87.5209418  86.6096957 117.7081207  88.7951278
  86.6738284 118.5696038  88.3828676  86.5464077 117.0955209  88.0623636
  86.0849230 119.7804340  92.4424312  86.7121269 119.3981417  93.0561836
  85.2277149 119.5618541  92.8080005  96.4843338 130.1867315  94.0478048
  97.0283242 130.7997273  93.5533002  95.9030183 130.7446893  94.5645061
  82.8614773 121.5880769  78.3742667  83.1568214 120.6791447  78.3209721
  81.9602808 121.5668508  78.0523669  94.7700851 133.3088033  85.1793075
  94.6451991 132.5077773  84.6704021  95.4279942 133.8034226  84.6907045
  86.3909020 119.6636765  84.3570216  85.6695605 120.2772733  84.2177689
  87.1802275 120.1994530  84.2786862  96.8335760 131.1097053  86.8072625
  95.8866095 130.9902404  86.7350952  97.1818533 130.2219551  86.8898887
  89.1935333 116.9991192  90.6310867  89.7169735 117.2453488  91.3937177
  88.9747666 117.8311227  90.2114005  84.5902614 119.2694866  78.4981992
  84.2615320 118.3892245  78.3157098  84.9441985 119.2142535  79.3858381
  93.8382193 130.9049769  83.0076978  93.6907155 129.9766476  83.1884548
  94.6635686 130.9269860  82.5234053  87.7044437 119.5567836  78.8657470
  88.0440510 120.0853757  78.1436078  88.1516558 119.8948242  79.6416036
  97.4416315 131.7278328  84.0941850  98.3662862 131.5221189  83.9566302
  97.2731618 131.4794729  85.0031192  90.3987878 117.9404887  88.3160538
  90.0584698 117.1412700  88.7181218  89.6926884 118.2406598  87.7437371
  91.0504350 115.0254199  86.7687861  91.8730419 114.5514677  86.6466751
  91.2942413 115.8044683  87.2686547  89.6912584 118.0542458  77.0650763
  90.4120947 118.4323710  76.5614479  89.0677889 118.7731335  77.1685741
  93.8343707 118.7587607  78.0009095  94.0507322 119.6412245  77.6997923
  93.3537774 118.3673820  77.2714737  88.5742929 121.7173320  84.5779840
  88.4287509 122.0313623  85.4704121  88.0968132 122.3358220  84.0250738
  90.4339312 118.7075868  84.6260729  90.4200880 117.8116961  84.2893027
  91.1511740 118.7146532  85.2599015  92.2865442 119.1413208  86.6713857
  92.0283220 120.0630279  86.6698187  91.7550483 118.7443643  87.3614321
  97.2311631 132.2463995  79.4503942  97.4048509 131.6810418  78.6977794
  97.7240522 133.0464890  79.2683432  83.0488591 124.2578664  87.5167501
  82.5042059 125.0338472  87.6487775  83.9267941 124.6049469  87.3586622
  89.8376207 117.5890248  79.8948299  89.9592119 116.6606894  80.0939187
  89.5478250 117.6028934  78.9826615  92.7067398 115.2745159  83.0315019
  92.7289095 115.3384492  82.0766999  93.1235457 114.4349667  83.2255525
 103.0851022 125.0100418  81.0694242 103.5282168 124.2607743  80.6713365
 102.2077532 125.0010555  80.6867974  98.2186804 131.5630760  76.5500840
  98.9137708 132.1837452  76.7688155  98.5609954 130.7126111  76.8253218
  83.8354613 123.3848561  90.4097658  83.0936349 123.5331196  90.9962288
  83.5147357 123.6456826  89.5464407 100.1178227 129.0130465  78.0788171
 100.6429551 129.3517738  77.3537491 100.0300579 128.0777480  77.8951306
  91.7798275 132.9264539  90.2078048  92.0885402 132.6813686  91.0800747
  92.5773757 133.1311177  89.7196918  91.8018887 135.0802448  82.4383424
  91.3623878 134.5878827  83.1316281  92.5527004 134.5375416  82.1975499
  84.2811226 131.2713989  82.4408052  85.1069246 130.9717761  82.0606696
  83.9305278 130.5021612  82.8897841  89.2492760 130.6240458  84.5105726
  88.6272769 129.9611163  84.2107954  89.9197626 130.6501589  83.8279374
  82.4819831 129.1900316  83.3996986  81.6451740 128.7622490  83.2180987
  82.4543477 129.3832759  84.3367777  89.3217287 119.1022246  94.1038232
  89.3705443 119.9784368  93.7216001  89.8639801 118.5599639  93.5309875
  99.8072133 129.6463369  93.3839369  99.0167676 129.6287508  92.8443868
  99.5705487 130.1851662  94.1388405  99.9270008 126.4955835  90.6972097
  99.9768013 126.3305843  91.6387620  99.8183931 125.6283094  90.3069978
  88.8106266 129.1744381  77.9864186  88.9594387 129.8579845  77.3330859
  89.6172710 129.1549471  78.5013642  97.2173770 122.4786763  92.0131404
  98.1183633 122.3393228  91.7215402  97.2921745 122.6441218  92.9529582
  91.5516575 119.8553618  90.8584590  90.6819885 120.1487184  90.5867179
  91.7876056 120.4394063  91.5791854 101.4288205 128.9152777  90.9414119
 101.1373013 129.2782757  91.7777580 100.8160336 128.2019785  90.7627451
 102.6283887 126.4805656  83.4616689 103.4630778 126.9195461  83.6254250
 102.7643016 126.0044310  82.6424935  99.6775393 124.0385391  89.4094177
 100.1529514 124.2313038  88.6013028  98.7540958 124.0944577  89.1637561
  86.5658899 125.2009558  78.9925255  86.3204941 124.2971888  79.1905465
  86.7354814 125.2026709  78.0504733  94.2555609 116.0733235  88.3750011
  94.7737553 116.8094262  88.0496499  93.9010742 116.3797228  89.2096770
  85.8354547 120.9337916  76.4911417  85.1423792 121.0082271  75.8351453
  85.5906299 120.1698260  77.0132934  94.5068203 112.4933517  83.8950907
  94.7869957 111.8256706  84.5211334  95.2918810 112.6862613  83.3825571
  92.3101672 131.6692511  75.4575934  91.7375639 132.2882698  75.0046406
  92.8834466 132.2191873  75.9915856  98.3777062 120.9151151  87.6422483
  99.3294485 121.0149249  87.6634707  98.2080512 120.1229420  88.1520567
  96.3991441 118.0006735  87.8281883  95.8041373 118.2811747  87.1328372
  96.1141138 118.4900636  88.5998625  95.5298932 131.9529661  76.5884516
  96.4629605 131.8875223  76.7917392  95.4422145 132.7885928  76.1299049
  98.1586948 131.2695532  73.5488464  98.0800580 130.9355395  74.4424222
  98.9796615 131.7617300  73.5479936 100.8565140 124.1357271  86.7564782
 100.8241460 123.1973272  86.9424466 101.4665763 124.2141308  86.0230607
  92.6948470 123.0053324  72.7991986  93.6407575 122.8759532  72.8680404
  92.3162715 122.2667986  73.2761414 101.0059628 120.9268315  86.8023065
 100.4898677 120.1426771  86.6152994 101.8899577 120.5987031  86.9669585
  98.6670355 114.6709330  82.7618878  98.4695176 114.3624418  83.6462210
  99.2770061 115.3970969  82.8916808 106.6741689 125.1973278  85.8970819
 107.4045078 124.9358566  86.4578522 106.0648635 124.4602000  85.9372887
 104.7556987 123.3381141  86.4945270 104.0290150 123.2037105  85.8861762
 104.3404273 123.6457969  87.3001988  92.5787163 127.0571070  94.2592643
  93.4990172 127.2349669  94.4532690  92.5436746 126.1127116  94.1072342
  90.8791388 120.9303300  72.7346871  89.9722843 120.6336413  72.8109585
  91.1567369 120.6333119  71.8681158  81.7969328 122.2509664  83.1845918
  81.4772112 121.3974972  82.8920292  81.2502756 122.4658242  83.9403885
  85.5749236 124.9672105  86.9015424  85.7935245 125.8989213  86.9203458
  85.9875009 124.6080079  87.6870228  92.4953453 115.4740190  78.8891113
  91.6854182 115.1287275  79.2646359  93.1837870 115.1647734  79.4778724
  94.4244002 114.5518237  80.5115409  94.9775040 114.9713690  81.1705433
  94.6614088 113.6253985  80.5538365  90.4477101 120.5405311  96.2918173
  90.3473828 121.4899668  96.2230264  90.2298643 120.2123550  95.4194243
  89.6490172 117.7890236  72.8758851  90.5109336 118.1145134  73.1354668
  89.8340516 117.0021732  72.3631916  81.6657588 125.8712575  85.1539039
  80.9721059 125.4566528  84.6408994  82.4130579 125.9133112  84.5572458
  97.8022809 116.6618762  80.0194074  97.2221478 117.3203566  79.6372126
  97.5358741 115.8396107  79.6081491  96.2526375 116.0623820  82.2215394
  96.7526153 116.1740354  81.4129713  96.8961983 115.7584873  82.8616202
  90.3108371 123.9702449  95.1083235  89.8275453 124.7702810  95.3147124
  90.3969310 123.9810394  94.1550679  83.5794331 125.8030829  83.0305054
  83.5565019 125.9018516  82.0786937  83.8894967 126.6495980  83.3522220
  86.2381708 127.8606984  87.1451669  87.1924962 127.8290926  87.0781600
  86.0394232 127.3997608  87.9601895  86.8281091 126.4308100  89.7122466
  87.6473980 126.9252179  89.7357304  87.1017898 125.5140068  89.6840034
  96.5847687 118.8218853  79.0750422  95.6973542 119.1068503  78.8570617
  97.0001676 118.6612616  78.2277699  99.9362223 118.8465373  82.7904761
 100.7122613 119.3361826  83.0629378  99.2110357 119.2723428  83.2476631
 102.3734782 119.5592993  83.8478702 102.9679272 119.3188729  83.1372010
 102.4461365 118.8400123  84.4752238  84.5931937 133.4026604  84.1621867
  84.4586405 132.6427005  83.5959865  84.1763999 134.1267504  83.6950656
  95.7290900 128.5863527  73.1698442  96.4326750 128.7913530  73.7856098
  95.0053549 129.1540289  73.4347525  96.5588710 124.3373388  79.2900712
  96.5023912 124.7941940  78.4508345  97.1117053 123.5764073  79.1123555
 100.3693516 120.1263120  80.1150832 100.1130451 119.7259756  80.9459039
  99.7446384 120.8406914  79.9900971 104.6805854 122.8659194  82.6222123
 104.1205412 122.9352383  83.3953685 104.0749358 122.6900178  81.9021619
  87.7501063 134.2995921  84.3740309  87.6333447 135.2441353  84.2719000
  86.9293509 133.9969482  84.7626108  97.6377598 129.0246056  75.2196902
  98.4723202 128.5927255  75.0374377  97.4761941 128.8528070  76.1473796
  97.2923490 125.5278170  76.5853241  97.2372294 125.3622441  75.6441685
  96.6669545 126.2354203  76.7415431  82.0816005 120.7646234  90.4114663
  82.7274868 120.2545188  90.9001889  81.8733156 121.5014916  90.9858089
  94.6069397 127.8327082  95.9106804  95.4760557 128.0067734  95.5493439
  94.1276148 128.6521498  95.7882533  90.6019615 115.0286279  76.1638560
  90.5898285 115.9728119  76.3206831  91.4943037 114.8456424  75.8698021
  88.7755577 134.9524183  87.5896238  89.6782824 134.9847793  87.9062733
  88.5492947 134.0224634  87.6042573  90.5309179 133.7055169  84.2506316
  89.5804810 133.7057031  84.1370689  90.8341665 132.9587904  83.7342351
  94.4171735 111.6229055  80.4184496  93.6504131 111.0687542  80.5641179
  94.8282440 111.6950924  81.2798648  86.4213496 117.9113851  94.5089678
  87.2844957 117.5550656  94.7193002  85.8478906 117.5727746  95.1965082
 106.2661873 139.5415707  85.3152079 106.9040283 139.4222455  84.6115419
 106.1482716 140.4896551  85.3740031 103.0751579 139.4943136  85.2513603
 102.7370091 139.3784200  84.3634138 103.9441347 139.0934301  85.2314610
  98.9338395 141.3478612  81.2410494  98.3703260 141.2568549  80.4726782
  98.8190790 140.5278516  81.7212987 103.5571362 140.6477987  91.2099809
 103.5460003 140.2530786  90.3380313 103.7192001 139.9144060  91.8033580
  96.4802827 142.8429804  84.0794715  97.2724119 142.5020628  83.6641014
  96.7199477 142.9524779  84.9996868 104.5137953 145.0149580  76.5524959
 103.8625933 145.6003660  76.1658973 105.3082316 145.5455775  76.6119997
  98.4393581 142.1038717  76.9512094  99.2124457 141.5567704  76.8124969
  98.7918979 142.9682966  77.1626555 100.2778623 143.4315099  90.1578993
  99.9868489 144.3360730  90.0425659 100.9135607 143.4731627  90.8723062
 101.2034830 140.8091948  86.7480353 101.7998402 140.5847970  86.0337316
 101.2609802 140.0676693  87.3505800 100.7759858 138.2631383  74.5830544
 101.0285379 137.7412904  73.8214007  99.8384417 138.0997528  74.6857227
 105.8203141 137.2667161  82.3905287 106.6066230 136.8486585  82.0395704
 106.0841846 138.1713254  82.5586935 105.9913219 142.7040012  77.0893944
 105.3559052 142.7774638  77.8014848 105.6610625 143.2933610  76.4113023
 111.2211568 137.2042395  83.2938265 111.9536740 136.6341611  83.5276095
 110.4650924 136.8163995  83.7344771 100.4956147 140.1659489  76.7854918
 100.3792405 139.4904392  77.4536003 100.6058407 139.6791863  75.9687072
 102.8387688 139.6269636  80.4901608 102.4745895 139.1000257  81.2014529
 103.6954804 139.2368105  80.3168093 108.7436989 130.9163969  87.7532874
 108.4120313 131.7859380  87.5294089 108.1482602 130.6000253  88.4326904
 102.4793175 134.6559536  75.4862956 102.6467577 135.5239772  75.8533427
 102.2890344 134.8186817  74.5624245 105.2368508 143.1176515  87.1528787
 104.9369231 144.0201553  87.0444594 104.8919568 142.8508698  88.0049939
  98.6880990 139.5690311  83.1865491  97.7631486 139.4366526  83.3943183
  98.9365403 140.3484531  83.6835433 108.6365652 135.6359055  84.8326224
 107.7282529 135.5674463  84.5384985 108.5853248 136.1131000  85.6608049
 102.4582396 137.1117193  76.4709623 102.3382021 137.5574244  77.3095103
 101.7634984 137.4602511  75.9123161  96.0489801 139.2123585  84.0209280
  96.1782182 139.4658064  84.9348692  95.3687252 139.8051293  83.7013935
 102.7106518 137.0548700  92.7761121 101.9339852 137.6142621  92.7663986
 103.3497081 137.5405483  93.2975991 110.5027298 133.8375493  86.6104098
 109.8601679 134.1308026  85.9643892 109.9982227 133.7228414  87.4157295
 108.1567462 137.5838666  77.2989957 109.0685318 137.8166053  77.1237655
 107.6477109 138.1675711  76.7365036 100.9652890 139.8634154  92.3379088
 101.7067574 140.4019198  92.0613912 100.2589876 140.4900443  92.4950640
 106.4408230 142.0063294  90.9351250 106.8491586 141.5645705  90.1905882
 105.7185491 141.4315922  91.1885443 102.7939300 136.9435901  88.3084807
 103.6400495 137.3675315  88.4519456 102.7337937 136.2869525  89.0023370
 106.7637044 142.5664485  84.6903539 106.1345907 142.7310199  83.9879606
 106.3762706 142.9806094  85.4614503 105.9438745 134.6040269  89.9665980
 105.6999677 135.3582330  89.4300256 106.2198676 134.9825617  90.8013227
 107.8977208 141.1478882  88.6443246 108.1094103 141.7910642  87.9677627
 107.8506956 140.3141198  88.1765176 105.5003437 133.7596702  85.5479818
 104.6387916 134.0577956  85.8396556 105.5265871 133.9767101  84.6160851
 102.3165006 142.3038893  81.9553624 102.7803352 142.5826596  81.1658246
 102.0521804 141.4022338  81.7726714  99.2089087 141.8510374  84.8933387
  99.7790444 142.2797643  84.2550871  99.7997199 141.5692959  85.5917573
 101.2533892 138.4262045  78.7643189 101.9557936 138.8783089  79.2317115
 100.9214521 137.7845864  79.3923082  99.7014254 137.0173802  93.1394398
  99.0712914 137.6990083  93.3729795  99.5950342 136.9056884  92.1947536
  94.9959226 136.6845598  84.0660322  94.2058280 136.9403127  83.5900433
  95.4870474 137.4993936  84.1712363  96.9473972 137.0490177  81.0243799
  96.1505135 137.1608871  81.5427295  96.7199564 137.3876829  80.1584690
 102.7779639 143.5734880  88.9726314 102.8424072 144.0355288  89.8084486
 102.0690563 142.9432245  89.1008624  93.2796929 136.9376088  86.4975313
  93.5304968 137.8223098  86.7632889  93.8156478 136.7580690  85.7250405
 102.4927657 145.2402988  78.8405294 102.3573332 146.0854524  79.2690142
 103.0337469 145.4422266  78.0771228  98.9794997 131.3194568  95.5019649
  98.5861942 130.7660766  96.1767293  99.7961137 131.6305146  95.8926167
  95.9457054 142.7578426  79.4133219  96.4581575 143.5521676  79.5638784
  96.5979767 142.0604716  79.3466821  97.7551939 145.8744182  81.4955972
  97.9318567 146.7962147  81.3076956  98.5508773 145.5602601  81.9250352
 101.8962958 132.7352447  93.0939906 102.6372671 133.3359600  93.0144368
 102.1280880 131.9930085  92.5357948  97.0404296 137.9208814  91.3718136
  96.9257811 137.0194071  91.6725234  96.1848813 138.1672511  91.0202952
 104.1196133 145.8626554  92.9705636 103.6759987 145.0762933  92.6526541
 104.7813347 146.0505705  92.3049527  98.8783254 147.3922356  87.4966315
  99.4290680 147.2639419  86.7243309  98.0394730 147.6917245  87.1461207
 102.6750426 143.6573484  91.8410546 103.2078762 142.8961772  91.6109854
 102.1464507 143.3647136  92.5834700 105.8420121 128.7633550  87.3704188
 105.4984390 129.6535192  87.2943298 106.2099083 128.5735207  86.5073773
  93.9105971 141.0867080  80.1892790  94.7481193 141.4964089  79.9726497
  94.0884239 140.1466522  80.1592984 105.8070403 138.7542161  75.8776623
 105.2917027 139.5246766  76.1165010 105.5347712 138.0807297  76.5009684
 103.3917514 133.5991862  80.9361861 102.5359111 133.2098712  80.7567500
 103.8044466 133.6783823  80.0761647 104.9216661 131.1338205  85.3353421
 104.4181456 131.0968340  84.5221226 105.2147268 132.0430948  85.3950077
 101.1659547 131.2176935  84.3419602 102.0312544 131.0219743  83.9825492
 101.2337056 130.9887286  85.2688959 105.5956706 136.6269253  77.7036404
 105.2906842 136.9415402  78.5546547 106.5487149 136.7050673  77.7463737
 104.0403138 142.7859476  79.3529358 103.5124500 142.0512236  79.0402595
 103.5390641 143.5634153  79.1069326 109.0195984 140.9808497  84.4696404
 108.3619659 141.6707758  84.5576533 109.8236383 141.3704929  84.8130390
  98.7721866 133.4479143  81.7135969  99.3465618 133.2254324  80.9809162
  99.3592848 133.5167837  82.4664571 107.8301443 139.3352870  82.5200346
 108.3433325 139.9682861  83.0222056 108.4802667 138.7354065  82.1543706
  99.0991453 135.4783604  75.7331855  98.2628765 135.8158290  76.0541129
  98.9596223 135.3432583  74.7958992 101.0744534 130.3220392  80.4411039
 100.4208946 130.0069409  79.8167653 101.0325008 129.6996132  81.1670862
 102.1855738 140.6039687  72.3564331 101.2782800 140.3728940  72.5555480
 102.6826770 139.8077306  72.5438312 104.3082274 136.8102325  84.7658686
 103.3904835 137.0317272  84.6080374 104.7242418 136.8848636  83.9070394
 105.0917322 138.2093741  79.8961367 105.8389141 138.7215138  79.5868489
 105.3608911 137.8877793  80.7565760 103.3643972 140.7052281  76.8788321
 102.4555191 140.4211314  76.9760791 103.3939056 141.1251360  76.0191628
 107.5396159 135.2450857  81.8780156 106.8018916 134.7328243  82.2090398
 107.7922932 134.8051239  81.0663433 107.6407786 128.0227109  82.4721925
 107.9466663 127.1624472  82.1847840 108.3660391 128.6144729  82.2720919
  93.9332142 138.4257796  80.8603523  93.7356542 137.8327156  80.1354590
  93.3778806 138.1210006  81.5779462 101.9128866 138.3180902  82.9798116
 101.9677476 137.3654738  82.9040593 101.1020068 138.4740341  83.4639415
 103.0620060 142.2461025  74.2176399 102.6239490 141.5296884  73.7582037
 103.8030501 142.4737140  73.6561491  99.8521226 136.9357962  80.7388495
  99.0389091 137.2352132  81.1453687 100.3480220 136.5413651  81.4562977
 102.0029804 146.9315719  82.6722760 101.9605982 147.1576565  81.7431292
 102.9192503 146.6979093  82.8208561 105.4495438 137.3999786  89.5703389
 105.8044825 137.6271259  90.4297855 106.0967569 137.7318163  88.9480644
 111.1793174 140.5218222  80.2752718 111.0411073 140.7119818  79.3473907
 110.8229393 141.2837605  80.7320769  99.3435301 134.5076317  86.3549730
  99.9834680 134.3665076  85.6572693  98.5112831 134.2210831  85.9788332
 100.1195604 143.8078748  82.4684723 100.9136203 143.3129068  82.2667297
  99.4087297 143.2796611  82.1052428  96.4278368 137.9521830  78.5444475
  95.4975956 137.8906285  78.7614437  96.5235840 137.4297782  77.7481116
  96.3463917 134.4776642  81.1322717  96.6070734 135.3921976  81.0231877
  97.1681089 134.0101085  81.2819330  97.8188842 135.8914400  88.3021541
  98.4911896 135.6831762  87.6534190  96.9918629 135.6936486  87.8626774
 103.7214414 132.5176340  90.3187202 103.0742329 133.2166290  90.2251679
 104.4915430 132.9512484  90.6863450 107.1293212 142.7825193  93.3937756
 106.9778719 142.5535744  92.4767839 107.1197892 143.7395794  93.4069101
 103.8978549 140.3557105  88.3784022 104.8270609 140.5068265  88.2052989
 103.4769579 140.4441126  87.5232669 102.6966880 144.3807770  86.1482560
 102.5577966 144.0126554  87.0208498 101.9081477 144.8955409  85.9766517
 104.2472096 143.7589372  83.5371397 103.9121928 143.7190142  84.4329047
 103.7476041 143.0934088  83.0641808  98.2216340 139.1657002  89.0623979
  98.0836138 138.4337241  89.6635518  99.1321263 139.0765903  88.7808166
 107.1831287 141.1045407  73.8108457 106.5660458 140.3792235  73.7141510
 106.7147776 141.8654767  73.4675531 100.8498640 138.8776962  88.5507658
 101.5598259 138.2370154  88.5094277 100.8067948 139.1289857  89.4733839
  99.5627574 135.8642180  90.3703298  99.0264931 135.4132918  91.0224894
  98.9744283 135.9988089  89.6273762  98.9729833 135.3230831  72.9329761
  98.0959300 135.2019632  72.5692008  99.4487586 134.5316909  72.6808650
  90.4931973 140.1107991  83.0271268  91.1803013 139.7969721  82.4392284
  90.3380102 141.0149355  82.7538520  95.2966695 134.9998187  87.4556292
  95.2124884 134.3923857  86.7206702  94.4749402 135.4907206  87.4565789
 105.4690409 133.4851751  82.8226487 105.9659109 132.7321713  82.5027557
 104.6977391 133.5216068  82.2569697 113.3220167 139.1892116  84.4644779
 113.3110043 140.0716832  84.0938712 112.4537546 138.8363667  84.2699316
 106.5520190 142.2423438  80.3964911 105.6176469 142.3624901  80.2269615
 106.7296858 141.3395905  80.1324920 102.0525378 135.6269134  82.5498172
 101.6823166 135.0740174  83.2379077 102.5484471 135.0227267  81.9973172
 109.9392741 138.0840757  80.9314945 110.4053194 138.9168749  80.8575247
 110.3900242 137.6185739  81.6360203  99.8814577 146.0866629  89.6453190
 100.5824036 146.7203112  89.7982584  99.4109692 146.4281360  88.8848829
 107.9109404 130.4521344  84.9705846 106.9972484 130.6825571  85.1388053
 108.3402506 130.5359788  85.8219878 107.6815863 138.6411236  87.4705740
 107.0287313 138.8887144  86.8158193 108.0596243 137.8275375  87.1368217
 103.7303436 139.3831047  93.9571777 103.0544073 139.2825177  94.6274152
 104.5531070 139.2270261  94.4207774  95.4782295 145.6202984  86.5784292
  96.0635732 144.8746672  86.7112197  95.2807133 145.9306941  87.4620956
  98.3320950 148.6554231  81.5946735  97.6631325 149.1400359  81.1110775
  98.1933820 148.9023452  82.5090113  90.0699949 138.1908584  85.2988736
  90.1084049 137.6572175  86.0925854  89.5640242 137.6643790  84.6799713
  97.4490712 133.0373125  88.7951278  97.5132038 133.8987956  88.3828676
  97.3857832 132.4247126  88.0623636  96.9242984 135.1096257  92.4424312
  97.5515023 134.7273335  93.0561836  96.0670903 134.8910459  92.8080005
  93.7008527 136.9172686  78.3742667  93.9961968 136.0083365  78.3209721
  92.7996563 136.8960426  78.0523669  97.2302774 134.9928683  84.3570216
  96.5089360 135.6064651  84.2177689  98.0196030 135.5286448  84.2786862
 100.0329088 132.3283109  90.6310867 100.5563489 132.5745406  91.3937177
  99.8141421 133.1603144  90.2114005  95.4296369 134.5986784  78.4981992
  95.1009075 133.7184163  78.3157098  95.7835739 134.5434453  79.3858381
  98.5438192 134.8859754  78.8657470  98.8834264 135.4145675  78.1436078
  98.9910312 135.2240160  79.6416036 101.2381633 133.2696805  88.3160538
 100.8978453 132.4704618  88.7181218 100.5320639 133.5698515  87.7437371
 101.8898104 130.3546117  86.7687861 102.7124174 129.8806595  86.6466751
 102.1336168 131.1336601  87.2686547 100.5306339 133.3834375  77.0650763
 101.2514701 133.7615628  76.5614479  99.9071643 134.1023252  77.1685741
 104.6737462 134.0879524  78.0009095 104.8901076 134.9704162  77.6997923
 104.1931529 133.6965738  77.2714737  99.4136683 137.0465238  84.5779840
  99.2681264 137.3605541  85.4704121  98.9361887 137.6650138  84.0250738
 101.2733066 134.0367786  84.6260729 101.2594635 133.1408879  84.2893027
 101.9905494 134.0438449  85.2599015 103.1259197 134.4705126  86.6713857
 102.8676975 135.3922196  86.6698187 102.5944237 134.0735560  87.3614321
  93.8882345 139.5870582  87.5167501  93.3435813 140.3630390  87.6487775
  94.7661695 139.9341386  87.3586622 100.6769962 132.9182166  79.8948299
 100.7985873 131.9898812  80.0939187 100.3872004 132.9320852  78.9826615
 103.5461152 130.6037076  83.0315019 103.5682849 130.6676409  82.0766999
 103.9629211 129.7641585  83.2255525  94.6748367 138.7140478  90.4097658
  93.9330103 138.8623114  90.9962288  94.3541111 138.9748744  89.5464407
  95.1204981 146.6005907  82.4408052  95.9463001 146.3009679  82.0606696
  94.7699033 145.8313529  82.8897841 100.0886514 145.9532375  84.5105726
  99.4666523 145.2903080  84.2107954 100.7591381 145.9793507  83.8279374
  93.3213586 144.5192233  83.3996986  92.4845494 144.0914408  83.2180987
  93.2937231 144.7124677  84.3367777 100.1611042 134.4314163  94.1038232
 100.2099197 135.3076286  93.7216001 100.7033556 133.8891556  93.5309875
 110.7663762 141.8247753  90.6972097 110.8161767 141.6597760  91.6387620
 110.6577686 140.9575012  90.3069978  99.6500021 144.5036299  77.9864186
  99.7988141 145.1871763  77.3330859 100.4566464 144.4841389  78.5013642
 108.0567525 137.8078681  92.0131404 108.9577387 137.6685146  91.7215402
 108.1315499 137.9733136  92.9529582 102.3910330 135.1845536  90.8584590
 101.5213639 135.4779102  90.5867179 102.6269810 135.7685981  91.5791854
 110.5169147 139.3677309  89.4094177 110.9923269 139.5604955  88.6013028
 109.5934713 139.4236495  89.1637561  97.4052654 140.5301476  78.9925255
  97.1598696 139.6263806  79.1905465  97.5748568 140.5318627  78.0504733
 105.0949364 131.4025153  88.3750011 105.6131308 132.1386179  88.0496499
 104.7404497 131.7089146  89.2096770  96.6748301 136.2629834  76.4911417
  95.9817546 136.3374189  75.8351453  96.4300053 135.4990177  77.0132934
 105.3461958 127.8225435  83.8950907 105.6263712 127.1548624  84.5211334
 106.1312565 128.0154531  83.3825571 109.2170816 136.2443069  87.6422483
 110.1688239 136.3441167  87.6634707 109.0474267 135.4521338  88.1520567
 107.2385196 133.3298652  87.8281883 106.6435128 133.6103665  87.1328372
 106.9534892 133.8192553  88.5998625 111.6958894 139.4649189  86.7564782
 111.6635214 138.5265189  86.9424466 112.3059518 139.5433225  86.0230607
 103.5342225 138.3345242  72.7991986 104.4801330 138.2051450  72.8680404
 103.1556470 137.5959904  73.2761414 111.8453383 136.2560232  86.8023065
 111.3292431 135.4718689  86.6152994 112.7293331 135.9278949  86.9669585
 109.5064110 130.0001248  82.7618878 109.3088931 129.6916336  83.6462210
 110.1163815 130.7262887  82.8916808 103.4180918 142.3862988  94.2592643
 104.3383927 142.5641587  94.4532690 103.3830501 141.4419033  94.1072342
 101.7185142 136.2595218  72.7346871 100.8116598 135.9628331  72.8109585
 101.9961123 135.9625036  71.8681158  92.6363083 137.5801582  83.1845918
  92.3165867 136.7266890  82.8920292  92.0896511 137.7950160  83.9403885
  96.4142990 140.2964023  86.9015424  96.6329000 141.2281130  86.9203458
  96.8268764 139.9371997  87.6870228 103.3347208 130.8032108  78.8891113
 102.5247936 130.4579193  79.2646359 104.0231625 130.4939652  79.4778724
 105.2637756 129.8810155  80.5115409 105.8168795 130.3005608  81.1705433
 105.5007842 128.9545903  80.5538365 101.2870855 135.8697228  96.2918173
 101.1867582 136.8191585  96.2230264 101.0692397 135.5415467  95.4194243
 100.4883927 133.1182153  72.8758851 101.3503091 133.4437052  73.1354668
 100.6734271 132.3313649  72.3631916  92.5051343 141.2004493  85.1539039
  91.8114814 140.7858446  84.6408994  93.2524334 141.2425030  84.5572458
 108.6416563 131.9910680  80.0194074 108.0615232 132.6495484  79.6372126
 108.3752496 131.1688024  79.6081491 107.0920130 131.3915738  82.2215394
 107.5919908 131.5032272  81.4129713 107.7355738 131.0876790  82.8616202
 101.1502125 139.2994367  95.1083235 100.6669207 140.0994727  95.3147124
 101.2363064 139.3102312  94.1550679  94.4188085 141.1322747  83.0305054
  94.3958773 141.2310434  82.0786937  94.7288722 141.9787898  83.3522220
  97.0775463 143.1898902  87.1451669  98.0318716 143.1582844  87.0781600
  96.8787986 142.7289526  87.9601895  97.6674845 141.7600018  89.7122466
  98.4867734 142.2544097  89.7357304  97.9411653 140.8431986  89.6840034
 107.4241441 134.1510770  79.0750422 106.5367296 134.4360421  78.8570617
 107.8395430 133.9904534  78.2277699 110.7755977 134.1757291  82.7904761
 111.5516367 134.6653744  83.0629378 110.0504112 134.6015345  83.2476631
 113.2128536 134.8884910  83.8478702 113.8073027 134.6480646  83.1372010
 113.2855120 134.1692041  84.4752238  95.4325692 148.7318521  84.1621867
  95.2980160 147.9718922  83.5959865  95.0157754 149.4559421  83.6950656
 106.5684655 143.9155445  73.1698442 107.2720505 144.1205447  73.7856098
 105.8447303 144.4832207  73.4347525 107.3982465 139.6665306  79.2900712
 107.3417666 140.1233858  78.4508345 107.9510807 138.9055991  79.1123555
 111.2087271 135.4555038  80.1150832 110.9524205 135.0551674  80.9459039
 110.5840139 136.1698832  79.9900971 115.5199609 138.1951111  82.6222123
 114.9599167 138.2644301  83.3953685 114.9143112 138.0192096  81.9021619
  98.5894818 149.6287838  84.3740309  98.4727202 150.5733271  84.2719000
  97.7687264 149.3261400  84.7626108 108.1317244 140.8570087  76.5853241
 108.0766048 140.6914359  75.6441685 107.5063300 141.5646120  76.7415431
  92.9209759 136.0938152  90.4114663  93.5668623 135.5837106  90.9001889
  92.7126910 136.8306833  90.9858089 105.4463151 143.1618999  95.9106804
 106.3154311 143.3359652  95.5493439 104.9669903 143.9813416  95.7882533
 101.4413370 130.3578196  76.1638560 101.4292040 131.3020036  76.3206831
 102.3336792 130.1748342  75.8698021 105.2565489 126.9520973  80.4184496
 104.4897885 126.3979460  80.5641179 105.6676194 127.0242842  81.2798648
  97.2607250 133.2405769  94.5089678  98.1238712 132.8842574  94.7193002
  96.6872661 132.9019664  95.1965082  30.3905593   9.2434406  72.0397385
  31.0284002   9.1241154  71.3360725  30.2726435  10.1915250  72.0985338
  27.1995299   9.1961834  71.9758910  26.8613810   9.0802899  71.0879445
  28.0685067   8.7953000  71.9559916  23.0582115  11.0497311  67.9655801
  22.4946980  10.9587248  67.1972089  22.9434510  10.2297215  68.4458294
  27.6815082  10.3496686  77.9345116  27.6703723   9.9549484  77.0625619
  27.8435721   9.6162759  78.5278887  20.6046546  12.5448502  70.8040021
  21.3967838  12.2039327  70.3886321  20.8443197  12.6543478  71.7242175
  28.6381673  14.7168279  63.2770266  27.9869653  15.3022359  62.8904280
  29.4326036  15.2474473  63.3365303  22.5637300  11.8057416  63.6757400
  23.3368176  11.2586403  63.5370276  22.9162699  12.6701665  63.8871862
  24.4022343  13.1333798  76.8824300  24.1112209  14.0379429  76.7670966
  25.0379327  13.1750326  77.5968369  25.3278550  10.5110647  73.4725659
  25.9242122  10.2866669  72.7582622  25.3853521   9.7695392  74.0751107
  24.9003578   7.9650082  61.3075850  25.1529099   7.4431603  60.5459313
  23.9628137   7.8016227  61.4102534  29.9446861   6.9685860  69.1150593
  30.7309950   6.5505283  68.7641010  30.2085565   7.8731952  69.2832242
  30.1156938  12.4058711  63.8139250  29.4802771  12.4793337  64.5260155
  29.7854345  12.9952309  63.1358329  35.3455288   6.9061093  70.0183572
  36.0780460   6.3360310  70.2521401  34.5894644   6.5182694  70.4590077
  24.6199867   9.8678188  63.5100225  24.5036125   9.1923091  64.1781309
  24.7302127   9.3810562  62.6932378  26.9631408   9.3288335  67.2146914
  26.5989615   8.8018956  67.9259836  27.8198524   8.9386804  67.0413400
  32.8680708   0.6182668  74.4778181  32.5364033   1.4878078  74.2539395
  32.2726322   0.3018952  75.1572211  26.6036895   4.3578235  62.2108263
  26.7711297   5.2258471  62.5778734  26.4134064   4.5205516  61.2869552
  29.3612228  12.8195214  73.8774093  29.0612951  13.7220252  73.7689900
  29.0163288  12.5527397  74.7295246  22.8124710   9.2709010  69.9110798
  21.8875206   9.1385224  70.1188489  23.0609123  10.0503230  70.4080740
  32.7609372   5.3377754  71.5571531  31.8526249   5.2693162  71.2630292
  32.7096968   5.8149699  72.3853356  26.5826116   6.8135892  63.1954930
  26.4625741   7.2592943  64.0340410  25.8878704   7.1621210  62.6368468
  20.1733521   8.9142284  70.7454587  20.3025902   9.1676763  71.6593998
  19.4930972   9.5069992  70.4259242  24.3433008  19.5839534  66.8445061
  24.2657038  20.5347359  66.9233542  23.7394651  19.2385406  67.5019987
  26.8350238   6.7567399  79.5006428  26.0583572   7.3161319  79.4909292
  27.4740801   7.2424182  80.0221298  34.6271018   3.5394192  73.3349404
  33.9845398   3.8326725  72.6889199  34.1225947   3.4247112  74.1402601
  32.2811182   7.2857365  64.0235264  33.1929038   7.5184752  63.8482961
  31.7720829   7.8694409  63.4610342  25.0896610   9.5652853  79.0624395
  25.8311294  10.1037897  78.7859218  24.3833595  10.1919141  79.2195947
  30.5651950  11.7081993  77.6596556  30.9735306  11.2664404  76.9151189
  29.8429211  11.1334621  77.9130749  26.9183020   6.6454600  75.0330113
  27.7644215   7.0694013  75.1764762  26.8581657   5.9888224  75.7268676
  30.8880764  12.2683184  71.4148845  30.2589627  12.4328898  70.7124913
  30.5006426  12.6824793  72.1859809  34.7669996  13.2037622  68.7693209
  34.0821034  13.5836523  68.2190242  34.8513845  13.8132948  69.5025157
  30.0682465   4.3058968  76.6911287  29.8243397   5.0601029  76.1545563
  30.3442395   4.6844316  77.5258534  32.0220928  10.8497581  75.3688552
  32.2337823  11.4929340  74.6922934  31.9750676  10.0159897  74.9010483
  29.6247157   3.4615401  72.2725125  28.7631636   3.7596655  72.5641862
  29.6509591   3.6785800  71.3406157  26.4408726  12.0057592  68.6798930
  26.9047072  12.2845295  67.8903553  26.1765524  11.1041036  68.4972021
  23.3332807  11.5529073  71.6178694  23.9034164  11.9816342  70.9796178
  23.9240919  11.2711658  72.3162879  25.3777612   8.1280744  65.4888495
  26.0801655   8.5801788  65.9562422  25.0458241   7.4864563  66.1168389
  23.8257974   6.7192501  79.8639705  23.1956634   7.4008782  80.0975102
  23.7194062   6.6075582  78.9192843  33.1366756  13.7269536  73.5410910
  33.9584199  13.3249723  73.2593591  33.1329159  13.6237770  74.4927026
  26.9023359  13.2753579  75.6971620  26.9667792  13.7373987  76.5329792
  26.1934283  12.6450944  75.8253930  41.2272749  10.0708285  69.8895881
  40.4736457   9.5015683  69.7339886  41.3620290  10.0370949  70.8366516
  26.6171377  14.9421687  65.5650601  26.4817052  15.7873223  65.9935448
  27.1581189  15.1440964  64.8016534  20.0700774  12.4597125  66.1378526
  20.5825295  13.2540375  66.2884090  20.7223487  11.7623415  66.0712127
  21.8795659  15.5762881  68.2201279  22.0562287  16.4980846  68.0322263
  22.6752492  15.2621300  68.6495659  21.1648015   7.6227513  78.0963442
  21.0501531   6.7212770  78.3970541  20.3092533   7.8691210  77.7448259
  28.2439853  15.5645253  79.6950943  27.8003707  14.7781632  79.3771847
  28.9057067  15.7524404  79.0294834  23.0026974  17.0941055  74.2211621
  23.5534399  16.9658118  73.4488615  22.1638450  17.3935944  73.8706514
  30.3421091  15.8448053  77.7232344  30.3239567  16.6656934  77.2312613
  31.2641011  15.7202128  77.9482485  26.7994145  13.3592183  78.5655852
  27.3322482  12.5980471  78.3355160  26.2708226  13.0665835  79.3080007
  18.0349691  10.7885779  66.9138096  18.8724913  11.1982788  66.6971804
  18.2127959   9.8485221  66.8838290  29.9314123   8.4560860  62.6021929
  29.4160746   9.2265464  62.8410317  29.6591431   7.7825996  63.2254991
  27.5161234   3.3010561  67.6607168  26.6602830   2.9117411  67.4812806
  27.9288186   3.3802521  66.8006953  34.9048397  11.2093214  64.5375103
  34.1277840  10.8704374  64.0930265  35.5839878  11.2145838  63.8630068
  29.7200426   6.3287952  64.4281710  29.4150562   6.6434101  65.2791854
  30.6730868   6.4069372  64.4709043  28.1646858  12.4878175  66.0774664
  27.6368220  11.7530935  65.7647902  27.6634361  13.2652852  65.8314633
  33.1439704  10.6827196  71.1941711  32.4863379  11.3726457  71.2821839
  33.9480103  11.0723628  71.5375697  31.9545163   9.0371568  69.2445652
  32.4677045   9.6701560  69.7467362  32.6046387   8.4372764  68.8789012
  23.2235173   5.1802303  62.4577161  22.3872485   5.5176989  62.7786436
  23.0839942   5.0451282  61.5204298  26.3099458  10.3058385  59.0809637
  25.4026520  10.0747639  59.2800786  26.8070490   9.5096005  59.2683619
  29.2167537  19.0155893  62.0006324  28.5429236  19.3187589  62.6091281
  29.6033359  19.8184973  61.6511781  28.4325994   6.5121024  71.4903993
  27.5148555   6.7335971  71.3325681  28.8486137   6.5867334  70.6315700
  29.2161041   7.9112440  66.6206673  29.9632860   8.4233837  66.3113795
  29.4852631   7.5896492  67.4811067  27.4887692  10.4070980  63.6033628
  26.5798911  10.1230013  63.7006097  27.5182775  10.8270059  62.7436934
  32.7206959  14.0177570  67.3724795  32.2669286  13.1768480  67.4289986
  32.0900926  14.6538968  67.7099575  31.6639879   4.9469556  68.6025463
  30.9262635   4.4346942  68.9335705  31.9166652   4.5069937  67.7908739
  31.1639898  15.8554067  68.3074613  31.4562873  16.4159124  67.5886979
  31.6738519  16.1482628  69.0627772  26.0372586   8.0199601  69.7043423
  26.0921195   7.0673437  69.6285899  25.2263788   8.1759040  70.1884721
  27.1863779  11.9479724  60.9421706  26.7483209  11.2315583  60.4827343
  27.9274220  12.1755839  60.3806797  23.9764946   6.6376661  67.4633802
  23.1632811   6.9370831  67.8698994  24.4723940   6.2432349  68.1808284
  26.1273524  16.6334418  69.3968066  26.0849702  16.8595264  68.4676598
  27.0436222  16.3997792  69.5453868  29.5739157   7.1018485  76.2948696
  29.9288545   7.3289958  77.1543161  30.2211289   7.4336862  75.6725951
  35.3036894  10.2236921  66.9998025  35.1654793  10.4138517  66.0719214
  34.9473113  10.9856304  67.4566076  35.3306274  12.2913448  72.0109296
  35.7642781  12.1988737  72.8592350  36.0437855  12.2670949  71.3729312
  24.2439324  13.5097447  69.1930029  25.0379923  13.0147767  68.9912604
  23.5331017  12.9815310  68.8297735  29.0634169  15.8915542  73.5442397
  29.1171191  16.4606478  74.3120113  28.1948950  16.0617427  73.1796434
  20.5522088   7.6540528  65.2689782  19.6219676   7.5924984  65.4859744
  20.6479560   7.1316481  64.4726423  36.1921823  12.3337149  74.5442182
  36.3857714  13.2382959  74.7901457  36.0922442  11.8744568  75.3780767
  27.8458134   2.2195039  77.0432509  27.1986049   2.9184989  76.9496985
  28.6159150   2.6531183  77.4108757  31.2536932  12.4843891  80.1183062
  31.1022439  12.2554443  79.2013146  31.2441612  13.4414493  80.1314407
  28.0222269  10.0575804  75.1029329  28.9514329  10.2086964  74.9298296
  27.6013299  10.1459825  74.2477975  26.8210600  14.0826469  72.8727866
  26.6821686  13.7145253  73.7453804  26.0325197  14.5974108  72.7011824
  27.4158752  19.1835565  64.2153403  27.5910508  18.7123608  65.0299025
  26.7291540  19.8101331  64.4434664  28.3715815  13.4608071  70.2616704
  28.0365648  13.4208841  71.1574354  27.8719761  12.7952787  69.7887114
  22.3460059   8.8675701  75.7869285  22.2079857   8.1355940  76.3880824
  23.2564983   8.7784601  75.5053473  31.3075007  10.8064106  60.5353764
  30.6904178  10.0810934  60.4386816  30.8391496  11.5673466  60.1920838
  24.9742360   8.5795661  75.2752965  25.6841979   7.9388853  75.2339583
  24.9311668   8.8308556  76.1979146  32.9629139  15.5163014  78.1959544
  32.9041685  14.8322234  77.5290127  33.3648657  16.2582004  77.7440170
  23.6871294   5.5660879  77.0948604  23.1508651   5.1151617  77.7470201
  23.0988003   5.7006787  76.3519069  21.9819838  22.3324928  70.9893263
  22.2216436  22.9643452  71.6672282  21.1389034  21.9812968  71.2758622
  32.9646546  13.4802598  76.4273524  32.0773325  13.1428520  76.5499923
  33.5345097  12.7485629  76.6642289  26.4947699  18.1404050  73.3934767
  26.4217871  18.9459022  73.9054071  26.0525093  18.3396016  72.5682788
  26.2837479  17.3775820  66.9037588  25.5005001  17.9197501  66.9975813
  26.9830224  17.8949800  67.3031830  29.5934129   3.1870450  69.5471794
  30.0902829   2.4340412  69.2272864  28.8221111   3.2234766  68.9815003
  37.4463887   8.8910815  71.1890085  37.4353763   9.7735531  70.8184018
  36.5781266   8.5382366  70.9944622  28.9546383  18.0390884  75.5492926
  29.6674355  18.6738349  75.4768827  28.4636412  18.1354750  74.7332927
  30.6763910  11.9442137  67.1210217  29.7420189  12.0643599  66.9514922
  30.8540578  11.0414604  66.8570227  26.1769098   5.3287833  69.2743478
  25.8066885   4.7758873  69.9624384  26.6728190   4.7245966  68.7218479
  34.0636461   7.7859456  67.6560251  34.5296913   8.6187448  67.5820554
  34.5143962   7.3204438  68.3605510  24.0058296  15.7885328  76.3698496
  24.7067756  16.4221811  76.5227891  23.5353411  16.1300059  75.6094136
  32.1312692  14.1303278  64.6546403  32.4072536  14.0159872  65.5640278
  31.2617191  13.7320762  64.6158577  32.0353124   0.1540043  71.6951153
  31.1216204   0.3844270  71.8633360  32.4646225   0.2378487  72.5465185
  31.8059582   8.3429935  74.1951047  31.1531033   8.5905843  73.5403500
  32.1839962   7.5294073  73.8613524  28.7666756  18.3789628  68.2979217
  28.9489151  17.5611284  68.7606969  29.5899742  18.5957321  67.8604107
  29.1008922  17.3057814  65.5594266  29.6296688  16.7950268  64.9464428
  29.3637141  16.9900344  66.4239799  27.8547155   9.0849746  80.6817084
  27.1787792   8.9843876  81.3519459  28.6774789   8.9288960  81.1453081
  19.6026015  15.3221683  73.3029599  20.1879451  14.5765371  73.4357503
  19.4050853  15.6325640  74.1866263  22.4564670  18.3572930  68.3192041
  21.7875045  18.8419058  67.8356082  22.3177539  18.6042151  69.2335420
  26.5969938  20.3916674  74.9174700  27.1488246  20.5548295  75.6823785
  26.9376132  20.9821112  74.2454725  31.4480813  15.2177931  80.7723354
  31.9920717  15.8307890  80.2778309  30.8667658  15.7757510  81.2890367
  29.7338326  18.3398649  71.9038382  29.6089465  17.5388389  71.3949327
  30.3917417  18.8344843  71.4152352  31.7973234  16.1407669  73.5317932
  30.8503570  16.0213021  73.4596259  32.1456007  15.2530167  73.6144194
  28.8019667  15.9360386  69.7322284  28.6544630  15.0077093  69.9129854
  29.6273161  15.9580476  69.2479360  32.4053789  16.7588944  70.8187157
  33.3300337  16.5531806  70.6811608  32.2369093  16.5105345  71.7276499
  28.7981182   3.7898223  64.7254402  29.0144796   4.6722861  64.4243230
  28.3175249   3.3984437  63.9960044  23.5380403   6.7483936  71.3025146
  23.3924984   7.0624240  72.1949428  23.0605607   7.3668837  70.7496045
  27.2502917   4.1723825  73.3959163  26.9920694   5.0940895  73.3943494
  26.7187957   3.7754259  74.0859627  32.1949105  17.2774612  66.1749249
  32.3685983  16.7121034  65.4223101  32.6877997  18.0775507  65.9928738
  18.0126065   9.2889281  74.2412807  17.4679533  10.0649089  74.3733082
  18.8905415   9.6360085  74.0831929  38.0488497  10.0411035  67.7939548
  38.4919643   9.2918360  67.3958672  37.1715007  10.0321171  67.4113280
  33.1824278  16.5941376  63.2746147  33.8775182  17.2148069  63.4933461
  33.5247428  15.7436727  63.5498525  18.7992087   8.4159177  77.1342964
  18.0573823   8.5641812  77.7207595  18.4784831   8.6767443  76.2709714
  35.0815701  14.0441082  64.8033478  35.6067025  14.3828354  64.0782798
  34.9938054  13.1088097  64.6196612  26.7435750  17.9575155  76.9323354
  27.0522876  17.7124302  77.8046054  27.5411232  18.1621794  76.4442224
  26.7656362  20.1113065  69.1628731  26.3261352  19.6189444  69.8561587
  27.5164479  19.5686033  68.9220806  19.2448701  16.3024606  69.1653359
  20.0706721  16.0028378  68.7852002  18.8942753  15.5332228  69.6143147
  24.2130234  15.6551074  71.2351032  23.5910243  14.9921779  70.9353260
  24.8835101  15.6812206  70.5524680  17.4457306  14.2210932  70.1242292
  16.6089214  13.7933107  69.9426294  17.4180951  14.4143376  71.0613084
  34.7709607  14.6773985  80.1084676  33.9805151  14.6598124  79.5689175
  34.5342962  15.2162279  80.8633712  34.8907482  11.5266452  77.4217404
  34.9405487  11.3616459  78.3632927  34.7821405  10.6593711  77.0315285
  23.7743741  14.2054997  64.7109493  23.9231861  14.8890462  64.0576166
  24.5810184  14.1860087  65.2258949  32.1811244   7.5097380  78.7376711
  33.0821107   7.3703845  78.4460709  32.2559219   7.6751835  79.6774888
  26.5154050   4.8864234  77.5829897  25.6457359   5.1797801  77.3112486
  26.7513530   5.4704679  78.3037161  36.3925679  13.9463393  77.6659426
  36.1010487  14.3093374  78.5022887  35.7797810  13.2330402  77.4872758
  37.5921361  11.5116273  70.1861996  38.4268253  11.9506077  70.3499556
  37.7280490  11.0354926  69.3670242  34.6412867   9.0696008  76.1339484
  35.1166989   9.2623654  75.3258335  33.7178433   9.1255194  75.8882867
  21.5296374  10.2320175  65.7170562  21.2842416   9.3282505  65.9150772
  21.6992288  10.2337325  64.7750040  29.2193084   1.1043851  75.0995318
  29.7375027   1.8404878  74.7741806  28.8648216   1.4107845  75.9342077
  27.2739146  16.7003128  62.1821240  26.7013113  17.3193315  61.7291712
  27.8471940  17.2502490  62.7161162  33.3414536   5.9461768  74.3667789
  34.2931959   6.0459866  74.3880013  33.1717987   5.1540036  74.8765874
  31.3628916   3.0317351  74.5527190  30.7678848   3.3122364  73.8573679
  31.0778612   3.5211252  75.3243931  30.4936406  16.9840278  63.3129823
  31.4267079  16.9185840  63.5162698  30.4059619  17.8196545  62.8544355
  33.1224423  16.3006148  60.2733770  33.0438054  15.9666012  61.1669528
  33.9434090  16.7927916  60.2725243  35.8202614   9.1667888  73.4810089
  35.7878934   8.2283888  73.6669773  36.4303238   9.2451924  72.7475914
  27.6585945   8.0363941  59.5237293  28.6045050   7.9070149  59.5925711
  27.2800190   7.2978603  60.0006721  35.9697102   5.9578931  73.5268372
  35.4536151   5.1737388  73.3398301  36.8537051   5.6297648  73.6914892
  33.6307829  -0.2980053  69.4864185  33.4332650  -0.6064965  70.3707517
  34.2407535   0.4281586  69.6162115  41.6379164  10.2283894  72.6216126
  42.3682552   9.9669183  73.1823829  41.0286109   9.4912616  72.6618194
  39.7194461   8.3691757  73.2190577  38.9927624   8.2347722  72.6107068
  39.3041748   8.6768586  74.0247295  27.5424637  12.0881687  80.9837950
  28.4627647  12.2660286  81.1777996  27.5074220  11.1437732  80.8317649
  25.8428862   5.9613917  59.4592178  24.9360317   5.6647030  59.5354892
  26.1204843   5.6643735  58.5926464  20.5386710   9.9982721  73.6260731
  20.7572720  10.9299829  73.6448765  20.9512484   9.6390696  74.4115535
  25.4114575   5.5715927  83.0163480  25.3111302   6.5210284  82.9475571
  25.1936117   5.2434166  82.1439550  16.6295062  10.9023192  71.8784346
  15.9358534  10.4877145  71.3654301  17.3768053  10.9443728  71.2817765
  32.7660283   1.6929379  66.7439380  32.1858952   2.3514183  66.3617433
  32.4996216   0.8706723  66.3326798  31.2163849   1.0934436  68.9460701
  31.7163628   1.2050971  68.1375019  31.8599457   0.7895489  69.5861509
  25.2745845   9.0013066  81.8328542  24.7912927   9.8013426  82.0392431
  25.3606784   9.0121011  80.8795986  18.5431805  10.8341446  69.7550361
  18.5202493  10.9329133  68.8032244  18.8532441  11.6806596  70.0767527
  21.2019183  12.8917601  73.8696975  22.1562436  12.8601543  73.8026907
  21.0031706  12.4308224  74.6847201  21.7918565  11.4618717  76.4367773
  22.6111454  11.9562795  76.4602610  22.0655373  10.5450685  76.4085341
  31.5485161   3.8529469  65.7995729  30.6611016   4.1379120  65.5815923
  31.9639150   3.6923232  64.9523005  34.8999697   3.8775990  69.5150068
  35.6760087   4.3672442  69.7874685  34.1747831   4.3034044  69.9721937
  37.3372256   4.5903609  70.5724008  37.9316747   4.3499345  69.8617317
  37.4098840   3.8710740  71.1997545  19.5569412  18.4337220  70.8867173
  19.4223879  17.6737621  70.3205171  19.1401474  19.1578120  70.4195962
  30.6928375  13.6174144  59.8943749  31.3964225  13.8224146  60.5101404
  29.9691023  14.1850906  60.1592832  31.5226185   9.3684005  66.0146019
  31.4661386   9.8252556  65.1753651  32.0754527   8.6074690  65.8368861
  35.3330991   5.1573737  66.8396138  35.0767925   4.7570373  67.6704346
  34.7083859   5.8717531  66.7146277  39.6443329   7.8969810  69.3467430
  39.0842887   7.9662999  70.1198992  39.0386832   7.7210795  68.6266926
  22.7138537  19.3306537  71.0985616  22.5970922  20.2751970  70.9964306
  21.8930984  19.0280099  71.4871415  32.6015072  14.0556673  61.9442209
  33.4360676  13.6237871  61.7619683  32.4399415  13.8838687  62.8719103
  32.2560964  10.5588786  63.3098548  32.2009768  10.3933058  62.3686992
  31.6307019  11.2664819  63.4660738  29.5706871  12.8637698  82.6352111
  30.4398031  13.0378350  82.2738746  29.0913623  13.6832115  82.5127840
  23.7393052  19.9834799  74.3141544  24.6420298  20.0158409  74.6308039
  23.5130422  19.0535250  74.3287880  25.4946654  18.7365786  70.9751623
  24.5442285  18.7367647  70.8615995  25.7979140  17.9898520  70.4587658
  41.2299347  24.5726324  72.0397385  41.8677757  24.4533071  71.3360725
  41.1120190  25.5207168  72.0985338  38.0389053  24.5253752  71.9758910
  37.7007565  24.4094817  71.0879445  38.9078822  24.1244917  71.9559916
  33.8975869  26.3789229  67.9655801  33.3340734  26.2879165  67.1972089
  33.7828264  25.5589133  68.4458294  38.5208836  25.6788604  77.9345116
  38.5097477  25.2841402  77.0625619  38.6829476  24.9454676  78.5278887
  31.4440301  27.8740420  70.8040021  32.2361593  27.5331245  70.3886321
  31.6836951  27.9835395  71.7242175  39.4775428  30.0460196  63.2770266
  38.8263407  30.6314277  62.8904280  40.2719791  30.5766391  63.3365303
  33.4031055  27.1349333  63.6757400  34.1761931  26.5878320  63.5370276
  33.7556454  27.9993583  63.8871862  35.2416097  28.4625716  76.8824300
  34.9505963  29.3671347  76.7670966  35.8773082  28.5042243  77.5968369
  36.1672304  25.8402564  73.4725659  36.7635877  25.6158587  72.7582622
  36.2247276  25.0987310  74.0751107  35.7397333  23.2942000  61.3075850
  35.9922853  22.7723521  60.5459313  34.8021892  23.1308145  61.4102534
  40.7840616  22.2977778  69.1150593  41.5703705  21.8797201  68.7641010
  41.0479320  23.2023870  69.2832242  40.9550693  27.7350628  63.8139250
  40.3196526  27.8085255  64.5260155  40.6248099  28.3244227  63.1358329
  46.1849043  22.2353011  70.0183572  46.9174215  21.6652228  70.2521401
  45.4288398  21.8474612  70.4590077  35.4593621  25.1970105  63.5100225
  35.3429880  24.5215009  64.1781309  35.5695881  24.7102479  62.6932378
  37.8025162  24.6580253  67.2146914  37.4383370  24.1310874  67.9259836
  38.6592278  24.2678722  67.0413400  43.7074463  15.9474585  74.4778181
  43.3757788  16.8169996  74.2539395  43.1120076  15.6310869  75.1572211
  37.4430649  19.6870152  62.2108263  37.6105052  20.5550389  62.5778734
  37.2527818  19.8497434  61.2869552  40.2005983  28.1487131  73.8774093
  39.9006706  29.0512170  73.7689900  39.8557042  27.8819314  74.7295246
  33.6518464  24.6000928  69.9110798  32.7268960  24.4677142  70.1188489
  33.9002877  25.3795147  70.4080740  43.6003126  20.6669671  71.5571531
  42.6920004  20.5985080  71.2630292  43.5490722  21.1441616  72.3853356
  37.4219870  22.1427810  63.1954930  37.3019495  22.5884861  64.0340410
  36.7272459  22.4913127  62.6368468  31.0127275  24.2434202  70.7454587
  31.1419656  24.4968680  71.6593998  30.3324726  24.8361910  70.4259242
  35.1826762  34.9131452  66.8445061  35.1050792  35.8639277  66.9233542
  34.5788406  34.5677324  67.5019987  37.6743992  22.0859317  79.5006428
  36.8977326  22.6453237  79.4909292  38.3134555  22.5716100  80.0221298
  45.4664773  18.8686110  73.3349404  44.8239153  19.1618643  72.6889199
  44.9619701  18.7539030  74.1402601  43.1204936  22.6149283  64.0235264
  44.0322792  22.8476670  63.8482961  42.6114583  23.1986327  63.4610342
  35.9290364  24.8944770  79.0624395  36.6705049  25.4329814  78.7859218
  35.2227350  25.5211059  79.2195947  41.4045704  27.0373911  77.6596556
  41.8129060  26.5956321  76.9151189  40.6822966  26.4626538  77.9130749
  37.7576774  21.9746518  75.0330113  38.6037969  22.3985931  75.1764762
  37.6975412  21.3180142  75.7268676  41.7274519  27.5975101  71.4148845
  41.0983381  27.7620816  70.7124913  41.3400181  28.0116711  72.1859809
  45.6063751  28.5329539  68.7693209  44.9214789  28.9128441  68.2190242
  45.6907600  29.1424866  69.5025157  40.9076219  19.6350886  76.6911287
  40.6637151  20.3892946  76.1545563  41.1836150  20.0136234  77.5258534
  42.8614682  26.1789498  75.3688552  43.0731577  26.8221258  74.6922934
  42.8144430  25.3451815  74.9010483  40.4640911  18.7907319  72.2725125
  39.6025390  19.0888572  72.5641862  40.4903346  19.0077718  71.3406157
  37.2802481  27.3349509  68.6798930  37.7440826  27.6137212  67.8903553
  37.0159279  26.4332954  68.4972021  34.1726562  26.8820991  71.6178694
  34.7427919  27.3108259  70.9796178  34.7634673  26.6003576  72.3162879
  36.2171367  23.4572662  65.4888495  36.9195410  23.9093706  65.9562422
  35.8851995  22.8156481  66.1168389  34.6651728  22.0484418  79.8639705
  34.0350389  22.7300699  80.0975102  34.5587816  21.9367500  78.9192843
  29.9596701  21.7156215  70.7905629  29.1695755  21.9713743  70.3145740
  30.4507948  22.5304552  70.8957670  43.9760510  29.0561454  73.5410910
  44.7977954  28.6541641  73.2593591  43.9722913  28.9529688  74.4927026
  31.9111446  22.0800794  67.7489106  31.1142609  22.1919488  68.2672601
  31.6837038  22.4187446  66.8829996  37.7417114  28.6045497  75.6971620
  37.8061546  29.0665904  76.5329792  37.0328037  27.9742862  75.8253930
  28.2434404  21.9686705  73.2220620  28.4942442  22.8533715  73.4878196
  28.7793952  21.7891307  72.4495712  52.0666503  25.4000202  69.8895881
  51.3130212  24.8307600  69.7339886  52.2014044  25.3662867  70.8366516
  37.4565131  30.2713604  65.5650601  37.3210806  31.1165140  65.9935448
  37.9974944  30.4732882  64.8016534  33.9432471  16.3505184  82.2264956
  33.5499416  15.7971383  82.9012600  34.7598611  16.6615763  82.6171473
  30.9094529  27.7889043  66.1378526  31.4219049  28.5832293  66.2884090
  31.5617241  27.0915333  66.0712127  32.7189413  30.9054799  68.2201279
  32.8956042  31.8272763  68.0322263  33.5146247  30.5913218  68.6495659
  36.8600432  17.7663063  79.8185212  37.6010145  18.3670217  79.7389675
  37.0918355  17.0240701  79.2603255  32.0041770  22.9519431  78.0963442
  31.8895285  22.0504688  78.3970541  31.1486288  23.1983127  77.7448259
  39.0833608  30.8937171  79.6950943  38.6397462  30.1073550  79.3771847
  39.7450821  31.0816321  79.0294834  33.8420729  32.4232973  74.2211621
  34.3928154  32.2950036  73.4488615  33.0032205  32.7227862  73.8706514
  41.1814846  31.1739971  77.7232344  41.1633321  31.9948852  77.2312613
  42.1034766  31.0494046  77.9482485  37.6387900  28.6884100  78.5655852
  38.1716237  27.9272389  78.3355160  37.1101981  28.3957752  79.3080007
  40.8057595  13.7944166  74.0949494  40.4621864  14.6845808  74.0188605
  41.1736557  13.6045824  73.2319079  28.8743445  26.1177697  66.9138096
  29.7118667  26.5274705  66.6971804  29.0521713  25.1777139  66.8838290
  40.7707878  23.7852777  62.6021929  40.2554501  24.5557382  62.8410317
  40.4985186  23.1117914  63.2254991  38.3554989  18.6302478  67.6607168
  37.4996585  18.2409329  67.4812806  38.7681940  18.7094439  66.8006953
  39.8854135  16.1648822  72.0598727  39.3818931  16.1278957  71.2466533
  40.1784742  17.0741564  72.1195384  36.1297021  16.2487551  71.0664909
  36.9950018  16.0530360  70.7070799  36.1974530  16.0197903  71.9934266
  45.7442152  26.5385132  64.5375103  44.9671594  26.1996292  64.0930265
  46.4233633  26.5437755  63.8630068  40.5594181  21.6579870  64.4281710
  40.2544316  21.9726019  65.2791854  41.5124623  21.7361289  64.4709043
  39.0040613  27.8170093  66.0774664  38.4761974  27.0822852  65.7647902
  38.5028115  28.5944769  65.8314633  43.9833459  26.0119113  71.1941711
  43.3257133  26.7018375  71.2821839  44.7873858  26.4015545  71.5375697
  33.7359340  18.4789759  68.4381276  34.3103092  18.2564941  67.7054469
  34.3230323  18.5478454  69.1909877  42.7938917  24.3663486  69.2445652
  43.3070799  24.9993478  69.7467362  43.4440141  23.7664682  68.8789012
  34.0628927  20.5094220  62.4577161  33.2266240  20.8468907  62.7786436
  33.9233697  20.3743200  61.5204298  36.0382008  15.3531008  67.1656345
  35.3846420  15.0380025  66.5412960  35.9962482  14.7306749  67.8916168
  37.1493213  25.6350303  59.0809637  36.2420274  25.4039557  59.2800786
  37.6464245  24.8387922  59.2683619  40.0561292  34.3447810  62.0006324
  39.3822990  34.6479507  62.6091281  40.4427114  35.1476891  61.6511781
  39.2719748  21.8412942  71.4903993  38.3542310  22.0627889  71.3325681
  39.6879892  21.9159252  70.6315700  40.0554796  23.2404357  66.6206673
  40.8026615  23.7525755  66.3113795  40.3246386  22.9188410  67.4811067
  38.3281446  25.7362898  63.6033628  37.4192665  25.4521931  63.7006097
  38.3576530  26.1561977  62.7436934  43.5600714  29.3469488  67.3724795
  43.1063041  28.5060397  67.4289986  42.9294680  29.9830886  67.7099575
  42.5033633  20.2761474  68.6025463  41.7656390  19.7638860  68.9335705
  42.7560407  19.8361855  67.7908739  42.0033653  31.1845984  68.3074613
  42.2956627  31.7451041  67.5886979  42.5132273  31.4774545  69.0627772
  42.6045260  13.0537726  69.1967232  42.9104137  12.1935089  68.9093147
  43.3297865  13.6455346  68.9966226  28.8969617  23.4568412  67.5848830
  28.6994016  22.8637773  66.8599896  28.3416281  23.1520622  68.3024769
  36.8766340  23.3491519  69.7043423  36.9314950  22.3965355  69.6285899
  36.0657542  23.5050958  70.1884721  38.0257534  27.2771642  60.9421706
  37.5876964  26.5607501  60.4827343  38.7667975  27.5047757  60.3806797
  34.8158700  21.9668578  67.4633802  34.0026566  22.2662749  67.8698994
  35.3117694  21.5724267  68.1808284  36.9667278  31.9626335  69.3968066
  36.9243457  32.1887182  68.4676598  37.8829977  31.7289710  69.5453868
  40.4132912  22.4310403  76.2948696  40.7682300  22.6581876  77.1543161
  41.0605043  22.7628780  75.6725951  46.1430649  25.5528839  66.9998025
  46.0048547  25.7430435  66.0719214  45.7866868  26.3148222  67.4566076
  34.3072775  19.5386934  73.0795037  34.9472154  19.3975693  72.3818000
  33.4750305  19.2521447  72.7033639  46.1700028  27.6205366  72.0109296
  46.6036535  27.5280655  72.8592350  46.8831609  27.5962866  71.3729312
  35.0833079  28.8389364  69.1930029  35.8773677  28.3439684  68.9912604
  34.3724771  28.3107227  68.8297735  39.9027923  31.2207460  73.5442397
  39.9564946  31.7898396  74.3120113  39.0342705  31.3909345  73.1796434
  31.3915842  22.9832446  65.2689782  30.4613430  22.9216902  65.4859744
  31.4873314  22.4608399  64.4726423  31.3101391  19.5087259  67.8568024
  31.5708209  20.4232592  67.7477184  32.1318564  19.0411701  68.0064636
  32.7826317  20.9225016  75.0266848  33.4549370  20.7142378  74.3779497
  31.9556103  20.7247102  74.5872080  47.0315578  27.6629066  74.5442182
  47.2251468  28.5674877  74.7901457  46.9316196  27.2036485  75.3780767
  38.6851889  17.5486957  77.0432509  38.0379804  18.2476907  76.9496985
  39.4552904  17.9823101  77.4108757  42.0930687  27.8135809  80.1183062
  41.9416193  27.5846361  79.2013146  42.0835366  28.7706411  80.1314407
  38.8616023  25.3867722  75.1029329  39.7908083  25.5378881  74.9298296
  38.4407053  25.4751743  74.2477975  37.6604355  29.4118386  72.8727866
  37.5215440  29.0437171  73.7453804  36.8718951  29.9266026  72.7011824
  38.2552507  34.5127483  64.2153403  38.4304262  34.0415526  65.0299025
  37.5685295  35.1393249  64.4434664  39.2109570  28.7899989  70.2616704
  38.8759403  28.7500759  71.1574354  38.7113516  28.1244705  69.7887114
  33.1853814  24.1967619  75.7869285  33.0473612  23.4647858  76.3880824
  34.0958737  24.1076519  75.5053473  42.1468762  26.1356023  60.5353764
  41.5297932  25.4102851  60.4386816  41.6785250  26.8965384  60.1920838
  35.8136115  23.9087578  75.2752965  36.5235733  23.2680771  75.2339583
  35.7705423  24.1600473  76.1979146  43.8022893  30.8454932  78.1959544
  43.7435439  30.1614152  77.5290127  44.2042412  31.5873922  77.7440170
  34.5265049  20.8952796  77.0948604  33.9902406  20.4443535  77.7470201
  33.9381757  21.0298705  76.3519069  32.8213592  37.6616846  70.9893263
  33.0610190  38.2935370  71.6672282  31.9782789  37.3104886  71.2758622
  33.9367307  20.3541448  59.6575068  33.0596774  20.2330248  59.2937315
  34.4125061  19.5627526  59.4053957  43.8040301  28.8094516  76.4273524
  42.9167079  28.4720437  76.5499923  44.3738852  28.0777547  76.6642289
  25.4569448  25.1418607  69.7516575  26.1440487  24.8280337  69.1637590
  25.3017576  26.0459972  69.4783827  30.2604170  20.0308804  74.1801599
  30.1762359  19.4234473  73.4452009  29.4386876  20.5217822  74.1811095
  37.3341454  33.4695968  73.3934767  37.2611625  34.2750939  73.9054071
  36.8918847  33.6687934  72.5682788  37.1231234  32.7067738  66.9037588
  36.3398755  33.2489418  66.9975813  37.8223979  33.2241718  67.3031830
  40.4327884  18.5162367  69.5471794  40.9296583  17.7632330  69.2272864
  39.6614865  18.5526684  68.9815003  48.2857641  24.2202733  71.1890085
  48.2747517  25.1027448  70.8184018  47.4175020  23.8674284  70.9944622
  39.7940137  33.3682802  75.5492926  40.5068110  34.0030267  75.4768827
  39.3030166  33.4646668  74.7332927  41.5157664  27.2734055  67.1210217
  40.5813943  27.3935517  66.9514922  41.6934333  26.3706521  66.8570227
  37.0162852  20.6579750  69.2743478  36.6460640  20.1050791  69.9624384
  37.5121945  20.0537884  68.7218479  44.9030216  23.1151374  67.6560251
  45.3690668  23.9479366  67.5820554  45.3537716  22.6496356  68.3605510
  34.8452051  31.1177245  76.3698496  35.5461510  31.7513728  76.5227891
  34.3747166  31.4591977  75.6094136  42.9706447  29.4595195  64.6546403
  43.2466291  29.3451790  65.5640278  42.1010946  29.0612680  64.6158577
  42.8746878  15.4831961  71.6951153  41.9609958  15.7136188  71.8633360
  43.3039980  15.5670405  72.5465185  42.6453337  23.6721853  74.1951047
  41.9924787  23.9197760  73.5403500  43.0233717  22.8585991  73.8613524
  39.6060511  33.7081546  68.2979217  39.7882905  32.8903202  68.7606969
  40.4293497  33.9249238  67.8604107  39.9402676  32.6349731  65.5594266
  40.4690443  32.1242186  64.9464428  40.2030896  32.3192261  66.4239799
  38.6940910  24.4141664  80.6817084  38.0181547  24.3135793  81.3519459
  39.5168544  24.2580878  81.1453081  30.4419769  30.6513601  73.3029599
  31.0273206  29.9057288  73.4357503  30.2444607  30.9617557  74.1866263
  33.2958424  33.6864848  68.3192041  32.6268800  34.1710976  67.8356082
  33.1571294  33.9334068  69.2335420  25.0337424  23.2219201  72.0234042
  25.0721523  22.6882791  72.8171160  24.5277717  22.6954406  71.4045019
  37.4363693  35.7208591  74.9174700  37.9882001  35.8840213  75.6823785
  37.7769886  36.3113029  74.2454725  32.4128186  18.0683741  75.5196585
  32.4769513  18.9298572  75.1073982  32.3495306  17.4557743  74.7868943
  31.8880459  20.1406874  79.1669619  32.5152497  19.7583951  79.7807143
  31.0308377  19.9221076  79.5325311  42.2874567  30.5469849  80.7723354
  42.8314471  31.1599807  80.2778309  41.7061412  31.1049427  81.2890367
  28.6646001  21.9483303  65.0987974  28.9599442  21.0393981  65.0455027
  27.7634037  21.9271042  64.7768976  40.5732080  33.6690567  71.9038382
  40.4483220  32.8680307  71.3949327  41.2311171  34.1636760  71.4152352
  32.1940248  20.0239299  71.0815522  31.4726834  20.6375267  70.9422996
  32.9833504  20.5597064  71.0032168  42.6366988  31.4699587  73.5317932
  41.6897324  31.3504938  73.4596259  42.9849762  30.5822085  73.6144194
  34.9966562  17.3593726  77.3556174  35.5200964  17.6056022  78.1182483
  34.7778895  18.1913761  76.9359311  30.3933843  19.6297401  65.2227299
  30.0646549  18.7494779  65.0402405  30.7473214  19.5745069  66.1103688
  39.6413422  31.2652303  69.7322284  39.4938384  30.3369011  69.9129854
  40.4666915  31.2872394  69.2479360  33.5075666  19.9170370  65.5902776
  33.8471739  20.4456292  64.8681385  33.9547787  20.2550776  66.3661343
  43.2447544  32.0880862  70.8187157  44.1694091  31.8823723  70.6811608
  43.0762847  31.8397263  71.7276499  36.2019107  18.3007421  75.0405845
  35.8615927  17.5015234  75.4426524  35.4958113  18.6009132  74.4682678
  36.8535579  15.3856733  73.4933168  37.6761648  14.9117212  73.3712058
  37.0973642  16.1647217  73.9931854  35.4943813  18.4144992  63.7896069
  36.2152176  18.7926245  63.2859786  34.8709117  19.1333869  63.8931047
  39.6374936  19.1190141  64.7254402  39.8538550  20.0014779  64.4243230
  39.1569003  18.7276354  63.9960044  34.3774157  22.0775854  71.3025146
  34.2318738  22.3916157  72.1949428  33.8999361  22.6960754  70.7496045
  36.2370540  19.0678402  71.3506036  36.2232109  18.1719495  71.0138334
  36.9542968  19.0749066  71.9844322  38.0896671  19.5015742  73.3959163
  37.8314449  20.4232813  73.3943494  37.5581711  19.1046177  74.0859627
  43.0342860  32.6066529  66.1749249  43.2079737  32.0412952  65.4223101
  43.5271751  33.4067424  65.9928738  28.8519820  24.6181199  74.2412807
  28.3073288  25.3941006  74.3733082  29.7299170  24.9652003  74.0831929
  35.6407436  17.9492782  66.6193606  35.7623347  17.0209429  66.8184493
  35.3509479  17.9631468  65.7071921  38.5098627  15.6347693  69.7560326
  38.5320324  15.6987026  68.8012305  38.9266686  14.7952201  69.9500832
  48.8882251  25.3702952  67.7939548  49.3313397  24.6210278  67.3958672
  48.0108761  25.3613089  67.4113280  44.0218032  31.9233294  63.2746147
  44.7168937  32.5439987  63.4933461  44.3641182  31.0728645  63.5498525
  29.6385842  23.7451095  77.1342964  28.8967578  23.8933730  77.7207595
  29.3178586  24.0059360  76.2709714  45.9209455  29.3732999  64.8033478
  46.4460780  29.7120272  64.0782798  45.8331808  28.4380015  64.6196612
  37.5829504  33.2867073  76.9323354  37.8916631  33.0416220  77.8046054
  38.3804986  33.4913711  76.4442224  37.6050116  35.4404983  69.1628731
  37.1655106  34.9481361  69.8561587  38.3558233  34.8977950  68.9220806
  30.0842455  31.6316523  69.1653359  30.9100475  31.3320295  68.7852002
  29.7336507  30.8624146  69.6143147  35.0523988  30.9842992  71.2351032
  34.4303998  30.3213697  70.9353260  35.7228855  31.0104124  70.5524680
  28.2851060  29.5502850  70.1242292  27.4482969  29.1225024  69.9426294
  28.2574706  29.7435293  71.0613084  35.1248516  19.4624780  80.8283538
  35.1736671  20.3386903  80.4461308  35.6671030  18.9202173  80.2555182
  45.6103362  30.0065903  80.1084676  44.8198905  29.9890042  79.5689175
  45.3736716  30.5454197  80.8633712  45.7301237  26.8558369  77.4217404
  45.7799241  26.6908377  78.3632927  45.6215160  25.9885628  77.0315285
  34.6137495  29.5346915  64.7109493  34.7625616  30.2182379  64.0576166
  35.4203939  29.5152005  65.2258949  43.0204999  22.8389297  78.7376711
  43.9214862  22.6995762  78.4460709  43.0952973  23.0043752  79.6774888
  37.3547804  20.2156152  77.5829897  36.4851114  20.5089718  77.3112486
  37.5907285  20.7996597  78.3037161  47.2319433  29.2755311  77.6659426
  46.9404242  29.6385291  78.5022887  46.6191565  28.5622319  77.4872758
  48.4315116  26.8408191  70.1861996  49.2662007  27.2797995  70.3499556
  48.5674245  26.3646844  69.3670242  45.4806622  24.3987926  76.1339484
  45.9560743  24.5915572  75.3258335  44.5572187  24.4547111  75.8882867
  32.3690128  25.5612093  65.7170562  32.1236170  24.6574423  65.9150772
  32.5386043  25.5629243  64.7750040  40.0586838  16.4335769  75.0995318
  40.5768782  17.1696796  74.7741806  39.7041971  16.7399762  75.9342077
  31.6385776  21.2940450  63.2156723  30.9455021  21.3684805  62.5596759
  31.3937528  20.5300794  63.7378240  40.3099432  12.8536052  70.6196214
  40.5901186  12.1859241  71.2456641  41.0950039  13.0465147  70.1070878
  38.1132901  32.0295046  62.1821240  37.5406868  32.6485233  61.7291712
  38.6865694  32.5794407  62.7161162  44.1808291  21.2753686  74.3667789
  45.1325714  21.3751783  74.3880013  44.0111741  20.4831954  74.8765874
  42.2022670  18.3609269  74.5527190  41.6072602  18.6414282  73.8573679
  41.9172367  18.8503170  75.3243931  41.3330161  32.3132196  63.3129823
  42.2660834  32.2477757  63.5162698  41.2453373  33.1488462  62.8544355
  43.9618177  31.6298066  60.2733770  43.8831809  31.2957930  61.1669528
  44.7827844  32.1219834  60.2725243  46.6596368  24.4959805  73.4810089
  46.6272689  23.5575806  73.6669773  47.2696992  24.5743842  72.7475914
  38.4979699  23.3655858  59.5237293  39.4438804  23.2362066  59.5925711
  38.1193944  22.6270520  60.0006721  46.8090857  21.2870849  73.5268372
  46.2929906  20.5029305  73.3398301  47.6930805  20.9589565  73.6914892
  44.4701584  15.0311864  69.4864185  44.2726405  14.7226952  70.3707517
  45.0801289  15.7573503  69.6162115  52.4772918  25.5575812  72.6216126
  53.2076307  25.2961100  73.1823829  51.8679864  24.8204534  72.6618194
  50.5588215  23.6983675  73.2190577  49.8321379  23.5639640  72.6107068
  50.1435502  24.0060503  74.0247295  38.3818392  27.4173604  80.9837950
  39.3021401  27.5952203  81.1777996  38.3467975  26.4729650  80.8317649
  36.6822616  21.2905835  59.4592178  35.7754072  20.9938947  59.5354892
  36.9598597  20.9935653  58.5926464  27.6000557  22.6112198  69.9091225
  27.2803341  21.7577506  69.6165599  27.0533985  22.8260776  70.6649192
  31.3780464  25.3274639  73.6260731  31.5966474  26.2591747  73.6448765
  31.7906238  24.9682613  74.4115535  38.2984682  15.8342724  65.6136419
  37.4885410  15.4889809  65.9891665  38.9869099  15.5250268  66.2024031
  40.2275230  14.9120771  67.2360716  40.7806269  15.3316225  67.8950739
  40.4645317  13.9856519  67.2783672  36.2508330  20.9007845  83.0163480
  36.1505057  21.8502202  82.9475571  36.0329872  20.5726084  82.1439550
  35.4521401  18.1492770  59.6004157  36.3140565  18.4747668  59.8599975
  35.6371745  17.3624266  59.0877223  27.4688817  26.2315110  71.8784346
  26.7752288  25.8169062  71.3654301  28.2161808  26.2735646  71.2817765
  43.6054038  17.0221296  66.7439380  43.0252707  17.6806100  66.3617433
  43.3389970  16.1998641  66.3326798  42.0557604  16.4226354  68.9460701
  42.5557382  16.5342889  68.1375019  42.6993212  16.1187407  69.5861509
  36.1139600  24.3304984  81.8328542  35.6306681  25.1305344  82.0392431
  36.2000539  24.3412929  80.8795986  29.3825559  26.1633363  69.7550361
  29.3596247  26.2621051  68.8032244  29.6926196  27.0098514  70.0767527
  32.0412937  28.2209518  73.8696975  32.9956191  28.1893461  73.8026907
  31.8425461  27.7600142  74.6847201  32.6312319  26.7910634  76.4367773
  33.4505208  27.2854713  76.4602610  32.9049127  25.8742603  76.4085341
  42.3878916  19.1821387  65.7995729  41.5004771  19.4671037  65.5815923
  42.8032905  19.0215150  64.9523005  45.7393452  19.2067908  69.5150068
  46.5153842  19.6964360  69.7874685  45.0141586  19.6325962  69.9721937
  48.1766010  19.9195527  70.5724008  48.7710501  19.6791263  69.8617317
  48.2492594  19.2002657  71.1997545  30.3963166  33.7629138  70.8867173
  30.2617634  33.0029539  70.3205171  29.9795228  34.4870038  70.4195962
  41.5322129  28.9466061  59.8943749  42.2357979  29.1516064  60.5101404
  40.8084778  29.5142823  60.1592832  42.3619939  24.6975923  66.0146019
  42.3055141  25.1544474  65.1753651  42.9148282  23.9366607  65.8368861
  46.1724745  20.4865655  66.8396138  45.9161679  20.0862290  67.6704346
  45.5477613  21.2009448  66.7146277  50.4837083  23.2261728  69.3467430
  49.9236641  23.2954917  70.1198992  49.8780586  23.0502712  68.6266926
  33.5532292  34.6598455  71.0985616  33.4364676  35.6043887  70.9964306
  32.7324738  34.3572016  71.4871415  43.4408826  29.3848591  61.9442209
  44.2754430  28.9529789  61.7619683  43.2793169  29.2130604  62.8719103
  43.0954719  25.8880704  63.3098548  43.0403522  25.7224975  62.3686992
  42.4700774  26.5956737  63.4660738  27.8847234  21.1248768  77.1359970
  28.5306097  20.6147722  77.6247195  27.6764385  21.8617450  77.7103395
  40.4100626  28.1929616  82.6352111  41.2791785  28.3670268  82.2738746
  39.9307377  29.0124033  82.5127840  36.4050844  15.3888813  62.8883866
  36.3929514  16.3330653  63.0452137  37.2974266  15.2058958  62.5943328
  34.5786806  35.3126717  74.3141544  35.4814053  35.3450327  74.6308039
  34.3524176  34.3827168  74.3287880  36.3340408  34.0657703  70.9751623
  35.3836039  34.0659565  70.8615995  36.6372894  33.3190438  70.4587658
  40.2202964  11.9831590  67.1429803  39.4535359  11.4290076  67.2886485
  40.6313668  12.0553458  68.0043955  32.2244725  18.2716385  81.2334984
  33.0876186  17.9153190  81.4438309  31.6510135  17.9330280  81.9210389
  52.0693102  39.9018242  72.0397385  52.7071511  39.7824989  71.3360725
  51.9513944  40.8499086  72.0985338  48.8782808  39.8545670  71.9758910
  48.5401319  39.7386735  71.0879445  49.7472576  39.4536835  71.9559916
  44.7369623  41.7081146  67.9655801  44.1734489  41.6171083  67.1972089
  44.6222019  40.8881051  68.4458294  49.3602591  41.0080522  77.9345116
  49.3491232  40.6133320  77.0625619  49.5223230  40.2746594  78.5278887
  42.2834055  43.2032338  70.8040021  43.0755347  42.8623162  70.3886321
  42.5230706  43.3127313  71.7242175  50.3169182  45.3752114  63.2770266
  49.6657162  45.9606194  62.8904280  51.1113545  45.9058309  63.3365303
  44.2424809  42.4641251  63.6757400  45.0155685  41.9170238  63.5370276
  44.5950208  43.3285500  63.8871862  46.0809852  43.7917633  76.8824300
  45.7899718  44.6963264  76.7670966  46.7166836  43.8334161  77.5968369
  47.0066059  41.1694482  73.4725659  47.6029631  40.9450504  72.7582622
  47.0641030  40.4279227  74.0751107  46.5791087  38.6233917  61.3075850
  46.8316608  38.1015438  60.5459313  45.6415646  38.4600063  61.4102534
  51.6234370  37.6269696  69.1150593  52.4097459  37.2089119  68.7641010
  51.8873074  38.5315788  69.2832242  51.7944447  43.0642546  63.8139250
  51.1590280  43.1377172  64.5260155  51.4641854  43.6536145  63.1358329
  57.0242797  37.5644929  70.0183572  57.7567969  36.9944146  70.2521401
  56.2682153  37.1766529  70.4590077  46.2987376  40.5262023  63.5100225
  46.1823634  39.8506927  64.1781309  46.4089636  40.0394397  62.6932378
  48.6418917  39.9872170  67.2146914  48.2777124  39.4602791  67.9259836
  49.4986033  39.5970639  67.0413400  54.5468217  31.2766503  74.4778181
  54.2151542  32.1461914  74.2539395  53.9513831  30.9602787  75.1572211
  48.2824404  35.0162070  62.2108263  48.4498806  35.8842306  62.5778734
  48.0921573  35.1789352  61.2869552  51.0399737  43.4779049  73.8774093
  50.7400460  44.3804088  73.7689900  50.6950797  43.2111232  74.7295246
  44.4912218  39.9292846  69.9110798  43.5662715  39.7969060  70.1188489
  44.7396632  40.7087065  70.4080740  54.4396881  35.9961589  71.5571531
  53.5313758  35.9276997  71.2630292  54.3884477  36.4733534  72.3853356
  48.2613625  37.4719727  63.1954930  48.1413250  37.9176778  64.0340410
  47.5666213  37.8205045  62.6368468  41.8521030  39.5726119  70.7454587
  41.9813411  39.8260598  71.6593998  41.1718481  40.1653827  70.4259242
  46.0220517  50.2423369  66.8445061  45.9444547  51.1931194  66.9233542
  45.4182160  49.8969242  67.5019987  48.5137747  37.4151235  79.5006428
  47.7371081  37.9745155  79.4909292  49.1528310  37.9008018  80.0221298
  56.3058527  34.1978027  73.3349404  55.6632907  34.4910561  72.6889199
  55.8013456  34.0830948  74.1402601  53.9598691  37.9441201  64.0235264
  54.8716547  38.1768587  63.8482961  53.4508338  38.5278245  63.4610342
  46.7684119  40.2236688  79.0624395  47.5098803  40.7621732  78.7859218
  46.0621104  40.8502977  79.2195947  52.2439459  42.3665828  77.6596556
  52.6522815  41.9248239  76.9151189  51.5216720  41.7918456  77.9130749
  48.5970529  37.3038435  75.0330113  49.4431724  37.7277849  75.1764762
  48.5369166  36.6472060  75.7268676  52.5668273  42.9267019  71.4148845
  51.9377136  43.0912733  70.7124913  52.1793935  43.3408629  72.1859809
  56.4457505  43.8621457  68.7693209  55.7608543  44.2420358  68.2190242
  56.5301354  44.4716784  69.5025157  51.7469974  34.9642804  76.6911287
  51.5030906  35.7184864  76.1545563  52.0229904  35.3428151  77.5258534
  53.7008437  41.5081416  75.3688552  53.9125332  42.1513176  74.6922934
  53.6538185  40.6743733  74.9010483  51.3034666  34.1199237  72.2725125
  50.4419145  34.4180490  72.5641862  51.3297100  34.3369635  71.3406157
  48.1196235  42.6641427  68.6798930  48.5834581  42.9429130  67.8903553
  47.8553033  41.7624872  68.4972021  45.0120316  42.2112909  71.6178694
  45.5821673  42.6400177  70.9796178  45.6028428  41.9295493  72.3162879
  47.0565121  38.7864580  65.4888495  47.7589164  39.2385623  65.9562422
  46.7245750  38.1448398  66.1168389  45.5045483  37.3776336  79.8639705
  44.8744143  38.0592617  80.0975102  45.3981571  37.2659418  78.9192843
  40.7990455  37.0448132  70.7905629  40.0089509  37.3005661  70.3145740
  41.2901702  37.8596470  70.8957670  54.8154265  44.3853371  73.5410910
  55.6371708  43.9833559  73.2593591  54.8116667  44.2821606  74.4927026
  42.7505200  37.4092711  67.7489106  41.9536364  37.5211406  68.2672601
  42.5230793  37.7479364  66.8829996  48.5810868  43.9337415  75.6971620
  48.6455301  44.3957822  76.5329792  47.8721792  43.3034780  75.8253930
  39.0828158  37.2978623  73.2220620  39.3336196  38.1825633  73.4878196
  39.6187706  37.1183224  72.4495712  62.9060258  40.7292120  69.8895881
  62.1523966  40.1599518  69.7339886  63.0407799  40.6954784  70.8366516
  48.2958886  45.6005522  65.5650601  48.1604561  46.4457058  65.9935448
  48.8368698  45.8024800  64.8016534  44.7826225  31.6797102  82.2264956
  44.3893171  31.1263301  82.9012600  45.5992366  31.9907680  82.6171473
  41.7488283  43.1180960  66.1378526  42.2612804  43.9124210  66.2884090
  42.4010996  42.4207251  66.0712127  43.5583168  46.2346716  68.2201279
  43.7349796  47.1564681  68.0322263  44.3540001  45.9205136  68.6495659
  47.6994186  33.0954981  79.8185212  48.4403900  33.6962134  79.7389675
  47.9312109  32.3532619  79.2603255  42.8435524  38.2811348  78.0963442
  42.7289040  37.3796606  78.3970541  41.9880042  38.5275045  77.7448259
  49.9227362  46.2229089  79.6950943  49.4791216  45.4365467  79.3771847
  50.5844576  46.4108239  79.0294834  44.6814483  47.7524890  74.2211621
  45.2321908  47.6241954  73.4488615  43.8425959  48.0519779  73.8706514
  52.0208600  46.5031889  77.7232344  52.0027076  47.3240770  77.2312613
  52.9428520  46.3785964  77.9482485  48.4781654  44.0176018  78.5655852
  49.0109991  43.2564306  78.3355160  47.9495735  43.7249670  79.3080007
  51.6451349  29.1236084  74.0949494  51.3015619  30.0137726  74.0188605
  52.0130312  28.9337742  73.2319079  39.7137200  41.4469614  66.9138096
  40.5512422  41.8566623  66.6971804  39.8915468  40.5069057  66.8838290
  51.6101632  39.1144695  62.6021929  51.0948255  39.8849300  62.8410317
  51.3378940  38.4409831  63.2254991  49.1948743  33.9594396  67.6607168
  48.3390339  33.5701246  67.4812806  49.6075695  34.0386357  66.8006953
  50.7247890  31.4940739  72.0598727  50.2212685  31.4570874  71.2466533
  51.0178497  32.4033482  72.1195384  46.9690776  31.5779469  71.0664909
  47.8343772  31.3822278  70.7070799  47.0368284  31.3489821  71.9934266
  56.5835906  41.8677050  64.5375103  55.8065349  41.5288209  64.0930265
  57.2627387  41.8729673  63.8630068  51.3987935  36.9871787  64.4281710
  51.0938071  37.3017936  65.2791854  52.3518377  37.0653207  64.4709043
  49.8434367  43.1462011  66.0774664  49.3155729  42.4114770  65.7647902
  49.3421870  43.9236687  65.8314633  54.8227213  41.3411031  71.1941711
  54.1650887  42.0310292  71.2821839  55.6267612  41.7307463  71.5375697
  44.5753095  33.8081677  68.4381276  45.1496847  33.5856858  67.7054469
  45.1624077  33.8770371  69.1909877  53.6332672  39.6955404  69.2445652
  54.1464554  40.3285396  69.7467362  54.2833896  39.0956599  68.8789012
  44.9022682  35.8386138  62.4577161  44.0659994  36.1760824  62.7786436
  44.7627451  35.7035118  61.5204298  46.8775762  30.6822926  67.1656345
  46.2240175  30.3671943  66.5412960  46.8356237  30.0598666  67.8916168
  47.9886967  40.9642221  59.0809637  47.0814029  40.7331474  59.2800786
  48.4857999  40.1679840  59.2683619  50.8955046  49.6739728  62.0006324
  50.2216745  49.9771425  62.6091281  51.2820868  50.4768808  61.6511781
  50.1113503  37.1704859  71.4903993  49.1936064  37.3919806  71.3325681
  50.5273646  37.2451170  70.6315700  50.8948550  38.5696275  66.6206673
  51.6420369  39.0817672  66.3113795  51.1640140  38.2480328  67.4811067
  49.1675201  41.0654816  63.6033628  48.2586420  40.7813849  63.7006097
  49.1970284  41.4853894  62.7436934  54.3994468  44.6761405  67.3724795
  53.9456795  43.8352315  67.4289986  53.7688435  45.3122804  67.7099575
  53.3427388  35.6053391  68.6025463  52.6050144  35.0930777  68.9335705
  53.5954161  35.1653773  67.7908739  52.8427407  46.5137902  68.3074613
  53.1350382  47.0742959  67.5886979  53.3526028  46.8066463  69.0627772
  53.4439015  28.3829643  69.1967232  53.7497892  27.5227007  68.9093147
  54.1691620  28.9747263  68.9966226  39.7363371  38.7860330  67.5848830
  39.5387771  38.1929691  66.8599896  39.1810035  38.4812540  68.3024769
  47.7160095  38.6783436  69.7043423  47.7708704  37.7257273  69.6285899
  46.9051297  38.8342875  70.1884721  48.8651288  42.6063559  60.9421706
  48.4270718  41.8899418  60.4827343  49.6061729  42.8339674  60.3806797
  45.6552455  37.2960496  67.4633802  44.8420320  37.5954667  67.8698994
  46.1511449  36.9016185  68.1808284  47.8061033  47.2918253  69.3968066
  47.7637211  47.5179099  68.4676598  48.7223731  47.0581628  69.5453868
  51.2526666  37.7602321  76.2948696  51.6076054  37.9873794  77.1543161
  51.8998798  38.0920697  75.6725951  56.9824403  40.8820756  66.9998025
  56.8442302  41.0722352  66.0719214  56.6260622  41.6440139  67.4566076
  45.1466529  34.8678852  73.0795037  45.7865909  34.7267611  72.3818000
  44.3144060  34.5813365  72.7033639  57.0093783  42.9497283  72.0109296
  57.4430290  42.8572573  72.8592350  57.7225364  42.9254784  71.3729312
  45.9226833  44.1681282  69.1930029  46.7167432  43.6731602  68.9912604
  45.2118526  43.6399145  68.8297735  50.7421678  46.5499378  73.5442397
  50.7958700  47.1190314  74.3120113  49.8736459  46.7201263  73.1796434
  42.2309597  38.3124364  65.2689782  41.3007185  38.2508819  65.4859744
  42.3267069  37.7900316  64.4726423  42.1495146  34.8379177  67.8568024
  42.4101963  35.7524510  67.7477184  42.9712318  34.3703619  68.0064636
  43.6220071  36.2516934  75.0266848  44.2943125  36.0434296  74.3779497
  42.7949858  36.0539020  74.5872080  57.8709332  42.9920984  74.5442182
  58.0645222  43.8966795  74.7901457  57.7709951  42.5328403  75.3780767
  49.5245643  32.8778875  77.0432509  48.8773558  33.5768824  76.9496985
  50.2946659  33.3115019  77.4108757  52.9324441  43.1427727  80.1183062
  52.7809947  42.9138279  79.2013146  52.9229121  44.0998328  80.1314407
  49.7009777  40.7159640  75.1029329  50.6301837  40.8670799  74.9298296
  49.2800808  40.8043660  74.2477975  48.4998109  44.7410304  72.8727866
  48.3609195  44.3729088  73.7453804  47.7112706  45.2557943  72.7011824
  49.0946261  49.8419400  64.2153403  49.2698017  49.3707444  65.0299025
  48.4079049  50.4685167  64.4434664  50.0503324  44.1191907  70.2616704
  49.7153157  44.0792677  71.1574354  49.5507270  43.4536623  69.7887114
  44.0247568  39.5259537  75.7869285  43.8867366  38.7939776  76.3880824
  44.9352492  39.4368437  75.5053473  52.9862516  41.4647941  60.5353764
  52.3691687  40.7394769  60.4386816  52.5179005  42.2257301  60.1920838
  46.6529869  39.2379496  75.2752965  47.3629488  38.5972688  75.2339583
  46.6099177  39.4892391  76.1979146  45.3658803  36.2244714  77.0948604
  44.8296160  35.7735452  77.7470201  44.7775511  36.3590623  76.3519069
  43.6607347  52.9908763  70.9893263  43.9003945  53.6227287  71.6672282
  42.8176543  52.6396803  71.2758622  44.7761062  35.6833365  59.6575068
  43.8990528  35.5622166  59.2937315  45.2518815  34.8919444  59.4053957
  36.2963202  40.4710525  69.7516575  36.9834242  40.1572255  69.1637590
  36.1411331  41.3751890  69.4783827  41.0997924  35.3600722  74.1801599
  41.0156113  34.7526391  73.4452009  40.2780631  35.8509740  74.1811095
  48.1735208  48.7987886  73.3934767  48.1005380  49.6042857  73.9054071
  47.7312602  48.9979851  72.5682788  47.9624988  48.0359656  66.9037588
  47.1792510  48.5781336  66.9975813  48.6617733  48.5533635  67.3031830
  51.2721638  33.8454285  69.5471794  51.7690338  33.0924247  69.2272864
  50.5008620  33.8818602  68.9815003  59.1251396  39.5494651  71.1890085
  59.1141272  40.4319366  70.8184018  58.2568775  39.1966201  70.9944622
  50.6333892  48.6974720  75.5492926  51.3461864  49.3322184  75.4768827
  50.1423921  48.7938586  74.7332927  52.3551419  42.6025972  67.1210217
  51.4207698  42.7227435  66.9514922  52.5328087  41.6998439  66.8570227
  47.8556607  35.9871668  69.2743478  47.4854394  35.4342709  69.9624384
  48.3515699  35.3829802  68.7218479  55.7423970  38.4443292  67.6560251
  56.2084422  39.2771283  67.5820554  56.1931471  37.9788273  68.3605510
  45.6845805  46.4469163  76.3698496  46.3855265  47.0805646  76.5227891
  45.2140920  46.7883895  75.6094136  53.8100201  44.7887113  64.6546403
  54.0860045  44.6743708  65.5640278  52.9404700  44.3904598  64.6158577
  53.7140633  30.8123879  71.6951153  52.8003713  31.0428105  71.8633360
  54.1433734  30.8962323  72.5465185  53.4847091  39.0013771  74.1951047
  52.8318542  39.2489678  73.5403500  53.8627471  38.1877909  73.8613524
  50.4454265  49.0373464  68.2979217  50.6276660  48.2195120  68.7606969
  51.2687251  49.2541156  67.8604107  50.7796431  47.9641649  65.5594266
  51.3084197  47.4534103  64.9464428  51.0424650  47.6484179  66.4239799
  49.5334664  39.7433582  80.6817084  48.8575301  39.6427711  81.3519459
  50.3562298  39.5872795  81.1453081  41.2813524  45.9805518  73.3029599
  41.8666960  45.2349206  73.4357503  41.0838362  46.2909475  74.1866263
  44.1352179  49.0156766  68.3192041  43.4662554  49.5002893  67.8356082
  43.9965048  49.2625986  69.2335420  35.8731178  38.5511118  72.0234042
  35.9115278  38.0174709  72.8171160  35.3671471  38.0246324  71.4045019
  48.2757447  51.0500509  74.9174700  48.8275755  51.2132131  75.6823785
  48.6163641  51.6404947  74.2454725  43.2521941  33.3975659  75.5196585
  43.3163267  34.2590490  75.1073982  43.1889061  32.7849661  74.7868943
  42.7274213  35.4698791  79.1669619  43.3546252  35.0875869  79.7807143
  41.8702132  35.2512993  79.5325311  53.1268322  45.8761767  80.7723354
  53.6708226  46.4891725  80.2778309  52.5455166  46.4341345  81.2890367
  39.5039756  37.2775221  65.0987974  39.7993197  36.3685899  65.0455027
  38.6027792  37.2562960  64.7768976  51.4125835  48.9982485  71.9038382
  51.2876974  48.1972224  71.3949327  52.0704926  49.4928678  71.4152352
  43.0334003  35.3531217  71.0815522  42.3120589  35.9667185  70.9422996
  43.8227259  35.8888982  71.0032168  53.4760743  46.7991505  73.5317932
  52.5291079  46.6796856  73.4596259  53.8243516  45.9114003  73.6144194
  45.8360316  32.6885644  77.3556174  46.3594718  32.9347940  78.1182483
  45.6172650  33.5205678  76.9359311  41.2327597  34.9589318  65.2227299
  40.9040304  34.0786697  65.0402405  41.5866968  34.9036987  66.1103688
  50.4807176  46.5944221  69.7322284  50.3332139  45.6660928  69.9129854
  51.3060670  46.6164312  69.2479360  44.3469421  35.2462288  65.5902776
  44.6865493  35.7748209  64.8681385  44.7941541  35.5842694  66.3661343
  54.0841298  47.4172780  70.8187157  55.0087846  47.2115641  70.6811608
  53.9156601  47.1689181  71.7276499  47.0412861  33.6299339  75.0405845
  46.7009682  32.8307152  75.4426524  46.3351868  33.9301050  74.4682678
  47.6929333  30.7148651  73.4933168  48.5155403  30.2409129  73.3712058
  47.9367397  31.4939135  73.9931854  46.3337568  33.7436910  63.7896069
  47.0545930  34.1218162  63.2859786  45.7102872  34.4625786  63.8931047
  50.4768691  34.4482059  64.7254402  50.6932305  35.3306696  64.4243230
  49.9962758  34.0568272  63.9960044  45.2167912  37.4067772  71.3025146
  45.0712493  37.7208075  72.1949428  44.7393116  38.0252672  70.7496045
  47.0764295  34.3970320  71.3506036  47.0625864  33.5011413  71.0138334
  47.7936723  34.4040984  71.9844322  48.9290426  34.8307660  73.3959163
  48.6708203  35.7524731  73.3943494  48.3975466  34.4338095  74.0859627
  53.8736614  47.9358447  66.1749249  54.0473492  47.3704870  65.4223101
  54.3665506  48.7359342  65.9928738  39.6913574  39.9473116  74.2412807
  39.1467042  40.7232924  74.3733082  40.5692924  40.2943921  74.0831929
  46.4801191  33.2784700  66.6193606  46.6017102  32.3501346  66.8184493
  46.1903233  33.2923386  65.7071921  49.3492381  30.9639610  69.7560326
  49.3714078  31.0278944  68.8012305  49.7660440  30.1244119  69.9500832
  59.7276006  40.6994870  67.7939548  60.1707152  39.9502195  67.3958672
  58.8502516  40.6905006  67.4113280  54.8611787  47.2525212  63.2746147
  55.5562691  47.8731904  63.4933461  55.2034937  46.4020563  63.5498525
  40.4779596  39.0743012  77.1342964  39.7361332  39.2225648  77.7207595
  40.1572340  39.3351278  76.2709714  56.7603210  44.7024917  64.8033478
  57.2854534  45.0412190  64.0782798  56.6725562  43.7671932  64.6196612
  48.4223259  48.6158991  76.9323354  48.7310385  48.3708137  77.8046054
  49.2198741  48.8205629  76.4442224  48.4443871  50.7696900  69.1628731
  48.0048861  50.2773279  69.8561587  49.1951988  50.2269868  68.9220806
  40.9236210  46.9608441  69.1653359  41.7494230  46.6612213  68.7852002
  40.5730262  46.1916064  69.6143147  45.8917743  46.3134909  71.2351032
  45.2697752  45.6505614  70.9353260  46.5622610  46.3396041  70.5524680
  39.1244815  44.8794768  70.1242292  38.2876723  44.4516942  69.9426294
  39.0968460  45.0727211  71.0613084  45.9642270  34.7916697  80.8283538
  46.0130426  35.6678820  80.4461308  46.5064785  34.2494090  80.2555182
  56.4497116  45.3357821  80.1084676  55.6592660  45.3181960  79.5689175
  56.2130471  45.8746114  80.8633712  56.5694991  42.1850287  77.4217404
  56.6192996  42.0200294  78.3632927  56.4608914  41.3177546  77.0315285
  45.4531250  44.8638833  64.7109493  45.6019370  45.5474297  64.0576166
  46.2597693  44.8443923  65.2258949  53.8598753  38.1681215  78.7376711
  54.7608616  38.0287680  78.4460709  53.9346728  38.3335670  79.6774888
  48.1941559  35.5448070  77.5829897  47.3244868  35.8381636  77.3112486
  48.4301039  36.1288515  78.3037161  59.2708870  42.1700108  70.1861996
  60.1055762  42.6089912  70.3499556  59.4067999  41.6938762  69.3670242
  56.3200376  39.7279843  76.1339484  56.7954498  39.9207490  75.3258335
  55.3965942  39.7839029  75.8882867  43.2083883  40.8904010  65.7170562
  42.9629925  39.9866340  65.9150772  43.3779797  40.8921161  64.7750040
  50.8980593  31.7627687  75.0995318  51.4162536  32.4988714  74.7741806
  50.5435725  32.0691680  75.9342077  42.4779530  36.6232368  63.2156723
  41.7848775  36.6976723  62.5596759  42.2331282  35.8592712  63.7378240
  51.1493187  28.1827969  70.6196214  51.4294941  27.5151158  71.2456641
  51.9343794  28.3757065  70.1070878  48.9526655  47.3586963  62.1821240
  48.3800622  47.9777150  61.7291712  49.5259449  47.9086325  62.7161162
  55.0202045  36.6045603  74.3667789  55.9719468  36.7043701  74.3880013
  54.8505496  35.8123872  74.8765874  53.0416425  33.6901186  74.5527190
  52.4466357  33.9706199  73.8573679  52.7566121  34.1795087  75.3243931
  52.1723915  47.6424113  63.3129823  53.1054588  47.5769675  63.5162698
  52.0847128  48.4780380  62.8544355  54.8011932  46.9589984  60.2733770
  54.7225563  46.6249847  61.1669528  55.6221599  47.4511752  60.2725243
  57.4990123  39.8251723  73.4810089  57.4666443  38.8867724  73.6669773
  58.1090747  39.9035760  72.7475914  49.3373454  38.6947776  59.5237293
  50.2832559  38.5653984  59.5925711  48.9587699  37.9562438  60.0006721
  57.6484611  36.6162766  73.5268372  57.1323660  35.8321223  73.3398301
  58.5324560  36.2881483  73.6914892  55.3095338  30.3603782  69.4864185
  55.1120159  30.0518870  70.3707517  55.9195044  31.0865421  69.6162115
  63.3166673  40.8867730  72.6216126  64.0470061  40.6253018  73.1823829
  62.7073618  40.1496452  72.6618194  61.3981970  39.0275592  73.2190577
  60.6715133  38.8931557  72.6107068  60.9829257  39.3352421  74.0247295
  49.2212146  42.7465522  80.9837950  50.1415156  42.9244121  81.1777996
  49.1861729  41.8021567  80.8317649  47.5216371  36.6197752  59.4592178
  46.6147826  36.3230865  59.5354892  47.7992352  36.3227570  58.5926464
  38.4394311  37.9404116  69.9091225  38.1197096  37.0869424  69.6165599
  37.8927739  38.1552694  70.6649192  42.2174219  40.6566557  73.6260731
  42.4360229  41.5883665  73.6448765  42.6299993  40.2974531  74.4115535
  49.1378437  31.1634642  65.6136419  48.3279165  30.8181727  65.9891665
  49.8262854  30.8542186  66.2024031  51.0668985  30.2412689  67.2360716
  51.6200024  30.6608142  67.8950739  51.3039071  29.3148437  67.2783672
  47.0902084  36.2299762  83.0163480  46.9898811  37.1794119  82.9475571
  46.8723626  35.9018001  82.1439550  46.2915156  33.4784688  59.6004157
  47.1534320  33.8039586  59.8599975  46.4765500  32.6916183  59.0877223
  38.3082571  41.5607027  71.8784346  37.6146043  41.1460980  71.3654301
  39.0555562  41.6027564  71.2817765  54.4447792  32.3513214  66.7439380
  53.8646461  33.0098018  66.3617433  54.1783725  31.5290559  66.3326798
  52.8951358  31.7518272  68.9460701  53.3951137  31.8634806  68.1375019
  53.5386966  31.4479325  69.5861509  46.9533354  39.6596901  81.8328542
  46.4700436  40.4597261  82.0392431  47.0394293  39.6704846  80.8795986
  40.2219314  41.4925281  69.7550361  40.1990002  41.5912968  68.8032244
  40.5319950  42.3390432  70.0767527  42.8806692  43.5501436  73.8696975
  43.8349945  43.5185378  73.8026907  42.6819215  43.0892060  74.6847201
  43.4706074  42.1202552  76.4367773  44.2898963  42.6146631  76.4602610
  43.7442882  41.2034520  76.4085341  53.2272670  34.5113304  65.7995729
  52.3398525  34.7962955  65.5815923  53.6426659  34.3507068  64.9523005
  56.5787206  34.5359825  69.5150068  57.3547596  35.0256278  69.7874685
  55.8535340  34.9617880  69.9721937  59.0159765  35.2487445  70.5724008
  59.6104256  35.0083181  69.8617317  59.0886349  34.5294575  71.1997545
  41.2356921  49.0921056  70.8867173  41.1011388  48.3321456  70.3205171
  40.8188983  49.8161955  70.4195962  52.3715884  44.2757979  59.8943749
  53.0751734  44.4807982  60.5101404  51.6478532  44.8434741  60.1592832
  53.2013694  40.0267840  66.0146019  53.1448895  40.4836392  65.1753651
  53.7542036  39.2658525  65.8368861  57.0118500  35.8157572  66.8396138
  56.7555434  35.4154208  67.6704346  56.3871368  36.5301366  66.7146277
  61.3230838  38.5553645  69.3467430  60.7630396  38.6246835  70.1198992
  60.7174341  38.3794630  68.6266926  44.3926046  49.9890373  71.0985616
  44.2758431  50.9335805  70.9964306  43.5718493  49.6863934  71.4871415
  54.2802581  44.7140508  61.9442209  55.1148185  44.2821707  61.7619683
  54.1186924  44.5422522  62.8719103  53.9348473  41.2172622  63.3098548
  53.8797277  41.0516893  62.3686992  53.3094528  41.9248654  63.4660738
  38.7240988  36.4540686  77.1359970  39.3699852  35.9439640  77.6247195
  38.5158139  37.1909368  77.7103395  51.2494380  43.5221533  82.6352111
  52.1185540  43.6962186  82.2738746  50.7701132  44.3415950  82.5127840
  47.2444599  30.7180731  62.8883866  47.2323268  31.6622570  63.0452137
  48.1368020  30.5350876  62.5943328  45.4180561  50.6418634  74.3141544
  46.3207807  50.6742245  74.6308039  45.1917931  49.7119085  74.3287880
  47.1734163  49.3949621  70.9751623  46.2229794  49.3951483  70.8615995
  47.4766649  48.6482356  70.4587658  51.0596718  27.3123507  67.1429803
  50.2929114  26.7581994  67.2886485  51.4707423  27.3845376  68.0043955
  43.0638479  33.6008303  81.2334984  43.9269941  33.2445108  81.4438309
  42.4903890  33.2622198  81.9210389  55.5763378  57.0373064  67.9655801
  55.0128243  56.9463001  67.1972089  55.4615773  56.2172968  68.4458294
  55.0818564  57.7933169  63.6757400  55.8549440  57.2462156  63.5370276
  55.4343963  58.6577418  63.8871862  57.4184842  53.9525835  61.3075850
  57.6710362  53.4307356  60.5459313  56.4809401  53.7891980  61.4102534
  57.1381130  55.8553941  63.5100225  57.0217389  55.1798844  64.1781309
  57.2483390  55.3686315  62.6932378  59.1218158  50.3453988  62.2108263
  59.2892561  51.2134224  62.5778734  58.9315327  50.5081269  61.2869552
  55.3305973  55.2584763  69.9110798  54.4056469  55.1260977  70.1188489
  55.5790386  56.0378983  70.4080740  52.6914784  54.9018037  70.7454587
  52.8207165  55.1552516  71.6593998  52.0112235  55.4945745  70.4259242
  58.9589990  57.9933345  68.6798930  59.4228335  58.2721048  67.8903553
  58.6946788  57.0916789  68.4972021  56.3439237  52.7068254  79.8639705
  55.7137898  53.3884535  80.0975102  56.2375325  52.5951335  78.9192843
  51.6384210  52.3740050  70.7905629  50.8483264  52.6297578  70.3145740
  52.1295457  53.1888388  70.8957670  53.5898955  52.7384629  67.7489106
  52.7930118  52.8503323  68.2672601  53.3624547  53.0771281  66.8829996
  49.9221913  52.6270540  73.2220620  50.1729951  53.5117550  73.4878196
  50.4581461  52.4475142  72.4495712  55.6219980  47.0089020  82.2264956
  55.2286925  46.4555218  82.9012600  56.4386120  47.3199598  82.6171473
  52.5882038  58.4472878  66.1378526  53.1006558  59.2416128  66.2884090
  53.2404750  57.7499168  66.0712127  53.6829279  53.6103266  78.0963442
  53.5682794  52.7088523  78.3970541  52.8273797  53.8566963  77.7448259
  50.5530954  56.7761532  66.9138096  51.3906176  57.1858541  66.6971804
  50.7309222  55.8360974  66.8838290  57.8084530  46.9071387  71.0664909
  58.6737527  46.7114195  70.7070799  57.8762039  46.6781738  71.9934266
  55.4146849  49.1373595  68.4381276  55.9890601  48.9148776  67.7054469
  56.0017832  49.2062289  69.1909877  55.7416436  51.1678056  62.4577161
  54.9053749  51.5052742  62.7786436  55.6021206  51.0327035  61.5204298
  57.7169517  46.0114843  67.1656345  57.0633929  45.6963861  66.5412960
  57.6749991  45.3890584  67.8916168  50.5757126  54.1152247  67.5848830
  50.3781525  53.5221608  66.8599896  50.0203790  53.8104458  68.3024769
  55.9860284  50.1970769  73.0795037  56.6259663  50.0559528  72.3818000
  55.1537814  49.9105283  72.7033639  53.0703351  53.6416281  65.2689782
  52.1400939  53.5800737  65.4859744  53.1660823  53.1192234  64.4726423
  52.9888900  50.1671094  67.8568024  53.2495718  51.0816427  67.7477184
  53.8106073  49.6995537  68.0064636  54.4613826  51.5808851  75.0266848
  55.1336879  51.3726214  74.3779497  53.6343612  51.3830937  74.5872080
  60.8897079  59.4483824  70.2616704  60.5546912  59.4084594  71.1574354
  60.3901025  58.7828540  69.7887114  55.6154816  51.0125283  59.6575068
  54.7384283  50.8914084  59.2937315  56.0912570  50.2211361  59.4053957
  47.1356957  55.8002443  69.7516575  47.8227996  55.4864173  69.1637590
  46.9805085  56.7043807  69.4783827  51.9391679  50.6892639  74.1801599
  51.8549867  50.0818309  73.4452009  51.1174385  51.1801658  74.1811095
  52.1207278  61.3097436  73.3029599  52.7060715  60.5641124  73.4357503
  51.9232116  61.6201393  74.1866263  46.7124933  53.8803036  72.0234042
  46.7509032  53.3466627  72.8171160  46.2065226  53.3538242  71.4045019
  53.5667968  50.7990709  79.1669619  54.1940006  50.4167786  79.7807143
  52.7095886  50.5804911  79.5325311  50.3433510  52.6067138  65.0987974
  50.6386951  51.6977817  65.0455027  49.4421546  52.5854878  64.7768976
  53.8727757  50.6823135  71.0815522  53.1514343  51.2959103  70.9422996
  54.6621013  51.2180900  71.0032168  52.0721352  50.2881236  65.2227299
  51.7434058  49.4078615  65.0402405  52.4260723  50.2328905  66.1103688
  55.1863175  50.5754206  65.5902776  55.5259248  51.1040127  64.8681385
  55.6335296  50.9134612  66.3661343  57.1731322  49.0728827  63.7896069
  57.8939685  49.4510080  63.2859786  56.5496626  49.7917704  63.8931047
  56.0561666  52.7359689  71.3025146  55.9106247  53.0499993  72.1949428
  55.5786870  53.3544590  70.7496045  50.5307329  55.2765034  74.2412807
  49.9860797  56.0524842  74.3733082  51.4086678  55.6235838  74.0831929
  51.3173350  54.4034930  77.1342964  50.5755087  54.5517565  77.7207595
  50.9966095  54.6643196  76.2709714  49.9638569  60.2086685  70.1242292
  49.1270478  59.7808860  69.9426294  49.9362215  60.4019129  71.0613084
  56.8036025  50.1208615  80.8283538  56.8524180  50.9970738  80.4461308
  57.3458539  49.5786008  80.2555182  54.0477637  56.2195928  65.7170562
  53.8023679  55.3158258  65.9150772  54.2173552  56.2213079  64.7750040
  53.3173285  51.9524286  63.2156723  52.6242530  52.0268641  62.5596759
  53.0725037  51.1884629  63.7378240  61.9886941  43.5119887  70.6196214
  62.2688695  42.8443076  71.2456641  62.7737548  43.7048983  70.1070878
  65.6405686  62.2881901  60.2733770  65.5619318  61.9541765  61.1669528
  66.4615353  62.7803669  60.2725243  49.2788066  53.2696033  69.9091225
  48.9590850  52.4161342  69.6165599  48.7321494  53.4844612  70.6649192
  59.9772191  46.4926560  65.6136419  59.1672919  46.1473645  65.9891665
  60.6656608  46.1834103  66.2024031  57.9295839  51.5591680  83.0163480
  57.8292566  52.5086037  82.9475571  57.7117381  51.2309919  82.1439550
  57.1308910  48.8076605  59.6004157  57.9928074  49.1331504  59.8599975
  57.3159254  48.0208101  59.0877223  49.1476326  56.8898945  71.8784346
  48.4539797  56.4752898  71.3654301  49.8949317  56.9319481  71.2817765
  51.0613068  56.8217199  69.7550361  51.0383756  56.9204886  68.8032244
  51.3713705  57.6682349  70.0767527  49.5634743  51.7832604  77.1359970
  50.2093606  51.2731558  77.6247195  49.3551894  52.5201285  77.7103395
  58.0838353  46.0472648  62.8883866  58.0717023  46.9914488  63.0452137
  58.9761775  45.8642794  62.5943328  61.8990473  42.6415425  67.1429803
  61.1322868  42.0873912  67.2886485  62.3101177  42.7137294  68.0043955
  53.9032234  48.9300221  81.2334984  54.7663695  48.5737026  81.4438309
  53.3297644  48.5914116  81.9210389  78.2623415  72.5260885  64.5375103
  77.4852858  72.1872045  64.0930265  78.9414896  72.5313508  63.8630068
  75.4887710  75.4470948  64.6546403  75.7647554  75.3327543  65.5640278
  74.6192209  75.0488433  64.6158577  78.4390719  75.3608752  64.8033478
  78.9642043  75.6996025  64.0782798  78.3513071  74.4255768  64.6196612
  82.8350446  91.3627867  63.2770266  82.1838425  91.9481947  62.8904280
  83.6294808  91.8934062  63.3365303  79.0972351  84.6109670  61.3075850
  79.3497871  84.0891191  60.5459313  78.1596910  84.4475816  61.4102534
  78.8168639  86.5137776  63.5100225  78.7004897  85.8382680  64.1781309
  78.9270899  86.0270150  62.6932378  80.8005667  81.0037823  62.2108263
  80.9680070  81.8718059  62.5778734  80.6102836  81.1665105  61.2869552
  80.7794888  83.4595480  63.1954930  80.6594513  83.9052531  64.0340410
  80.0847477  83.8080798  62.6368468  86.4779954  83.9316954  64.0235264
  87.3897810  84.1644340  63.8482961  85.9689601  84.5153998  63.4610342
  88.9638769  89.8497210  68.7693209  88.2789807  90.2296111  68.2190242
  89.0482618  90.4592537  69.5025157  95.4241521  86.7167873  69.8895881
  94.6705230  86.1475271  69.7339886  95.5589062  86.6830537  70.8366516
  84.1282895  85.1020448  62.6021929  83.6129519  85.8725053  62.8410317
  83.8560204  84.4285584  63.2254991  89.1017170  87.8552803  64.5375103
  88.3246612  87.5163962  64.0930265  89.7808651  87.8605426  63.8630068
  83.9169199  82.9747540  64.4281710  83.6119334  83.2893689  65.2791854
  84.8699641  83.0528960  64.4709043  79.3957026  76.6698679  67.1656345
  78.7421438  76.3547696  66.5412960  79.3537500  76.0474419  67.8916168
  80.5068231  86.9517974  59.0809637  79.5995292  86.7207227  59.2800786
  81.0039263  86.1555593  59.2683619  83.4129814  84.5572028  66.6206673
  84.1601633  85.0693425  66.3113795  83.6821404  84.2356081  67.4811067
  85.3608671  92.5013655  68.3074613  85.6531645  93.0618712  67.5886979
  85.8707291  92.7942216  69.0627772  81.3832552  88.5939312  60.9421706
  80.9451982  87.8775171  60.4827343  82.1242993  88.8215427  60.3806797
  80.3242296  93.2794006  69.3968066  80.2818475  93.5054852  68.4676598
  81.2404995  93.0457381  69.5453868  89.5005667  86.8696509  66.9998025
  89.3623565  87.0598105  66.0719214  89.1441886  87.6315892  67.4566076
  85.5043780  87.4523694  60.5353764  84.8872950  86.7270522  60.4386816
  85.0360268  88.2133054  60.1920838  80.4806251  94.0235409  66.9037588
  79.6973773  94.5657089  66.9975813  81.1798997  94.5409388  67.3031830
  88.2605234  84.4319045  67.6560251  88.7265686  85.2647036  67.5820554
  88.7112734  83.9664026  68.3605510  86.3281465  90.7762866  64.6546403
  86.6041309  90.6619461  65.5640278  85.4585963  90.3780351  64.6158577
  82.9635529  95.0249217  68.2979217  83.1457923  94.2070873  68.7606969
  83.7868515  95.2416909  67.8604107  83.2977694  93.9517402  65.5594266
  83.8265461  93.4409857  64.9464428  83.5605914  93.6359932  66.4239799
  80.7938711  97.0376262  74.9174700  81.3457019  97.2007884  75.6823785
  81.1344904  97.6280700  74.2454725  86.6022562  93.4048533  70.8187157
  87.5269109  93.1991394  70.6811608  86.4337865  93.1564934  71.7276499
  82.9949954  80.4357812  64.7254402  83.2113568  81.3182449  64.4243230
  82.5144021  80.0444025  63.9960044  86.3917878  93.9234200  66.1749249
  86.5654755  93.3580623  65.4223101  86.8846769  94.7235095  65.9928738
  92.2457269  86.6870623  67.7939548  92.6888415  85.9377948  67.3958672
  91.3683779  86.6780759  67.4113280  87.3793050  93.2400965  63.2746147
  88.0743955  93.8607657  63.4933461  87.7216200  92.3896316  63.5498525
  89.2784473  90.6900670  64.8033478  89.8035798  91.0287943  64.0782798
  89.1906826  89.7547685  64.6196612  80.9625134  96.7572653  69.1628731
  80.5230124  96.2649032  69.8561587  81.7133251  96.2145621  68.9220806
  81.4707919  93.3462716  62.1821240  80.8981886  93.9652903  61.7291712
  82.0440712  93.8962078  62.7161162  84.6905179  93.6299866  63.3129823
  85.6235852  93.5645428  63.5162698  84.6028391  94.4656133  62.8544355
  87.3193195  92.9465737  60.2733770  87.2406827  92.6125600  61.1669528
  88.1402862  93.4387505  60.2725243  81.8554717  84.6823529  59.5237293
  82.8013822  84.5529737  59.5925711  81.4768962  83.9438191  60.0006721
  80.0397634  82.6073505  59.4592178  79.1329090  82.3106618  59.5354892
  80.3173615  82.3103323  58.5926464  81.6559700  77.1510395  65.6136419
  80.8460428  76.8057480  65.9891665  82.3444117  76.8417939  66.2024031
  86.9629055  78.3388967  66.7439380  86.3827725  78.9973771  66.3617433
  86.6964988  77.5166312  66.3326798  85.7453934  80.4989057  65.7995729
  84.8579789  80.7838708  65.5815923  86.1607923  80.3382821  64.9523005
  89.0968470  80.5235578  69.5150068  89.8728860  81.0132031  69.7874685
  88.3716604  80.9493633  69.9721937  84.8897147  90.2633732  59.8943749
  85.5932997  90.4683735  60.5101404  84.1659796  90.8310494  60.1592832
  85.7194957  86.0143593  66.0146019  85.6630159  86.4712145  65.1753651
  86.2723300  85.2534278  65.8368861  89.5299763  81.8033325  66.8396138
  89.2736697  81.4029961  67.6704346  88.9052631  82.5177119  66.7146277
  93.8412101  84.5429398  69.3467430  93.2811659  84.6122588  70.1198992
  93.2355604  84.3670383  68.6266926  86.7983844  90.7016261  61.9442209
  87.6329448  90.2697460  61.7619683  86.6368187  90.5298275  62.8719103
  86.4529737  87.2048375  63.3098548  86.3978540  87.0392646  62.3686992
  85.8275792  87.9124408  63.4660738  79.7625862  76.7056484  62.8883866
  79.7504532  77.6498324  63.0452137  80.6549284  76.5226629  62.5943328
  79.6915426  95.3825374  70.9751623  78.7411057  95.3827236  70.8615995
  79.9947912  94.6358109  70.4587658  95.4268119 101.2185912  72.0397385
  96.0646529 101.0992660  71.3360725  95.3088962 102.1666756  72.0985338
  92.2357826 101.1713341  71.9758910  91.8976337 101.0554405  71.0879445
  93.1047594 100.7704506  71.9559916  88.0944641 103.0248817  67.9655801
  87.5309507 102.9338754  67.1972089  87.9797037 102.2048721  68.4458294
  92.7177609 102.3248192  77.9345116  92.7066250 101.9300991  77.0625619
  92.8798248 101.5914265  78.5278887  85.6409073 104.5200009  70.8040021
  86.4330365 104.1790833  70.3886321  85.8805724 104.6294984  71.7242175
  93.6744200 106.6919785  63.2770266  93.0232180 107.2773865  62.8904280
  94.4688563 107.2225980  63.3365303  87.5999827 103.7808922  63.6757400
  88.3730703 103.2337909  63.5370276  87.9525226 104.6453171  63.8871862
  89.4384870 105.1085304  76.8824300  89.1474736 106.0130935  76.7670966
  90.0741854 105.1501832  77.5968369  90.3641077 102.4862153  73.4725659
  90.9604649 102.2618175  72.7582622  90.4216048 101.7446898  74.0751107
  89.9366105  99.9401588  61.3075850  90.1891626  99.4183109  60.5459313
  88.9990664  99.7767733  61.4102534  94.9809388  98.9437366  69.1150593
  95.7672477  98.5256789  68.7641010  95.2448092  99.8483458  69.2832242
  95.1519465 104.3810217  63.8139250  94.5165298 104.4544843  64.5260155
  94.8216872 104.9703815  63.1358329 100.3817815  98.8812599  70.0183572
 101.1142987  98.3111816  70.2521401  99.6257171  98.4934200  70.4590077
  89.6562394 101.8429694  63.5100225  89.5398652 101.1674597  64.1781309
  89.7664654 101.3562068  62.6932378  91.9993935 101.3039841  67.2146914
  91.6352142 100.7770462  67.9259836  92.8561051 100.9138310  67.0413400
  91.6399422  96.3329741  62.2108263  91.8073824  97.2009977  62.5778734
  91.4496591  96.4957022  61.2869552  94.3974755 104.7946720  73.8774093
  94.0975478 105.6971758  73.7689900  94.0525814 104.5278903  74.7295246
  87.8487236 101.2460516  69.9110798  86.9237733 101.1136731  70.1188489
  88.0971650 102.0254736  70.4080740  97.7971899  97.3129260  71.5571531
  96.8888776  97.2444668  71.2630292  97.7459495  97.7901205  72.3853356
  91.6188643  98.7887398  63.1954930  91.4988268  99.2344449  64.0340410
  90.9241231  99.1372716  62.6368468  85.2096047 100.8893790  70.7454587
  85.3388429 101.1428269  71.6593998  84.5293499 101.4821498  70.4259242
  89.3795535 111.5591040  66.8445061  89.3019564 112.5098865  66.9233542
  88.7757178 111.2136912  67.5019987  91.8712765  98.7318905  79.5006428
  91.0946099  99.2912825  79.4909292  92.5103328  99.2175688  80.0221298
  99.6633545  95.5145698  73.3349404  99.0207925  95.8078231  72.6889199
  99.1588474  95.3998618  74.1402601  97.3173709  99.2608871  64.0235264
  98.2291565  99.4936258  63.8482961  96.8083356  99.8445916  63.4610342
  90.1259137 101.5404359  79.0624395  90.8673821 102.0789403  78.7859218
  89.4196122 102.1670647  79.2195947  95.6014476 103.6833499  77.6596556
  96.0097833 103.2415910  76.9151189  94.8791738 103.1086127  77.9130749
  91.9545547  98.6206106  75.0330113  92.8006742  99.0445519  75.1764762
  91.8944184  97.9639730  75.7268676  95.9243291 104.2434690  71.4148845
  95.2952154 104.4080404  70.7124913  95.5368953 104.6576299  72.1859809
  99.8032523 105.1789128  68.7693209  99.1183561 105.5588029  68.2190242
  99.8876372 105.7884454  69.5025157  97.0583455 102.8249087  75.3688552
  97.2700350 103.4680847  74.6922934  97.0113203 101.9911403  74.9010483
  94.6609684  95.4366907  72.2725125  93.7994163  95.7348161  72.5641862
  94.6872118  95.6537306  71.3406157  91.4771253 103.9809098  68.6798930
  91.9409599 104.2596801  67.8903553  91.2128051 103.0792542  68.4972021
  88.3695334 103.5280579  71.6178694  88.9396691 103.9567848  70.9796178
  88.9603446 103.2463164  72.3162879  90.4140139 100.1032250  65.4888495
  91.1164182 100.5553294  65.9562422  90.0820768  99.4616069  66.1168389
  84.1565473  98.3615803  70.7905629  83.3664527  98.6173331  70.3145740
  84.6476720  99.1764141  70.8957670  98.1729283 105.7021042  73.5410910
  98.9946726 105.3001229  73.2593591  98.1691685 105.5989276  74.4927026
  86.1080218  98.7260382  67.7489106  85.3111382  98.8379076  68.2672601
  85.8805811  99.0647034  66.8829996  91.9385886 105.2505085  75.6971620
  92.0030319 105.7125493  76.5329792  91.2296810 104.6202450  75.8253930
  82.4403176  98.6146293  73.2220620  82.6911214  99.4993303  73.4878196
  82.9762724  98.4350895  72.4495712 106.2635276 102.0459791  69.8895881
 105.5098984 101.4767189  69.7339886 106.3982817 102.0122455  70.8366516
  91.6533904 106.9173193  65.5650601  91.5179578 107.7624729  65.9935448
  92.1943716 107.1192471  64.8016534  85.1063301 104.4348631  66.1378526
  85.6187822 105.2291881  66.2884090  85.7586014 103.7374921  66.0712127
  86.9158186 107.5514387  68.2201279  87.0924814 108.4732352  68.0322263
  87.7115019 107.2372806  68.6495659  93.2802380 107.5396759  79.6950943
  92.8366234 106.7533138  79.3771847  93.9419594 107.7275910  79.0294834
  88.0389501 109.0692561  74.2211621  88.5896926 108.9409624  73.4488615
  87.2000977 109.3687450  73.8706514  95.3783618 107.8199559  77.7232344
  95.3602093 108.6408440  77.2312613  96.3003538 107.6953635  77.9482485
  91.8356672 105.3343689  78.5655852  92.3685009 104.5731977  78.3355160
  91.3070753 105.0417341  79.3080007  94.9676650 100.4312366  62.6021929
  94.4523273 101.2016970  62.8410317  94.6953958  99.7577502  63.2254991
  92.5523761  95.2762067  67.6607168  91.6965357  94.8868917  67.4812806
  92.9650713  95.3554027  66.8006953  94.0822908  92.8108410  72.0598727
  93.5787703  92.7738545  71.2466533  94.3753515  93.7201153  72.1195384
  90.3265794  92.8947140  71.0664909  91.1918790  92.6989948  70.7070799
  90.3943302  92.6657491  71.9934266  99.9410924 103.1844721  64.5375103
  99.1640367 102.8455880  64.0930265 100.6202405 103.1897344  63.8630068
  94.7562953  98.3039458  64.4281710  94.4513089  98.6185607  65.2791854
  95.7093395  98.3820878  64.4709043  93.2009385 104.4629681  66.0774664
  92.6730747 103.7282441  65.7647902  92.6996888 105.2404358  65.8314633
  98.1802231 102.6578702  71.1941711  97.5225905 103.3477963  71.2821839
  98.9842630 103.0475134  71.5375697  87.9328113  95.1249348  68.4381276
  88.5071865  94.9024529  67.7054469  88.5199095  95.1938042  69.1909877
  96.9907690 101.0123074  69.2445652  97.5039572 101.6453066  69.7467362
  97.6408914 100.4124270  68.8789012  88.2597700  97.1553809  62.4577161
  87.4235012  97.4928495  62.7786436  88.1202469  97.0202788  61.5204298
  90.2350780  91.9990596  67.1656345  89.5815193  91.6839614  66.5412960
  90.1931254  91.3766337  67.8916168  91.3461985 102.2809892  59.0809637
  90.4389047 102.0499145  59.2800786  91.8433017 101.4847511  59.2683619
  94.2530064 110.9907399  62.0006324  93.5791763 111.2939095  62.6091281
  94.6395886 111.7936479  61.6511781  93.4688521  98.4872530  71.4903993
  92.5511082  98.7087477  71.3325681  93.8848664  98.5618840  70.6315700
  94.2523568  99.8863946  66.6206673  94.9995387 100.3985343  66.3113795
  94.5215158  99.5647998  67.4811067  92.5250219 102.3822486  63.6033628
  91.6161438 102.0981519  63.7006097  92.5545302 102.8021565  62.7436934
  97.7569486 105.9929076  67.3724795  97.3031813 105.1519986  67.4289986
  97.1263453 106.6290474  67.7099575  96.7002406  96.9221062  68.6025463
  95.9625162  96.4098448  68.9335705  96.9529179  96.4821444  67.7908739
  96.2002425 107.8305573  68.3074613  96.4925400 108.3910630  67.5886979
  96.7101046 108.1234134  69.0627772  96.8014033  89.6997314  69.1967232
  97.1072910  88.8394677  68.9093147  97.5266638  90.2914934  68.9966226
  91.0735113  99.9951107  69.7043423  91.1283722  99.0424943  69.6285899
  90.2626315 100.1510546  70.1884721  92.2226306 103.9231230  60.9421706
  91.7845736 103.2067089  60.4827343  92.9636747 104.1507345  60.3806797
  89.0127473  98.6128167  67.4633802  88.1995338  98.9122337  67.8698994
  89.5086467  98.2183856  68.1808284  91.1636050 108.6085924  69.3968066
  91.1212229 108.8346770  68.4676598  92.0798749 108.3749298  69.5453868
  94.6101684  99.0769991  76.2948696  94.9651072  99.3041464  77.1543161
  95.2573815  99.4088368  75.6725951 100.3399421 102.1988427  66.9998025
 100.2017320 102.3890023  66.0719214  99.9835640 102.9607810  67.4566076
  88.5041547  96.1846522  73.0795037  89.1440927  96.0435281  72.3818000
  87.6719078  95.8981036  72.7033639 100.3668801 104.2664954  72.0109296
 100.8005307 104.1740243  72.8592350 101.0800382 104.2422455  71.3729312
  89.2801851 105.4848953  69.1930029  90.0742450 104.9899273  68.9912604
  88.5693544 104.9566816  68.8297735  94.0996696 107.8667048  73.5442397
  94.1533718 108.4357985  74.3120113  93.2311477 108.0368933  73.1796434
  85.5070164  96.1546847  67.8568024  85.7676981  97.0692181  67.7477184
  86.3287336  95.6871290  68.0064636  86.9795089  97.5684604  75.0266848
  87.6518143  97.3601967  74.3779497  86.1524876  97.3706690  74.5872080
 101.2284350 104.3088655  74.5442182 101.4220240 105.2134465  74.7901457
 101.1284969 103.8496074  75.3780767  96.2899459 104.4595398  80.1183062
  96.1384965 104.2305949  79.2013146  96.2804139 105.4165999  80.1314407
  93.0584795 102.0327310  75.1029329  93.9876855 102.1838470  74.9298296
  92.6375825 102.1211331  74.2477975  91.8573127 106.0577975  72.8727866
  91.7184213 105.6896759  73.7453804  91.0687723 106.5725614  72.7011824
  92.4521279 111.1587071  64.2153403  92.6273035 110.6875114  65.0299025
  91.7654067 111.7852837  64.4434664  93.4078342 105.4359577  70.2616704
  93.0728175 105.3960347  71.1574354  92.9082288 104.7704293  69.7887114
  87.3822586 100.8427207  75.7869285  87.2442384 100.1107446  76.3880824
  88.2927510 100.7536108  75.5053473  96.3437534 102.7815612  60.5353764
  95.7266705 102.0562440  60.4386816  95.8754022 103.5424972  60.1920838
  90.0104887 100.5547167  75.2752965  90.7204506  99.9140359  75.2339583
  89.9674195 100.8060062  76.1979146  97.9991666 107.4914520  78.1959544
  97.9404212 106.8073740  77.5290127  98.4011184 108.2333510  77.7440170
  88.7233821  97.5412385  77.0948604  88.1871178  97.0903123  77.7470201
  88.1350529  97.6758293  76.3519069  87.0182364 114.3076434  70.9893263
  87.2578963 114.9394958  71.6672282  86.1751561 113.9564474  71.2758622
  88.1336080  97.0001036  59.6575068  87.2565546  96.8789837  59.2937315
  88.6093833  96.2087114  59.4053957  98.0009073 105.4554104  76.4273524
  97.1135852 105.1180026  76.5499923  98.5707624 104.7237135  76.6642289
  91.5310226 110.1155556  73.3934767  91.4580398 110.9210528  73.9054071
  91.0887619 110.3147522  72.5682788  91.3200006 109.3527326  66.9037588
  90.5367528 109.8949007  66.9975813  92.0192751 109.8701306  67.3031830
  94.6296656  95.1621956  69.5471794  95.1265356  94.4091918  69.2272864
  93.8583638  95.1986272  68.9815003 102.4826413 100.8662321  71.1890085
 102.4716290 101.7487037  70.8184018 101.6143793 100.5133872  70.9944622
  93.9908910 110.0142390  75.5492926  94.7036882 110.6489855  75.4768827
  93.4998939 110.1106256  74.7332927  95.7126437 103.9193643  67.1210217
  94.7782716 104.0395106  66.9514922  95.8903105 103.0166110  66.8570227
  91.2131625  97.3039339  69.2743478  90.8429412  96.7510379  69.9624384
  91.7090717  96.6997472  68.7218479  99.0998988  99.7610962  67.6560251
  99.5659440 100.5938954  67.5820554  99.5506489  99.2955944  68.3605510
  89.0420823 107.7636834  76.3698496  89.7430283 108.3973317  76.5227891
  88.5715938 108.1051565  75.6094136  97.1675219 106.1054784  64.6546403
  97.4435063 105.9911378  65.5640278  96.2979718 105.7072268  64.6158577
  97.0715651  92.1291549  71.6951153  96.1578731  92.3595776  71.8633360
  97.5008752  92.2129993  72.5465185  96.8422109 100.3181441  74.1951047
  96.1893560 100.5657349  73.5403500  97.2202489  99.5045579  73.8613524
  93.8029283 110.3541134  68.2979217  93.9851678 109.5362790  68.7606969
  94.6262269 110.5708827  67.8604107  94.1371449 109.2809320  65.5594266
  94.6659215 108.7701774  64.9464428  94.3999668 108.9651850  66.4239799
  92.8909682 101.0601252  80.6817084  92.2150319 100.9595382  81.3519459
  93.7137316 100.9040466  81.1453081  84.6388541 107.2973189  73.3029599
  85.2241978 106.5516877  73.4357503  84.4413380 107.6077146  74.1866263
  87.4927197 110.3324436  68.3192041  86.8237572 110.8170564  67.8356082
  87.3540066 110.5793657  69.2335420  91.6332465 112.3668180  74.9174700
  92.1850773 112.5299801  75.6823785  91.9738659 112.9572618  74.2454725
  96.4843340 107.1929437  80.7723354  97.0283244 107.8059396  80.2778309
  95.9030184 107.7509016  81.2890367  94.7700853 110.3150155  71.9038382
  94.6451992 109.5139895  71.3949327  95.4279944 110.8096349  71.4152352
  86.3909021  96.6698888  71.0815522  85.6695607  97.2834856  70.9422996
  87.1802277  97.2056653  71.0032168  96.8335761 108.1159175  73.5317932
  95.8866096 107.9964527  73.4596259  97.1818534 107.2281673  73.6144194
  93.8382194 107.9111892  69.7322284  93.6907157 106.9828599  69.9129854
  94.6635688 107.9331982  69.2479360  87.7044439  96.5629959  65.5902776
  88.0440511  97.0915880  64.8681385  88.1516559  96.9010365  66.3661343
  97.4416316 108.7340450  70.8187157  98.3662864 108.5283312  70.6811608
  97.2731619 108.4856852  71.7276499  89.6912586  95.0604580  63.7896069
  90.4120948  95.4385833  63.2859786  89.0677890  95.7793457  63.8931047
  93.8343709  95.7649729  64.7254402  94.0507323  96.6474367  64.4243230
  93.3537776  95.3735943  63.9960044  88.5742930  98.7235443  71.3025146
  88.4287511  99.0375746  72.1949428  88.0968134  99.3420343  70.7496045
  90.4339313  95.7137990  71.3506036  90.4200882  94.8179084  71.0138334
  91.1511741  95.7208654  71.9844322  92.2865444  96.1475331  73.3959163
  92.0283221  97.0692401  73.3943494  91.7550484  95.7505765  74.0859627
  97.2311632 109.2526118  66.1749249  97.4048510 108.6872540  65.4223101
  97.7240524 110.0527013  65.9928738  83.0488592 101.2640787  74.2412807
  82.5042060 102.0400595  74.3733082  83.9267942 101.6111591  74.0831929
  89.8376209  94.5952371  66.6193606  89.9592120  93.6669017  66.8184493
  89.5478251  94.6091057  65.7071921  92.7067399  92.2807281  69.7560326
  92.7289096  92.3446614  68.8012305  93.1235458  91.4411790  69.9500832
 103.0851023 102.0162541  67.7939548 103.5282169 101.2669866  67.3958672
 102.2077534 102.0072677  67.4113280  98.2186805 108.5692882  63.2746147
  98.9137709 109.1899575  63.4933461  98.5609955 107.7188233  63.5498525
  83.8354614 100.3910683  77.1342964  83.0936350 100.5393319  77.7207595
  83.5147358 100.6518949  76.2709714 100.1178228 106.0192588  64.8033478
 100.6429552 106.3579861  64.0782798 100.0300580 105.0839603  64.6196612
  91.7798277 109.9326661  76.9323354  92.0885403 109.6875808  77.8046054
  92.5773759 110.1373300  76.4442224  91.8018889 112.0864571  69.1628731
  91.3623879 111.5940950  69.8561587  92.5527006 111.5437539  68.9220806
  84.2811228 108.2776112  69.1653359  85.1069248 107.9779884  68.7852002
  83.9305280 107.5083734  69.6143147  89.2492761 107.6302580  71.2351032
  88.6272770 106.9673285  70.9353260  89.9197628 107.6563712  70.5524680
  82.4819833 106.1962438  70.1242292  81.6451741 105.7684613  69.9426294
  82.4543478 106.3894882  71.0613084  99.8072134 106.6525491  80.1084676
  99.0167678 106.6349630  79.5689175  99.5705489 107.1913785  80.8633712
  99.9270009 103.5017958  77.4217404  99.9768014 103.3367965  78.3632927
  99.8183932 102.6345217  77.0315285  88.8106268 106.1806503  64.7109493
  88.9594388 106.8641968  64.0576166  89.6172711 106.1611594  65.2258949
  97.2173771  99.4848886  78.7376711  98.1183634  99.3455351  78.4460709
  97.2921746  99.6503341  79.6774888 101.4288206 105.9214899  77.6659426
 101.1373014 106.2844880  78.5022887 100.8160337 105.2081908  77.4872758
 102.6283888 103.4867779  70.1861996 103.4630780 103.9257583  70.3499556
 102.7643017 103.0106432  69.3670242  99.6775394 101.0447514  76.1339484
 100.1529516 101.2375160  75.3258335  98.7540959 101.1006700  75.8882867
  86.5658901 102.2071681  65.7170562  86.3204943 101.3034011  65.9150772
  86.7354815 102.2088832  64.7750040  85.8354548  97.9400039  63.2156723
  85.1423793  98.0144394  62.5596759  85.5906300  97.1760382  63.7378240
  94.5068205  89.4995640  70.6196214  94.7869959  88.8318829  71.2456641
  95.2918812  89.6924736  70.1070878  92.3101673 108.6754634  62.1821240
  91.7375640 109.2944821  61.7291712  92.8834467 109.2253996  62.7161162
  98.3777063  97.9213274  74.3667789  99.3294486  98.0211372  74.3880013
  98.2080514  97.1291543  74.8765874  96.3991443  95.0068857  74.5527190
  95.8041375  95.2873870  73.8573679  96.1141139  95.4962758  75.3243931
  95.5298933 108.9591784  63.3129823  96.4629606 108.8937346  63.5162698
  95.4422146 109.7948051  62.8544355  98.1586950 108.2757654  60.2733770
  98.0800581 107.9417518  61.1669528  98.9796616 108.7679422  60.2725243
 100.8565141 101.1419394  73.4810089 100.8241461 100.2035394  73.6669773
 101.4665765 101.2203430  72.7475914  92.6948472 100.0115447  59.5237293
  93.6407576  99.8821655  59.5925711  92.3162717  99.2730109  60.0006721
 101.0059629  97.9330437  73.5268372 100.4898678  97.1488894  73.3398301
 101.8899578  97.6049154  73.6914892  98.6670356  91.6771453  69.4864185
  98.4695177  91.3686541  70.3707517  99.2770062  92.4033092  69.6162115
 106.6741691 102.2035401  72.6216126 107.4045079 101.9420689  73.1823829
 106.0648636 101.4664122  72.6618194 104.7556988 100.3443263  73.2190577
 104.0290151 100.2099228  72.6107068 104.3404275 100.6520092  74.0247295
  92.5787164 104.0633193  80.9837950  93.4990174 104.2411792  81.1777996
  92.5436747 103.1189238  80.8317649  90.8791389  97.9365423  59.4592178
  89.9722844  97.6398536  59.5354892  91.1567370  97.6395241  58.5926464
  85.5749237 101.9734227  73.6260731  85.7935247 102.9051335  73.6448765
  85.9875011 101.6142202  74.4115535  92.4953455  92.4802313  65.6136419
  91.6854183  92.1349398  65.9891665  93.1837872  92.1709856  66.2024031
  94.4244003  91.5580360  67.2360716  94.9775042  91.9775813  67.8950739
  94.6614089  90.6316108  67.2783672  89.6490174  94.7952358  59.6004157
  90.5109338  95.1207257  59.8599975  89.8340518  94.0083854  59.0877223
  97.8022810  93.6680885  66.7439380  97.2221479  94.3265689  66.3617433
  97.5358743  92.8458229  66.3326798  96.2526376  93.0685942  68.9460701
  96.7526155  93.1802477  68.1375019  96.8961984  92.7646995  69.5861509
  83.5794332 102.8092952  69.7550361  83.5565020 102.9080639  68.8032244
  83.8894968 103.6558103  70.0767527  86.2381710 104.8669107  73.8696975
  87.1924963 104.8353049  73.8026907  86.0394233 104.4059730  74.6847201
  86.8281092 103.4370223  76.4367773  87.6473981 103.9314301  76.4602610
  87.1017900 102.5202191  76.4085341  96.5847688  95.8280975  65.7995729
  95.6973543  96.1130626  65.5815923  97.0001677  95.6674738  64.9523005
  99.9362224  95.8527496  69.5150068 100.7122614  96.3423949  69.7874685
  99.2110358  96.2785550  69.9721937 102.3734783  96.5655115  70.5724008
 102.9679274  96.3250851  69.8617317 102.4461366  95.8462246  71.1997545
  84.5931938 110.4088726  70.8867173  84.4586406 109.6489127  70.3205171
  84.1764001 111.1329626  70.4195962  95.7290901 105.5925650  59.8943749
  96.4326752 105.7975652  60.5101404  95.0053550 106.1602412  60.1592832
  96.5588712 101.3435511  66.0146019  96.5023913 101.8004062  65.1753651
  97.1117054 100.5826196  65.8368861 100.3693518  97.1325243  66.8396138
 100.1130452  96.7321879  67.6704346  99.7446386  97.8469037  66.7146277
 104.6805856  99.8721316  69.3467430 104.1205413  99.9414505  70.1198992
 104.0749359  99.6962301  68.6266926  87.7501064 111.3058043  71.0985616
  87.6333448 112.2503476  70.9964306  86.9293511 111.0031605  71.4871415
  97.6377599 106.0308179  61.9442209  98.4723203 105.5989377  61.7619683
  97.4761942 105.8590193  62.8719103  97.2923491 102.5340292  63.3098548
  97.2372295 102.3684564  62.3686992  96.6669546 103.2416325  63.4660738
  94.6069398 104.8389204  82.6352111  95.4760558 105.0129856  82.2738746
  94.1276150 105.6583621  82.5127840  90.6019617  92.0348401  62.8883866
  90.5898286  92.9790241  63.0452137  91.4943038  91.8518547  62.5943328
  88.7755578 111.9586305  74.3141544  89.6782825 111.9909915  74.6308039
  88.5492949 111.0286756  74.3287880  90.5309180 110.7117292  70.9751623
  89.5804811 110.7119153  70.8615995  90.8341667 109.9650026  70.4587658
  94.4171736  88.6291178  67.1429803  93.6504132  88.0749665  67.2886485
  94.8282441  88.7013047  68.0043955 106.2661874 116.5477830  72.0397385
 106.9040284 116.4284577  71.3360725 106.1482717 117.4958674  72.0985338
 103.0751580 116.5005258  71.9758910 102.7370092 116.3846323  71.0879445
 103.9441348 116.0996423  71.9559916  98.9338396 118.3540735  67.9655801
  98.3703261 118.2630672  67.1972089  98.8190791 117.5340639  68.4458294
 103.5571363 117.6540110  77.9345116 103.5460004 117.2592908  77.0625619
 103.7192003 116.9206183  78.5278887  96.4802828 119.8491926  70.8040021
  97.2724120 119.5082751  70.3886321  96.7199478 119.9586901  71.7242175
 104.5137955 122.0211702  63.2770266 103.8625934 122.6065783  62.8904280
 105.3082317 122.5517897  63.3365303  98.4393582 119.1100839  63.6757400
  99.2124458 118.5629827  63.5370276  98.7918981 119.9745089  63.8871862
 100.2778624 120.4377222  76.8824300  99.9868490 121.3422853  76.7670966
 100.9135609 120.4793749  77.5968369 101.2034831 117.8154070  73.4725659
 101.7998403 117.5910093  72.7582622 101.2609803 117.0738816  74.0751107
 100.7759860 115.2693506  61.3075850 101.0285380 114.7475027  60.5459313
  99.8384419 115.1059651  61.4102534 105.8203142 114.2729284  69.1150593
 106.6066232 113.8548707  68.7641010 106.0841847 115.1775376  69.2832242
 105.9913220 119.7102134  63.8139250 105.3559053 119.7836761  64.5260155
 105.6610626 120.2995733  63.1358329 111.2211570 114.2104517  70.0183572
 111.9536742 113.6403734  70.2521401 110.4650925 113.8226118  70.4590077
 100.4956148 117.1721612  63.5100225 100.3792406 116.4966515  64.1781309
 100.6058408 116.6853985  62.6932378 102.8387689 116.6331759  67.2146914
 102.4745897 116.1062380  67.9259836 103.6954805 116.2430228  67.0413400
 108.7436990 107.9226091  74.4778181 108.4120315 108.7921502  74.2539395
 108.1482603 107.6062375  75.1572211 102.4793176 111.6621658  62.2108263
 102.6467579 112.5301895  62.5778734 102.2890345 111.8248940  61.2869552
 105.2368509 120.1238637  73.8774093 104.9369233 121.0263676  73.7689900
 104.8919569 119.8570820  74.7295246  98.6880991 116.5752434  69.9110798
  97.7631487 116.4428648  70.1188489  98.9365404 117.3546653  70.4080740
 108.6365653 112.6421177  71.5571531 107.7282531 112.5736586  71.2630292
 108.5853249 113.1193122  72.3853356 102.4582397 114.1179316  63.1954930
 102.3382022 114.5636367  64.0340410 101.7634986 114.4664634  62.6368468
  96.0489802 116.2185708  70.7454587  96.1782183 116.4720187  71.6593998
  95.3687253 116.8113416  70.4259242 100.2189289 126.8882958  66.8445061
 100.1413319 127.8390783  66.9233542  99.6150933 126.5428830  67.5019987
 102.7106519 114.0610823  79.5006428 101.9339853 114.6204743  79.4909292
 103.3497082 114.5467606  80.0221298 110.5027300 110.8437616  73.3349404
 109.8601680 111.1370149  72.6889199 109.9982228 110.7290536  74.1402601
 108.1567463 114.5900789  64.0235264 109.0685319 114.8228176  63.8482961
 107.6477110 115.1737833  63.4610342 100.9652891 116.8696276  79.0624395
 101.7067576 117.4081320  78.7859218 100.2589877 117.4962565  79.2195947
 106.4408231 119.0125417  77.6596556 106.8491587 118.5707827  76.9151189
 105.7185492 118.4378044  77.9130749 102.7939301 113.9498024  75.0330113
 103.6400496 114.3737437  75.1764762 102.7337939 113.2931648  75.7268676
 106.7637046 119.5726607  71.4148845 106.1345908 119.7372322  70.7124913
 106.3762708 119.9868217  72.1859809 110.6426278 120.5081045  68.7693209
 109.9577316 120.8879947  68.2190242 110.7270127 121.1176372  69.5025157
 105.9438746 111.6102392  76.6911287 105.6999678 112.3644452  76.1545563
 106.2198677 111.9887740  77.5258534 107.8977209 118.1541004  75.3688552
 108.1094104 118.7972764  74.6922934 107.8506957 117.3203321  74.9010483
 105.5003438 110.7658825  72.2725125 104.6387917 111.0640079  72.5641862
 105.5265873 110.9829224  71.3406157 102.3165008 119.3101016  68.6798930
 102.7803353 119.5888719  67.8903553 102.0521806 118.4084460  68.4972021
  99.2089089 118.8572497  71.6178694  99.7790446 119.2859765  70.9796178
  99.7997200 118.5755082  72.3162879 101.2533894 115.4324168  65.4888495
 101.9557937 115.8845212  65.9562422 100.9214522 114.7907987  66.1168389
  99.7014255 114.0235925  79.8639705  99.0712916 114.7052205  80.0975102
  99.5950343 113.9119006  78.9192843  94.9959228 113.6907721  70.7905629
  94.2058282 113.9465249  70.3145740  95.4870475 114.5056058  70.8957670
 109.0123037 121.0312960  73.5410910 109.8340481 120.6293147  73.2593591
 109.0085440 120.9281194  74.4927026  96.9473973 114.0552300  67.7489106
  96.1505136 114.1670994  68.2672601  96.7199565 114.3938952  66.8829996
 102.7779641 120.5797003  75.6971620 102.8424073 121.0417410  76.5329792
 102.0690564 119.9494368  75.8253930  93.2796931 113.9438211  73.2220620
  93.5304969 114.8285221  73.4878196  93.8156479 113.7642813  72.4495712
 117.1029030 117.3751708  69.8895881 116.3492739 116.8059106  69.7339886
 117.2376571 117.3414373  70.8366516 102.4927658 122.2465111  65.5650601
 102.3573333 123.0916646  65.9935448 103.0337471 122.4484388  64.8016534
  98.9794998 108.3256690  82.2264956  98.5861943 107.7722889  82.9012600
  99.7961138 108.6367269  82.6171473  95.9457056 119.7640549  66.1378526
  96.4581576 120.5583799  66.2884090  96.5979768 119.0666839  66.0712127
  97.7551940 122.8806305  68.2201279  97.9318569 123.8024270  68.0322263
  98.5508774 122.5664724  68.6495659 101.8962959 109.7414569  79.8185212
 102.6372672 110.3421723  79.7389675 102.1280882 108.9992207  79.2603255
  97.0404297 114.9270937  78.0963442  96.9257812 114.0256194  78.3970541
  96.1848815 115.1734634  77.7448259 104.1196135 122.8688677  79.6950943
 103.6759989 122.0825056  79.3771847 104.7813348 123.0567828  79.0294834
  98.8783256 124.3984479  74.2211621  99.4290681 124.2701542  73.4488615
  98.0394732 124.6979368  73.8706514 106.2177373 123.1491477  77.7232344
 106.1995848 123.9700358  77.2312613 107.1397293 123.0245552  77.9482485
 102.6750427 120.6635606  78.5655852 103.2078764 119.9023895  78.3355160
 102.1464508 120.3709258  79.3080007 105.8420122 105.7695672  74.0949494
 105.4984391 106.6597314  74.0188605 106.2099084 105.5797330  73.2319079
  93.9105972 118.0929203  66.9138096  94.7481194 118.5026211  66.6971804
  94.0884240 117.1528645  66.8838290 105.8070404 115.7604284  62.6021929
 105.2917028 116.5308888  62.8410317 105.5347713 115.0869420  63.2254991
 103.3917516 110.6053984  67.6607168 102.5359112 110.2160835  67.4812806
 103.8044467 110.6845945  66.8006953 104.9216662 108.1400328  72.0598727
 104.4181458 108.1030463  71.2466533 105.2147269 109.0493070  72.1195384
 101.1659548 108.2239057  71.0664909 102.0312545 108.0281866  70.7070799
 101.2337057 107.9949409  71.9934266 110.7804679 118.5136638  64.5375103
 110.0034121 118.1747798  64.0930265 111.4596160 118.5189261  63.8630068
 105.5956708 113.6331376  64.4281710 105.2906843 113.9477525  65.2791854
 106.5487150 113.7112796  64.4709043 104.0403139 119.7921599  66.0774664
 103.5124501 119.0574359  65.7647902 103.5390642 120.5696275  65.8314633
 109.0195986 117.9870619  71.1941711 108.3619660 118.6769881  71.2821839
 109.8236385 118.3767051  71.5375697  98.7721867 110.4541265  68.4381276
  99.3465619 110.2316447  67.7054469  99.3592850 110.5229960  69.1909877
 107.8301444 116.3414992  69.2445652 108.3433326 116.9744984  69.7467362
 108.4802668 115.7416188  68.8789012  99.0991454 112.4845726  62.4577161
  98.2628766 112.8220413  62.7786436  98.9596224 112.3494706  61.5204298
 101.0744535 107.3282514  67.1656345 100.4208947 107.0131531  66.5412960
 101.0325009 106.7058255  67.8916168 102.1855740 117.6101809  59.0809637
 101.2782801 117.3791063  59.2800786 102.6826772 116.8139428  59.2683619
 105.0923819 126.3199316  62.0006324 104.4185517 126.6231013  62.6091281
 105.4789641 127.1228397  61.6511781 104.3082275 113.8164448  71.4903993
 103.3904837 114.0379395  71.3325681 104.7242419 113.8910758  70.6315700
 105.0917323 115.2155863  66.6206673 105.8389142 115.7277261  66.3113795
 105.3608912 114.8939916  67.4811067 103.3643973 117.7114404  63.6033628
 102.4555192 117.4273437  63.7006097 103.3939057 118.1313483  62.7436934
 108.5963241 121.3220994  67.3724795 108.1425568 120.4811903  67.4289986
 107.9657207 121.9582392  67.7099575 107.5396160 112.2512980  68.6025463
 106.8018917 111.7390366  68.9335705 107.7922934 111.8113361  67.7908739
 107.0396180 123.1597490  68.3074613 107.3319154 123.7202547  67.5886979
 107.5494800 123.4526051  69.0627772 107.6407787 105.0289232  69.1967232
 107.9466664 104.1686595  68.9093147 108.3660392 105.6206852  68.9966226
  93.9332143 115.4319918  67.5848830  93.7356543 114.8389279  66.8599896
  93.3778807 115.1272128  68.3024769 101.9128867 115.3243025  69.7043423
 101.9677477 114.3716861  69.6285899 101.1020069 115.4802464  70.1884721
 103.0620061 119.2523148  60.9421706 102.6239491 118.5359007  60.4827343
 103.8030502 119.4799263  60.3806797  99.8521227 113.9420084  67.4633802
  99.0389093 114.2414255  67.8698994 100.3480221 113.5475773  68.1808284
 102.0029805 123.9377841  69.3968066 101.9605984 124.1638688  68.4676598
 102.9192504 123.7041216  69.5453868 105.4495439 114.4061909  76.2948696
 105.8044826 114.6333382  77.1543161 106.0967570 114.7380286  75.6725951
 111.1793176 117.5280345  66.9998025 111.0411074 117.7181941  66.0719214
 110.8229395 118.2899728  67.4566076  99.3435302 111.5138440  73.0795037
  99.9834681 111.3727199  72.3818000  98.5112832 111.2272953  72.7033639
 111.2062555 119.5956872  72.0109296 111.6399062 119.5032161  72.8592350
 111.9194136 119.5714372  71.3729312 100.1195606 120.8140870  69.1930029
 100.9136204 120.3191191  68.9912604  99.4087298 120.2858733  68.8297735
 104.9390450 123.1958966  73.5442397 104.9927472 123.7649902  74.3120113
 104.0705232 123.3660851  73.1796434  96.4278369 114.9583952  65.2689782
  95.4975957 114.8968408  65.4859744  96.5235841 114.4359905  64.4726423
  96.3463918 111.4838765  67.8568024  96.6070736 112.3984098  67.7477184
  97.1681091 111.0163208  68.0064636  97.8188844 112.8976522  75.0266848
  98.4911897 112.6893884  74.3779497  96.9918630 112.6998608  74.5872080
 112.0678105 119.6380572  74.5442182 112.2613995 120.5426383  74.7901457
 111.9678723 119.1787992  75.3780767 103.7214416 109.5238463  77.0432509
 103.0742331 110.2228413  76.9496985 104.4915431 109.9574607  77.4108757
 107.1293214 119.7887315  80.1183062 106.9778720 119.5597867  79.2013146
 107.1197893 120.7457917  80.1314407 103.8978550 117.3619228  75.1029329
 104.8270610 117.5130388  74.9298296 103.4769580 117.4503249  74.2477975
 102.6966882 121.3869892  72.8727866 102.5577967 121.0188677  73.7453804
 101.9081478 121.9017532  72.7011824 103.2915034 126.4878989  64.2153403
 103.4666789 126.0167032  65.0299025 102.6047822 127.1144755  64.4434664
 104.2472097 120.7651495  70.2616704 103.9121929 120.7252265  71.1574354
 103.7476043 120.0996211  69.7887114  98.2216341 116.1719125  75.7869285
  98.0836139 115.4399364  76.3880824  99.1321264 116.0828025  75.5053473
 107.1831289 118.1107529  60.5353764 106.5660459 117.3854358  60.4386816
 106.7147777 118.8716890  60.1920838 100.8498642 115.8839084  75.2752965
 101.5598260 115.2432277  75.2339583 100.8067950 116.1351979  76.1979146
 108.8385420 122.8206438  78.1959544 108.7797966 122.1365658  77.5290127
 109.2404939 123.5625428  77.7440170  99.5627575 112.8704302  77.0948604
  99.0264933 112.4195041  77.7470201  98.9744284 113.0050211  76.3519069
  97.8576119 129.6368352  70.9893263  98.0972717 130.2686876  71.6672282
  97.0145315 129.2856392  71.2758622  98.9729834 112.3292954  59.6575068
  98.0959301 112.2081754  59.2937315  99.4487588 111.5379032  59.4053957
 108.8402827 120.7846022  76.4273524 107.9529606 120.4471943  76.5499923
 109.4101379 120.0529053  76.6642289  90.4931975 117.1170113  69.7516575
  91.1803014 116.8031843  69.1637590  90.3380103 118.0211478  69.4783827
  95.2966697 112.0060310  74.1801599  95.2124885 111.3985980  73.4452009
  94.4749403 112.4969328  74.1811095 102.3703981 125.4447474  73.3934767
 102.2974152 126.2502446  73.9054071 101.9281374 125.6439440  72.5682788
 102.1593760 124.6819244  66.9037588 101.3761282 125.2240924  66.9975813
 102.8586506 125.1993224  67.3031830 105.4690411 110.4913874  69.5471794
 105.9659110 109.7383836  69.2272864 104.6977392 110.5278190  68.9815003
 113.3220168 116.1954239  71.1890085 113.3110044 117.0778954  70.8184018
 112.4537547 115.8425790  70.9944622 104.8302664 125.3434308  75.5492926
 105.5430637 125.9781773  75.4768827 104.3392693 125.4398174  74.7332927
 106.5520191 119.2485561  67.1210217 105.6176470 119.3687023  66.9514922
 106.7296860 118.3458028  66.8570227 102.0525379 112.6331257  69.2743478
 101.6823167 112.0802297  69.9624384 102.5484472 112.0289390  68.7218479
 109.9392743 115.0902880  67.6560251 110.4053195 115.9230872  67.5820554
 110.3900243 114.6247862  68.3605510  99.8814578 123.0928752  76.3698496
 100.5824037 123.7265234  76.5227891  99.4109693 123.4343483  75.6094136
 108.0068974 121.4346701  64.6546403 108.2828818 121.3203296  65.5640278
 107.1373472 121.0364186  64.6158577 107.9109405 107.4583467  71.6951153
 106.9972485 107.6887694  71.8633360 108.3402507 107.5421911  72.5465185
 107.6815864 115.6473359  74.1951047 107.0287314 115.8949266  73.5403500
 108.0596244 114.8337497  73.8613524 104.6423038 125.6833052  68.2979217
 104.8245432 124.8654708  68.7606969 105.4656024 125.9000744  67.8604107
 104.9765203 124.6101237  65.5594266 105.5052970 124.0993692  64.9464428
 105.2393423 124.2943767  66.4239799 103.7303437 116.3893170  80.6817084
 103.0544074 116.2887299  81.3519459 104.5531071 116.2332384  81.1453081
  95.4782296 122.6265107  73.3029599  96.0635733 121.8808794  73.4357503
  95.2807134 122.9369063  74.1866263  98.3320951 125.6616354  68.3192041
  97.6631326 126.1462482  67.8356082  98.1933821 125.9085574  69.2335420
  90.0699951 115.1970707  72.0234042  90.1084050 114.6634297  72.8171160
  89.5640244 114.6705912  71.4045019 102.4726220 127.6960097  74.9174700
 103.0244528 127.8591719  75.6823785 102.8132413 128.2864535  74.2454725
  97.4490713 110.0435247  75.5196585  97.5132039 110.9050078  75.1073982
  97.3857833 109.4309249  74.7868943  96.9242986 112.1158380  79.1669619
  97.5515024 111.7335457  79.7807143  96.0670904 111.8972582  79.5325311
 107.3237094 122.5221355  80.7723354 107.8676998 123.1351313  80.2778309
 106.7423939 123.0800933  81.2890367  93.7008528 113.9234809  65.0987974
  93.9961969 113.0145487  65.0455027  92.7996564 113.9022548  64.7768976
 105.6094607 125.6442073  71.9038382 105.4845747 124.8431813  71.3949327
 106.2673698 126.1388266  71.4152352  97.2302775 111.9990806  71.0815522
  96.5089361 112.6126773  70.9422996  98.0196031 112.5348570  71.0032168
 107.6729515 123.4451093  73.5317932 106.7259851 123.3256444  73.4596259
 108.0212289 122.5573591  73.6144194 100.0329089 109.3345232  77.3556174
 100.5563491 109.5807529  78.1182483  99.8141422 110.1665267  76.9359311
  95.4296370 111.6048907  65.2227299  95.1009076 110.7246286  65.0402405
  95.7835741 111.5496575  66.1103688 104.6775949 123.2403809  69.7322284
 104.5300911 122.3120517  69.9129854 105.5029442 123.2623900  69.2479360
  98.5438193 111.8921876  65.5902776  98.8834266 112.4207798  64.8681385
  98.9910313 112.2302283  66.3661343 108.2810071 124.0632368  70.8187157
 109.2056618 123.8575229  70.6811608 108.1125374 123.8148769  71.7276499
 101.2381634 110.2758927  75.0405845 100.8978454 109.4766740  75.4426524
 100.5320640 110.5760638  74.4682678 101.8898106 107.3608240  73.4933168
 102.7124175 106.8868718  73.3712058 102.1336169 108.1398723  73.9931854
 100.5306340 110.3896498  63.7896069 101.2514703 110.7677751  63.2859786
  99.9071644 111.1085375  63.8931047 104.6737463 111.0941647  64.7254402
 104.8901077 111.9766285  64.4243230 104.1931530 110.7027860  63.9960044
  99.4136684 114.0527360  71.3025146  99.2681265 114.3667663  72.1949428
  98.9361888 114.6712261  70.7496045 101.2733067 111.0429908  71.3506036
 101.2594636 110.1471001  71.0138334 101.9905495 111.0500572  71.9844322
 103.1259198 111.4767248  73.3959163 102.8676976 112.3984319  73.3943494
 102.5944238 111.0797683  74.0859627 108.0705387 124.5818035  66.1749249
 108.2442264 124.0164458  65.4223101 108.5634278 125.3818930  65.9928738
  93.8882347 116.5932705  74.2412807  93.3435815 117.3692513  74.3733082
  94.7661696 116.9403509  74.0831929 100.6769963 109.9244288  66.6193606
 100.7985874 108.9960935  66.8184493 100.3872006 109.9382974  65.7071921
 103.5461154 107.6099199  69.7560326 103.5682850 107.6738532  68.8012305
 103.9629213 106.7703708  69.9500832 113.9244778 117.3454458  67.7939548
 114.3675924 116.5961784  67.3958672 113.0471288 117.3364595  67.4113280
 109.0580559 123.8984800  63.2746147 109.7531464 124.5191493  63.4933461
 109.4003709 123.0480151  63.5498525  94.6748368 115.7202601  77.1342964
  93.9330104 115.8685236  77.7207595  94.3541113 115.9810866  76.2709714
 110.9571982 121.3484505  64.8033478 111.4823306 121.6871778  64.0782798
 110.8694335 120.4131521  64.6196612 102.6192031 125.2618579  76.9323354
 102.9279158 125.0167726  77.8046054 103.4167513 125.4665218  76.4442224
 102.6412643 127.4156489  69.1628731 102.2017633 126.9232867  69.8561587
 103.3920760 126.8729456  68.9220806  95.1204982 123.6068030  69.1653359
  95.9463002 123.3071801  68.7852002  94.7699034 122.8375652  69.6143147
 100.0886515 122.9594498  71.2351032  99.4666525 122.2965203  70.9353260
 100.7591382 122.9855630  70.5524680  93.3213587 121.5254356  70.1242292
  92.4845495 121.0976530  69.9426294  93.2937233 121.7186799  71.0613084
 100.1611043 111.4376286  80.8283538 100.2099198 112.3138409  80.4461308
 100.7033557 110.8953679  80.2555182 110.6465888 121.9817409  80.1084676
 109.8561432 121.9641548  79.5689175 110.4099243 122.5205703  80.8633712
 110.7663764 118.8309875  77.4217404 110.8161768 118.6659883  78.3632927
 110.6577687 117.9637134  77.0315285  99.6500022 121.5098421  64.7109493
  99.7988143 122.1933886  64.0576166 100.4566466 121.4903511  65.2258949
 108.0567526 114.8140803  78.7376711 108.9577389 114.6747268  78.4460709
 108.1315500 114.9795258  79.6774888 102.3910331 112.1907658  77.5829897
 101.5213641 112.4841224  77.3112486 102.6269812 112.7748103  78.3037161
 112.2681960 121.2506817  77.6659426 111.9766769 121.6136798  78.5022887
 111.6554092 120.5373825  77.4872758 113.4677643 118.8159697  70.1861996
 114.3024534 119.2549501  70.3499556 113.6036771 118.3398350  69.3670242
 110.5169149 116.3739432  76.1339484 110.9923270 116.5667078  75.3258335
 109.5934714 116.4298617  75.8882867  97.4052655 117.5363599  65.7170562
  97.1598697 116.6325929  65.9150772  97.5748570 117.5380749  64.7750040
 105.0949365 108.4087275  75.0995318 105.6131309 109.1448302  74.7741806
 104.7404498 108.7151268  75.9342077  96.6748303 113.2691956  63.2156723
  95.9817548 113.3436311  62.5596759  96.4300055 112.5052300  63.7378240
 105.3461959 104.8287558  70.6196214 105.6263713 104.1610747  71.2456641
 106.1312566 105.0216653  70.1070878 103.1495428 124.0046552  62.1821240
 102.5769395 124.6236739  61.7291712 103.7228221 124.5545913  62.7161162
 109.2170818 113.2505192  74.3667789 110.1688240 113.3503289  74.3880013
 109.0474268 112.4583460  74.8765874 107.2385197 110.3360775  74.5527190
 106.6435129 110.6165788  73.8573679 106.9534894 110.8254676  75.3243931
 106.3692688 124.2883702  63.3129823 107.3023361 124.2229263  63.5162698
 106.2815900 125.1239969  62.8544355 108.9980704 123.6049572  60.2733770
 108.9194336 123.2709436  61.1669528 109.8190371 124.0971340  60.2725243
 111.6958895 116.4711311  73.4810089 111.6635215 115.5327312  73.6669773
 112.3059519 116.5495348  72.7475914 103.5342226 115.3407364  59.5237293
 104.4801331 115.2113572  59.5925711 103.1556471 114.6022026  60.0006721
 111.8453384 113.2622355  73.5268372 111.3292432 112.4780811  73.3398301
 112.7293332 112.9341071  73.6914892 109.5064111 107.0063370  69.4864185
 109.3088932 106.6978459  70.3707517 110.1163816 107.7325009  69.6162115
 117.5135445 117.5327318  72.6216126 118.2438834 117.2712606  73.1823829
 116.9042391 116.7956040  72.6618194 115.5950742 115.6735181  73.2190577
 114.8683906 115.5391146  72.6107068 115.1798029 115.9812009  74.0247295
 103.4180919 119.3925110  80.9837950 104.3383928 119.5703709  81.1777996
 103.3830502 118.4481156  80.8317649 101.7185143 113.2657341  59.4592178
 100.8116599 112.9690453  59.5354892 101.9961124 112.9687159  58.5926464
  92.6363084 114.5863704  69.9091225  92.3165868 113.7329012  69.6165599
  92.0896512 114.8012282  70.6649192  96.4142991 117.3026145  73.6260731
  96.6329001 118.2343253  73.6448765  96.8268765 116.9434120  74.4115535
 103.3347209 107.8094230  65.6136419 102.5247937 107.4641315  65.9891665
 104.0231626 107.5001774  66.2024031 105.2637757 106.8872277  67.2360716
 105.8168796 107.3067731  67.8950739 105.5007844 105.9608025  67.2783672
 101.2870857 112.8759351  83.0163480 101.1867584 113.8253708  82.9475571
 101.0692399 112.5477590  82.1439550 100.4883928 110.1244276  59.6004157
 101.3503092 110.4499174  59.8599975 100.6734272 109.3375772  59.0877223
  92.5051344 118.2066616  71.8784346  91.8114815 117.7920568  71.3654301
  93.2524335 118.2487152  71.2817765 108.6416564 108.9972802  66.7439380
 108.0615234 109.6557606  66.3617433 108.3752497 108.1750147  66.3326798
 107.0920131 108.3977860  68.9460701 107.5919909 108.5094395  68.1375019
 107.7355739 108.0938913  69.5861509 101.1502127 116.3056490  81.8328542
 100.6669208 117.1056850  82.0392431 101.2363066 116.3164435  80.8795986
  94.4188086 118.1384869  69.7550361  94.3958774 118.2372557  68.8032244
  94.7288723 118.9850020  70.0767527  97.0775464 120.1961024  73.8696975
  98.0318718 120.1644967  73.8026907  96.8787988 119.7351648  74.6847201
  97.6674846 118.7662140  76.4367773  98.4867735 119.2606219  76.4602610
  97.9411654 117.8494109  76.4085341 107.4241442 111.1572893  65.7995729
 106.5367298 111.4422543  65.5815923 107.8395432 110.9966656  64.9523005
 110.7755979 111.1819414  69.5150068 111.5516369 111.6715866  69.7874685
 110.0504113 111.6077468  69.9721937 113.2128537 111.8947033  70.5724008
 113.8073028 111.6542769  69.8617317 113.2855121 111.1754164  71.1997545
  95.4325693 125.7380644  70.8867173  95.2980161 124.9781045  70.3205171
  95.0157755 126.4621544  70.4195962 106.5684656 120.9217567  59.8943749
 107.2720506 121.1267570  60.5101404 105.8447305 121.4894329  60.1592832
 107.3982466 116.6727429  66.0146019 107.3417668 117.1295980  65.1753651
 107.9510809 115.9118113  65.8368861 111.2087272 112.4617161  66.8396138
 110.9524206 112.0613796  67.6704346 110.5840140 113.1760955  66.7146277
 115.5199610 115.2013234  69.3467430 114.9599168 115.2706423  70.1198992
 114.9143113 115.0254218  68.6266926  98.5894819 126.6349961  71.0985616
  98.4727203 127.5795393  70.9964306  97.7687265 126.3323522  71.4871415
 108.4771353 121.3600097  61.9442209 109.3116957 120.9281295  61.7619683
 108.3155696 121.1882110  62.8719103 108.1317246 117.8632210  63.3098548
 108.0766049 117.6976481  62.3686992 107.5063301 118.5708243  63.4660738
  92.9209761 113.1000274  77.1359970  93.5668624 112.5899228  77.6247195
  92.7126912 113.8368956  77.7103395 105.4463153 120.1681122  82.6352111
 106.3154312 120.3421774  82.2738746 104.9669904 120.9875539  82.5127840
 101.4413371 107.3640319  62.8883866 101.4292041 108.3082159  63.0452137
 102.3336793 107.1810464  62.5943328  99.6149333 127.2878223  74.3141544
 100.5176580 127.3201833  74.6308039  99.3886703 126.3578674  74.3287880
 101.3702935 126.0409209  70.9751623 100.4198566 126.0411071  70.8615995
 101.6735421 125.2941944  70.4587658 105.2565490 103.9583096  67.1429803
 104.4897886 103.4041582  67.2886485 105.6676195 104.0304964  68.0043955
  97.2607252 110.2467891  81.2334984  98.1238713 109.8904696  81.4438309
  96.6872662 109.9081786  81.9210389 117.1055628 131.8769748  72.0397385
 117.7434038 131.7576495  71.3360725 116.9876471 132.8250592  72.0985338
 113.9145335 131.8297176  71.9758910 113.5763846 131.7138241  71.0879445
 114.7835103 131.4288341  71.9559916 109.7732150 133.6832652  67.9655801
 109.2097016 133.5922589  67.1972089 109.6584545 132.8632557  68.4458294
 114.3965118 132.9832028  77.9345116 114.3853759 132.5884826  77.0625619
 114.5585757 132.2498100  78.5278887 107.3196582 135.1783844  70.8040021
 108.1117874 134.8374669  70.3886321 107.5593233 135.2878819  71.7242175
 115.3531709 137.3503620  63.2770266 114.7019689 137.9357700  62.8904280
 116.1476072 137.8809815  63.3365303 109.2787336 134.4392757  63.6757400
 110.0518212 133.8921744  63.5370276 109.6312735 135.3037006  63.8871862
 111.1172379 135.7669139  76.8824300 110.8262245 136.6714770  76.7670966
 111.7529363 135.8085667  77.5968369 112.0428586 133.1445988  73.4725659
 112.6392158 132.9202010  72.7582622 112.1003557 132.4030733  74.0751107
 111.6153614 130.5985423  61.3075850 111.8679135 130.0766945  60.5459313
 110.6778173 130.4351569  61.4102534 116.6596897 129.6021202  69.1150593
 117.4459986 129.1840625  68.7641010 116.9235601 130.5067294  69.2832242
 116.8306974 135.0394052  63.8139250 116.1952807 135.1128678  64.5260155
 116.5004381 135.6287651  63.1358329 122.0605324 129.5396435  70.0183572
 122.7930496 128.9695652  70.2521401 121.3044680 129.1518035  70.4590077
 111.3349903 132.5013529  63.5100225 111.2186161 131.8258433  64.1781309
 111.4452163 132.0145903  62.6932378 113.6781444 131.9623676  67.2146914
 113.3139651 131.4354297  67.9259836 114.5348560 131.5722145  67.0413400
 119.5830744 123.2518009  74.4778181 119.2514069 124.1213420  74.2539395
 118.9876358 122.9354293  75.1572211 113.3186931 126.9913576  62.2108263
 113.4861333 127.8593812  62.5778734 113.1284100 127.1540858  61.2869552
 116.0762264 135.4530555  73.8774093 115.7762987 136.3555594  73.7689900
 115.7313323 135.1862738  74.7295246 109.5274745 131.9044352  69.9110798
 108.6025242 131.7720566  70.1188489 109.7759159 132.6838571  70.4080740
 119.4759408 127.9713095  71.5571531 118.5676285 127.9028504  71.2630292
 119.4247004 128.4485040  72.3853356 113.2976152 129.4471234  63.1954930
 113.1775777 129.8928284  64.0340410 112.6028740 129.7956551  62.6368468
 106.8883556 131.5477625  70.7454587 107.0175938 131.8012104  71.6593998
 106.2081008 132.1405333  70.4259242 113.5500274 129.3902741  79.5006428
 112.7733608 129.9496661  79.4909292 114.1890837 129.8759524  80.0221298
 121.3421054 126.1729533  73.3349404 120.6995434 126.4662067  72.6889199
 120.8375983 126.0582454  74.1402601 118.9961218 129.9192707  64.0235264
 119.9079074 130.1520093  63.8482961 118.4870865 130.5029751  63.4610342
 111.8046646 132.1988194  79.0624395 112.5461330 132.7373238  78.7859218
 111.0983631 132.8254483  79.2195947 117.2801985 134.3417335  77.6596556
 117.6885342 133.8999745  76.9151189 116.5579247 133.7669962  77.9130749
 113.6333056 129.2789941  75.0330113 114.4794251 129.7029355  75.1764762
 113.5731693 128.6223566  75.7268676 117.6030800 134.9018525  71.4148845
 116.9739663 135.0664239  70.7124913 117.2156462 135.3160135  72.1859809
 116.7832501 126.9394310  76.6911287 116.5393433 127.6936370  76.1545563
 117.0592431 127.3179657  77.5258534 118.7370964 133.4832922  75.3688552
 118.9487859 134.1264682  74.6922934 118.6900712 132.6495239  74.9010483
 116.3397193 126.0950743  72.2725125 115.4781672 126.3931996  72.5641862
 116.3659627 126.3121142  71.3406157 113.1558762 134.6392933  68.6798930
 113.6197108 134.9180636  67.8903553 112.8915560 133.7376378  68.4972021
 110.0482843 134.1864415  71.6178694 110.6184200 134.6151683  70.9796178
 110.6390955 133.9046999  72.3162879 112.0927648 130.7616086  65.4888495
 112.7951691 131.2137129  65.9562422 111.7608277 130.1199904  66.1168389
 110.5408010 129.3527842  79.8639705 109.9106670 130.0344123  80.0975102
 110.4344097 129.2410924  78.9192843 105.8352982 129.0199638  70.7905629
 105.0452036 129.2757167  70.3145740 106.3264229 129.8347976  70.8957670
 107.7867727 129.3844218  67.7489106 106.9898891 129.4962912  68.2672601
 107.5593320 129.7230870  66.8829996 113.6173395 135.9088921  75.6971620
 113.6817828 136.3709328  76.5329792 112.9084319 135.2786286  75.8253930
 104.1190685 129.2730129  73.2220620 104.3698723 130.1577139  73.4878196
 104.6550233 129.0934730  72.4495712 113.3321413 137.5757028  65.5650601
 113.1967087 138.4208564  65.9935448 113.8731225 137.7776306  64.8016534
 109.8188752 123.6548608  82.2264956 109.4255698 123.1014807  82.9012600
 110.6354893 123.9659187  82.6171473 106.7850810 135.0932466  66.1378526
 107.2975331 135.8875717  66.2884090 107.4373523 134.3958757  66.0712127
 108.5945695 138.2098223  68.2201279 108.7712323 139.1316187  68.0322263
 109.3902528 137.8956642  68.6495659 112.7356713 125.0706487  79.8185212
 113.4766427 125.6713640  79.7389675 112.9674636 124.3284125  79.2603255
 107.8798051 130.2562854  78.0963442 107.7651566 129.3548112  78.3970541
 107.0242569 130.5026551  77.7448259 114.9589889 138.1980595  79.6950943
 114.5153743 137.4116973  79.3771847 115.6207103 138.3859745  79.0294834
 109.7177010 139.7276396  74.2211621 110.2684435 139.5993460  73.4488615
 108.8788486 140.0271285  73.8706514 113.5144181 135.9927524  78.5655852
 114.0472518 135.2315812  78.3355160 112.9858262 135.7001176  79.3080007
 116.6813876 121.0987590  74.0949494 116.3378146 121.9889232  74.0188605
 117.0492839 120.9089248  73.2319079 104.7499727 133.4221121  66.9138096
 105.5874949 133.8318129  66.6971804 104.9277995 132.4820563  66.8838290
 116.6464159 131.0896201  62.6021929 116.1310782 131.8600806  62.8410317
 116.3741467 130.4161337  63.2254991 114.2311270 125.9345902  67.6607168
 113.3752866 125.5452752  67.4812806 114.6438222 126.0137863  66.8006953
 115.7610417 123.4692245  72.0598727 115.2575212 123.4322380  71.2466533
 116.0541023 124.3784988  72.1195384 112.0053303 123.5530975  71.0664909
 112.8706299 123.3573784  70.7070799 112.0730811 123.3241327  71.9934266
 116.4350462 128.9623293  64.4281710 116.1300598 129.2769442  65.2791854
 117.3880904 129.0404713  64.4709043 114.8796894 135.1213517  66.0774664
 114.3518256 134.3866276  65.7647902 114.3784397 135.8988193  65.8314633
 119.8589740 133.3162537  71.1941711 119.2013414 134.0061799  71.2821839
 120.6630139 133.7058969  71.5375697 109.6115622 125.7833183  68.4381276
 110.1859373 125.5608364  67.7054469 110.1986604 125.8521877  69.1909877
 118.6695199 131.6706910  69.2445652 119.1827081 132.3036902  69.7467362
 119.3196423 131.0708105  68.8789012 109.9385209 127.8137644  62.4577161
 109.1022521 128.1512330  62.7786436 109.7989978 127.6786624  61.5204298
 111.9138289 122.6574432  67.1656345 111.2602702 122.3423449  66.5412960
 111.8718763 122.0350172  67.8916168 113.0249494 132.9393727  59.0809637
 112.1176556 132.7082980  59.2800786 113.5220526 132.1431346  59.2683619
 115.1476030 129.1456365  71.4903993 114.2298591 129.3671312  71.3325681
 115.5636173 129.2202676  70.6315700 115.9311077 130.5447781  66.6206673
 116.6782896 131.0569178  66.3113795 116.2002667 130.2231834  67.4811067
 114.2037728 133.0406322  63.6033628 113.2948947 132.7565355  63.7006097
 114.2332811 133.4605400  62.7436934 118.3789915 127.5804897  68.6025463
 117.6412671 127.0682283  68.9335705 118.6316688 127.1405279  67.7908739
 118.4801542 120.3581149  69.1967232 118.7860419 119.4978513  68.9093147
 119.2054147 120.9498769  68.9966226 104.7725898 130.7611836  67.5848830
 104.5750298 130.1681197  66.8599896 104.2172562 130.4564046  68.3024769
 112.7522622 130.6534942  69.7043423 112.8071231 129.7008779  69.6285899
 111.9413824 130.8094381  70.1884721 113.9013815 134.5815065  60.9421706
 113.4633245 133.8650924  60.4827343 114.6424256 134.8091180  60.3806797
 110.6914982 129.2712002  67.4633802 109.8782847 129.5706173  67.8698994
 111.1873976 128.8767691  68.1808284 112.8423559 139.2669759  69.3968066
 112.7999738 139.4930605  68.4676598 113.7586258 139.0333134  69.5453868
 116.2889193 129.7353827  76.2948696 116.6438581 129.9625300  77.1543161
 116.9361324 130.0672203  75.6725951 122.0186930 132.8572262  66.9998025
 121.8804829 133.0473858  66.0719214 121.6623149 133.6191645  67.4566076
 110.1829056 126.8430358  73.0795037 110.8228436 126.7019117  72.3818000
 109.3506587 126.5564871  72.7033639 110.9589360 136.1432788  69.1930029
 111.7529959 135.6483108  68.9912604 110.2481053 135.6150651  68.8297735
 107.2672124 130.2875870  65.2689782 106.3369712 130.2260325  65.4859744
 107.3629596 129.7651823  64.4726423 107.1857673 126.8130683  67.8568024
 107.4464490 127.7276016  67.7477184 108.0074845 126.3455125  68.0064636
 108.6582598 128.2268440  75.0266848 109.3305651 128.0185802  74.3779497
 107.8312385 128.0290526  74.5872080 114.5608170 124.8530381  77.0432509
 113.9136085 125.5520330  76.9496985 115.3309185 125.2866525  77.4108757
 117.9686968 135.1179233  80.1183062 117.8172474 134.8889785  79.2013146
 117.9591647 136.0749834  80.1314407 114.7372304 132.6911146  75.1029329
 115.6664364 132.8422305  74.9298296 114.3163334 132.7795166  74.2477975
 113.5360636 136.7161810  72.8727866 113.3971722 136.3480594  73.7453804
 112.7475232 137.2309449  72.7011824 115.0865851 136.0943413  70.2616704
 114.7515684 136.0544183  71.1574354 114.5869797 135.4288129  69.7887114
 109.0610095 131.5011043  75.7869285 108.9229893 130.7691282  76.3880824
 109.9715019 131.4119943  75.5053473 118.0225043 133.4399447  60.5353764
 117.4054214 132.7146275  60.4386816 117.5541531 134.2008807  60.1920838
 111.6892396 131.2131002  75.2752965 112.3992015 130.5724194  75.2339583
 111.6461704 131.4643897  76.1979146 110.4021330 128.1996220  77.0948604
 109.8658687 127.7486958  77.7470201 109.8138038 128.3342129  76.3519069
 109.8123589 127.6584871  59.6575068 108.9353055 127.5373672  59.2937315
 110.2881342 126.8670950  59.4053957 101.3325729 132.4462031  69.7516575
 102.0196769 132.1323761  69.1637590 101.1773858 133.3503396  69.4783827
 106.1360451 127.3352228  74.1801599 106.0518640 126.7277897  73.4452009
 105.3143158 127.8261246  74.1811095 116.3084165 125.8205791  69.5471794
 116.8052865 125.0675754  69.2272864 115.5371147 125.8570108  68.9815003
 124.1613922 131.5246157  71.1890085 124.1503799 132.4070872  70.8184018
 123.2931302 131.1717708  70.9944622 117.3913946 134.5777478  67.1210217
 116.4570224 134.6978941  66.9514922 117.5690614 133.6749945  66.8570227
 112.8919134 127.9623174  69.2743478 112.5216921 127.4094215  69.9624384
 113.3878226 127.3581308  68.7218479 120.7786497 130.4194798  67.6560251
 121.2446949 131.2522789  67.5820554 121.2293998 129.9539779  68.3605510
 110.7208332 138.4220669  76.3698496 111.4217792 139.0557152  76.5227891
 110.2503447 138.7635401  75.6094136 118.7503160 122.7875385  71.6951153
 117.8366240 123.0179612  71.8633360 119.1796261 122.8713829  72.5465185
 118.5209618 130.9765277  74.1951047 117.8681069 131.2241184  73.5403500
 118.8989998 130.1629415  73.8613524 114.5697191 131.7185088  80.6817084
 113.8937828 131.6179217  81.3519459 115.3924825 131.5624301  81.1453081
 106.3176050 137.9557024  73.3029599 106.9029487 137.2100712  73.4357503
 106.1200889 138.2660981  74.1866263 109.1714706 140.9908272  68.3192041
 108.5025081 141.4754399  67.8356082 109.0327575 141.2377492  69.2335420
 100.9093705 130.5262624  72.0234042 100.9477805 129.9926215  72.8171160
 100.4033998 129.9997830  71.4045019 108.2884467 125.3727165  75.5196585
 108.3525794 126.2341996  75.1073982 108.2251588 124.7601167  74.7868943
 107.7636740 127.4450298  79.1669619 108.3908779 127.0627375  79.7807143
 106.9064659 127.2264499  79.5325311 104.5402283 129.2526727  65.0987974
 104.8355724 128.3437405  65.0455027 103.6390319 129.2314466  64.7768976
 108.0696530 127.3282723  71.0815522 107.3483116 127.9418691  70.9422996
 108.8589786 127.8640488  71.0032168 110.8722843 124.6637150  77.3556174
 111.3957245 124.9099446  78.1182483 110.6535177 125.4957184  76.9359311
 106.2690124 126.9340824  65.2227299 105.9402831 126.0538203  65.0402405
 106.6229495 126.8788493  66.1103688 109.3831948 127.2213794  65.5902776
 109.7228020 127.7499715  64.8681385 109.8304068 127.5594200  66.3661343
 112.0775388 125.6050845  75.0405845 111.7372209 124.8058658  75.4426524
 111.3714395 125.9052556  74.4682678 112.7291860 122.6900157  73.4933168
 113.5517929 122.2160635  73.3712058 112.9729924 123.4690641  73.9931854
 111.3700095 125.7188416  63.7896069 112.0908457 126.0969668  63.2859786
 110.7465399 126.4377292  63.8931047 115.5131218 126.4233565  64.7254402
 115.7294832 127.3058203  64.4243230 115.0325285 126.0319778  63.9960044
 110.2530439 129.3819278  71.3025146 110.1075020 129.6959581  72.1949428
 109.7755643 130.0004178  70.7496045 112.1126822 126.3721826  71.3506036
 112.0988391 125.4762919  71.0138334 112.8299250 126.3792490  71.9844322
 113.9652953 126.8059166  73.3959163 113.7070730 127.7276237  73.3943494
 113.4337993 126.4089601  74.0859627 104.7276101 131.9224622  74.2412807
 104.1829569 132.6984430  74.3733082 105.6055451 132.2695427  74.0831929
 111.5163718 125.2536206  66.6193606 111.6379629 124.3252852  66.8184493
 111.2265760 125.2674892  65.7071921 114.3854908 122.9391117  69.7560326
 114.4076605 123.0030450  68.8012305 114.8022967 122.0995625  69.9500832
 105.5142123 131.0494519  77.1342964 104.7723859 131.1977154  77.7207595
 105.1934867 131.3102784  76.2709714 105.9598737 138.9359947  69.1653359
 106.7856757 138.6363719  68.7852002 105.6092789 138.1667570  69.6143147
 110.9280270 138.2886415  71.2351032 110.3060279 137.6257120  70.9353260
 111.5985137 138.3147547  70.5524680 104.1607342 136.8546274  70.1242292
 103.3239250 136.4268448  69.9426294 104.1330987 137.0478717  71.0613084
 111.0004797 126.7668203  80.8283538 111.0492953 127.6430326  80.4461308
 111.5427311 126.2245597  80.2555182 121.6057518 134.1601793  77.4217404
 121.6555523 133.9951801  78.3632927 121.4971441 133.2929052  77.0315285
 110.4893777 136.8390339  64.7109493 110.6381897 137.5225803  64.0576166
 111.2960220 136.8195429  65.2258949 118.8961280 130.1432721  78.7376711
 119.7971143 130.0039186  78.4460709 118.9709255 130.3087176  79.6774888
 113.2304086 127.5199576  77.5829897 112.3607395 127.8133142  77.3112486
 113.4663566 128.1040021  78.3037161 121.3562903 131.7031349  76.1339484
 121.8317025 131.8958996  75.3258335 120.4328468 131.7590535  75.8882867
 108.2446410 132.8655516  65.7170562 107.9992452 131.9617846  65.9150772
 108.4142324 132.8672667  64.7750040 115.9343120 123.7379193  75.0995318
 116.4525063 124.4740220  74.7741806 115.5798252 124.0443186  75.9342077
 107.5142057 128.5983874  63.2156723 106.8211302 128.6728229  62.5596759
 107.2693809 127.8344218  63.7378240 116.1855714 120.1579475  70.6196214
 116.4657467 119.4902664  71.2456641 116.9706321 120.3508571  70.1070878
 120.0564572 128.5797109  74.3667789 121.0081995 128.6795207  74.3880013
 119.8868022 127.7875378  74.8765874 118.0778952 125.6652693  74.5527190
 117.4828884 125.9457705  73.8573679 117.7928648 126.1546593  75.3243931
 122.5352650 131.8003229  73.4810089 122.5028970 130.8619230  73.6669773
 123.1453274 131.8787266  72.7475914 114.3735981 130.6699282  59.5237293
 115.3195085 130.5405490  59.5925711 113.9950226 129.9313944  60.0006721
 122.6847138 128.5914272  73.5268372 122.1686187 127.8072729  73.3398301
 123.5687087 128.2632989  73.6914892 120.3457865 122.3355288  69.4864185
 120.1482686 122.0270376  70.3707517 120.9557571 123.0616927  69.6162115
 114.2574673 134.7217028  80.9837950 115.1777683 134.8995627  81.1777996
 114.2224256 133.7773073  80.8317649 112.5578898 128.5949258  59.4592178
 111.6510353 128.2982371  59.5354892 112.8354879 128.2979076  58.5926464
 103.4756838 129.9155622  69.9091225 103.1559623 129.0620930  69.6165599
 102.9290266 130.1304200  70.6649192 107.2536746 132.6318063  73.6260731
 107.4722756 133.5635171  73.6448765 107.6662520 132.2726037  74.4115535
 114.1740964 123.1386148  65.6136419 113.3641692 122.7933233  65.9891665
 114.8625381 122.8293692  66.2024031 116.1031512 122.2164195  67.2360716
 116.6562550 122.6359648  67.8950739 116.3401598 121.2899943  67.2783672
 112.1264611 128.2051269  83.0163480 112.0261338 129.1545626  82.9475571
 111.9086153 127.8769507  82.1439550 111.3277682 125.4536194  59.6004157
 112.1896846 125.7791092  59.8599975 111.5128027 124.6667690  59.0877223
 103.3445098 133.5358533  71.8784346 102.6508570 133.1212486  71.3654301
 104.0918089 133.5779070  71.2817765 119.4810319 124.3264720  66.7439380
 118.9008988 124.9849524  66.3617433 119.2146252 123.5042065  66.3326798
 117.9313885 123.7269778  68.9460701 118.4313664 123.8386312  68.1375019
 118.5749493 123.4230831  69.5861509 111.9895881 131.6348407  81.8328542
 111.5062963 132.4348768  82.0392431 112.0756820 131.6456352  80.8795986
 105.2581841 133.4676787  69.7550361 105.2352529 133.5664474  68.8032244
 105.5682477 134.3141938  70.0767527 107.9169219 135.5252942  73.8696975
 108.8712472 135.4936884  73.8026907 107.7181742 135.0643566  74.6847201
 108.5068601 134.0954058  76.4367773 109.3261490 134.5898137  76.4602610
 108.7805408 133.1786026  76.4085341 118.2635197 126.4864810  65.7995729
 117.3761052 126.7714461  65.5815923 118.6789186 126.3258574  64.9523005
 121.6149733 126.5111331  69.5150068 122.3910123 127.0007784  69.7874685
 120.8897867 126.9369386  69.9721937 124.0522292 127.2238951  70.5724008
 124.6466783 126.9834687  69.8617317 124.1248875 126.5046081  71.1997545
 106.2719447 141.0672562  70.8867173 106.1373915 140.3072962  70.3205171
 105.8551510 141.7913461  70.4195962 117.4078410 136.2509485  59.8943749
 118.1114261 136.4559488  60.5101404 116.6841059 136.8186247  60.1592832
 118.2376221 132.0019346  66.0146019 118.1811422 132.4587898  65.1753651
 118.7904563 131.2410031  65.8368861 122.0481027 127.7909078  66.8396138
 121.7917961 127.3905714  67.6704346 121.4233895 128.5052872  66.7146277
 126.3593365 130.5305152  69.3467430 125.7992922 130.5998341  70.1198992
 125.7536868 130.3546136  68.6266926 109.4288573 141.9641879  71.0985616
 109.3120957 142.9087311  70.9964306 108.6081020 141.6615440  71.4871415
 118.9711000 133.1924128  63.3098548 118.9159804 133.0268399  62.3686992
 118.3457055 133.9000161  63.4660738 103.7603515 128.4292192  77.1359970
 104.4062379 127.9191146  77.6247195 103.5520666 129.1660874  77.7103395
 116.2856907 135.4973039  82.6352111 117.1548067 135.6713692  82.2738746
 115.8063659 136.3167456  82.5127840 112.2807126 122.6932237  62.8883866
 112.2685795 123.6374077  63.0452137 113.1730547 122.5102382  62.5943328
 116.0959245 119.2875013  67.1429803 115.3291641 118.7333500  67.2886485
 116.5069950 119.3596882  68.0043955 108.1001006 125.5759809  81.2334984
 108.9632468 125.2196614  81.4438309 107.5266417 125.2373704  81.9210389
  41.2299348   1.5788447  58.7642692  41.8677758   1.4595194  58.0606032
  41.1120191   2.5269291  58.8230644  38.0389055   1.5315875  58.7004217
  37.7007566   1.4156939  57.8124752  38.9078823   1.1307040  58.6805223
  33.8975870   3.3851351  54.6901108  33.3340735   3.2941288  53.9217395
  33.7828265   2.5651256  55.1703600  38.5208838   2.6850726  64.6590422
  38.5097478   2.2903525  63.7870926  38.6829477   1.9516799  65.2524194
  31.4440302   4.8802543  57.5285328  32.2361594   4.5393367  57.1131627
  31.6836952   4.9897518  58.4487481  39.4775429   7.0522319  50.0015573
  38.8263409   7.6376399  49.6149586  40.2719792   7.5828514  50.0610610
  33.4031056   4.1411456  50.4002707  34.1761932   3.5940443  50.2615583
  33.7556455   5.0055705  50.6117168  35.2416099   5.4687838  63.6069606
  34.9505965   6.3733469  63.4916273  35.8773083   5.5104366  64.3213676
  36.1672306   2.8464687  60.1970966  36.7635878   2.6220709  59.4827929
  36.2247277   2.1049432  60.7996414  35.7397334   0.3004122  48.0321157
  35.9922855  -0.2214357  47.2704620  34.8021893   0.1370268  48.1347840
  40.7840617  -0.6960100  55.8395900  41.5703706  -1.1140676  55.4886317
  41.0479321   0.2085993  56.0077548  40.9550694   4.7412751  50.5384557
  40.3196527   4.8147377  51.2505461  40.6248101   5.3306350  49.8603636
  46.1849044  -0.7584866  56.7428879  46.9174216  -1.3285650  56.9766708
  45.4288400  -1.1463266  57.1835384  35.4593623   2.2032228  50.2345532
  35.3429881   1.5277131  50.9026616  35.5695883   1.7164602  49.4177685
  37.8025164   1.6642375  53.9392221  37.4383371   1.1372996  54.6505142
  38.6592280   1.2740844  53.7658706  43.7074464  -7.0463292  61.2023487
  43.3757789  -6.1767881  60.9784702  43.1120078  -7.3627008  61.8817518
  37.4430651  -3.3067725  48.9353570  37.6105053  -2.4387489  49.3024041
  37.2527820  -3.1440443  48.0114859  40.2005984   5.1549254  60.6019400
  39.9006707   6.0574293  60.4935207  39.8557043   4.8881437  61.4540553
  33.6518465   1.6063051  56.6356104  32.7268962   1.4739265  56.8433796
  33.9002878   2.3857270  57.1326047  43.6003128  -2.3268206  58.2816837
  42.6920005  -2.3952798  57.9875598  43.5490723  -1.8496261  59.1098663
  37.4219871  -0.8510068  49.9200236  37.3019497  -0.4053017  50.7585717
  36.7272460  -0.5024750  49.3613774  31.0127276   1.2496324  57.4699893
  31.1419657   1.5030803  58.3839305  30.3324728   1.8424032  57.1504548
  35.1826764  11.9193574  53.5690368  35.1050793  12.8701399  53.6478848
  34.5788407  11.5739447  54.2265294  37.6743993  -0.9078560  66.2251734
  36.8977327  -0.3484640  66.2154599  38.3134556  -0.4221777  66.7466605
  45.4664774  -4.1251768  60.0594711  44.8239154  -3.8319234  59.4134506
  44.9619703  -4.2398847  60.8647908  43.1204938  -0.3788594  50.7480570
  44.0322794  -0.1461208  50.5728268  42.6114585   0.2048450  50.1855649
  35.9290366   1.9006893  65.7869701  36.6705050   2.4391937  65.5104525
  35.2227351   2.5273182  65.9441253  41.4045705   4.0436033  64.3841863
  41.8129061   3.6018444  63.6396495  40.6822967   3.4688661  64.6376056
  37.7576775  -1.0191360  61.7575420  38.6037971  -0.5951946  61.9010069
  37.6975413  -1.6757736  62.4513983  41.7274520   4.6037224  58.1394152
  41.0983382   4.7682938  57.4370220  41.3400182   5.0178834  58.9105116
  45.6063752   5.5391662  55.4938516  44.9214790   5.9190563  54.9435549
  45.6907601   6.1486989  56.2270463  40.9076221  -3.3586991  63.4156594
  40.6637153  -2.6044931  62.8790869  41.1836151  -2.9801644  64.2503841
  42.8614683   3.1851621  62.0933859  43.0731579   3.8283381  61.4168240
  42.8144432   2.3513937  61.6255789  40.4640912  -4.2030558  58.9970431
  39.6025391  -3.9049305  59.2887169  40.4903347  -3.9860160  58.0651464
  37.2802482   4.3411632  55.4044237  37.7440827   4.6199335  54.6148859
  37.0159280   3.4395077  55.2217328  34.1726563   3.8883114  58.3424000
  34.7427920   4.3170382  57.7041485  34.7634675   3.6065698  59.0408186
  36.2171368   0.4634784  52.2133802  36.9195411   0.9155828  52.6807728
  35.8851996  -0.1781397  52.8413695  34.6651729  -0.9453459  66.5885011
  34.0350390  -0.2637178  66.8220408  34.5587817  -1.0570377  65.6438150
  43.9760511   6.0623576  60.2656216  44.7977955   5.6603764  59.9838898
  43.9722914   5.9591810  61.2172332  37.7417115   5.6107620  62.4216927
  37.8061547   6.0728027  63.2575099  37.0328039   4.9804985  62.5499237
  52.0666504   2.4062325  56.6141188  51.3130213   1.8369723  56.4585192
  52.2014046   2.3724989  57.5611823  37.4565132   7.2775727  52.2895907
  37.3210807   8.1227263  52.7180755  37.9974945   7.4795005  51.5261841
  30.9094530   4.7951165  52.8623832  31.4219050   5.5894415  53.0129397
  31.5617243   4.0977456  52.7957434  32.7189415   7.9116921  54.9446586
  32.8956043   8.8334886  54.7567569  33.5146248   7.5975341  55.3740965
  32.0041771  -0.0418447  64.8208749  31.8895286  -0.9433189  65.1215848
  31.1486289   0.2045250  64.4693565  39.0833609   7.8999294  66.4196249
  38.6397463   7.1135672  66.1017154  39.7450822   8.0878444  65.7540140
  33.8420730   9.4295095  60.9456928  34.3928155   9.3012159  60.1733922
  33.0032206   9.7289984  60.5951821  41.1814847   8.1802094  64.4477651
  41.1633322   9.0010975  63.9557920  42.1034767   8.0556169  64.6727792
  37.6387901   5.6946223  65.2901159  38.1716238   4.9334511  65.0600467
  37.1101982   5.4019875  66.0325314  28.8743447   3.1239819  53.6383403
  29.7118669   3.5336828  53.4217111  29.0521714   2.1839262  53.6083597
  40.7707879   0.7914900  49.3267236  40.2554502   1.5619505  49.5655623
  40.4985187   0.1180036  49.9500297  38.3554990  -4.3635399  54.3852474
  37.4996586  -4.7528549  54.2058113  38.7681942  -4.2843438  53.5252260
  45.7442153   3.5447255  51.2620409  44.9671596   3.2058414  50.8175571
  46.4233634   3.5499878  50.5875374  40.5594182  -1.3358008  51.1527017
  40.2544318  -1.0211859  52.0037160  41.5124624  -1.2576588  51.1954350
  39.0040614   4.8232215  52.8019971  38.4761975   4.0884975  52.4893208
  38.5028117   5.6006892  52.5559939  43.9833460   3.0181236  57.9187017
  43.3257134   3.7080497  58.0067146  44.7873859   3.4077668  58.2621004
  42.7938919   1.3725609  55.9690959  43.3070800   2.0055600  56.4712669
  43.4440143   0.7726804  55.6034319  34.0628929  -2.4843657  49.1822468
  33.2266241  -2.1468971  49.5031743  33.9233698  -2.6194677  48.2449605
  37.1493214   2.6412426  45.8054944  36.2420276   2.4101679  46.0046093
  37.6464246   1.8450045  45.9928926  40.0561293  11.3509933  48.7251630
  39.3822992  11.6541630  49.3336588  40.4427115  12.1539013  48.3757087
  39.2719749  -1.1524936  58.2149300  38.3542311  -0.9309989  58.0570988
  39.6879893  -1.0778625  57.3561007  40.0554797   0.2466480  53.3451980
  40.8026616   0.7587877  53.0359102  40.3246387  -0.0749467  54.2056373
  38.3281447   2.7425021  50.3278934  37.4192667   2.4584053  50.4251404
  38.3576531   3.1624099  49.4682241  43.5600715   6.3531610  54.0970102
  43.1063042   5.5122520  54.1535292  42.9294682   6.9893008  54.4344882
  42.5033634  -2.7176404  55.3270769  41.7656391  -3.2299018  55.6581012
  42.7560408  -3.1576022  54.5154046  42.0033654   8.1908107  55.0319920
  42.2956628   8.7513164  54.3132286  42.5132275   8.4836668  55.7873079
  36.8766341   0.3553641  56.4288730  36.9314951  -0.5972522  56.3531206
  36.0657543   0.5113080  56.9130028  38.0257535   4.2833764  47.6667013
  37.5876965   3.5669623  47.2072650  38.7667976   4.5109879  47.1052104
  34.8158701  -1.0269299  54.1879108  34.0026567  -0.7275128  54.5944301
  35.3117696  -1.4213610  54.9053591  36.9667279   8.9688458  56.1213373
  36.9243458   9.1949304  55.1921905  37.8829978   8.7351832  56.2699174
  40.4132913  -0.5627475  63.0194002  40.7682301  -0.3356001  63.8788468
  41.0605044  -0.2309098  62.3971258  46.1430650   2.5590961  53.7243331
  46.0048549   2.7492557  52.7964521  45.7866869   3.3210344  54.1811382
  46.1700030   4.6267488  58.7354603  46.6036536   4.5342777  59.5837657
  46.8831610   4.6024989  58.0974619  35.0833080   5.8451487  55.9175336
  35.8773679   5.3501807  55.7157911  34.3724772   5.3169350  55.5543041
  39.9027925   8.2269582  60.2687703  39.9564947   8.7960519  61.0365419
  39.0342706   8.3971467  59.9041741  31.3915844  -0.0105431  51.9935088
  30.4613432  -0.0720976  52.2105051  31.4873316  -0.5329479  51.1971730
  47.0315579   4.6691189  61.2687488  47.2251469   5.5736999  61.5146763
  46.9316197   4.2098608  62.1026073  38.6851890  -5.4450920  63.7677816
  38.0379805  -4.7460971  63.6742292  39.4552905  -5.0114777  64.1354064
  42.0930688   4.8197932  66.8428369  41.9416194   4.5908483  65.9258453
  42.0835367   5.7768533  66.8559714  38.8616024   2.3929844  61.8274635
  39.7908084   2.5441004  61.6543603  38.4407054   2.4813865  60.9723282
  37.6604356   6.4180509  59.5973173  37.5215442   6.0499293  60.4699111
  36.8718952   6.9328148  59.4257131  38.2552508  11.5189605  50.9398709
  38.4304264  11.0477649  51.7544332  37.5685296  12.1455372  51.1679970
  39.2109571   5.7962112  56.9862011  38.8759404   5.7562882  57.8819661
  38.7113517   5.1306828  56.5132421  33.1853815   1.2029742  62.5114592
  33.0473613   0.4709980  63.1126131  34.0958739   1.1138642  62.2298780
  42.1468763   3.1418146  47.2599070  41.5297933   2.4164974  47.1632123
  41.6785251   3.9027506  46.9166145  35.8136116   0.9149701  61.9998271
  36.5235734   0.2742893  61.9584890  35.7705424   1.1662596  62.9224452
  43.8022894   7.8517054  64.9204851  43.7435441   7.1676274  64.2535434
  44.2042413   8.5936044  64.4685477  34.5265050  -2.0985081  63.8193911
  33.9902407  -2.5494343  64.4715507  33.9381758  -1.9639172  63.0764375
  32.8213593  14.6678968  57.7138570  33.0610192  15.2997492  58.3917588
  31.9782790  14.3167008  58.0003929  43.8040302   5.8156638  63.1518830
  42.9167081   5.4782560  63.2745229  44.3738853   5.0839669  63.3887596
  37.3341455  10.4758091  60.1180074  37.2611627  11.2813062  60.6299378
  36.8918848  10.6750056  59.2928095  37.1231235   9.7129861  53.6282895
  36.3398757  10.2551541  53.7221120  37.8223980  10.2303840  54.0277136
  40.4327885  -4.4775510  56.2717101  40.9296584  -5.2305548  55.9518171
  39.6614866  -4.4411193  55.7060310  48.2857642   1.2264856  57.9135392
  48.2747519   2.1089571  57.5429325  47.4175022   0.8736406  57.7189929
  39.7940139  10.3744925  62.2738232  40.5068111  11.0092389  62.2014134
  39.3030167  10.4708791  61.4578234  41.5157666   4.2796177  53.8455524
  40.5813944   4.3997640  53.6760228  41.6934334   3.3768644  53.5815534
  37.0162854  -2.3358127  55.9988785  36.6460641  -2.8887087  56.6869691
  37.5121946  -2.9399993  55.4463785  44.9030217   0.1213497  54.3805558
  45.3690669   0.9541488  54.3065861  45.3537717  -0.3441522  55.0850817
  34.8452052   8.1239368  63.0943803  35.5461512   8.7575851  63.2473197
  34.3747167   8.4654100  62.3339442  42.9706448   6.4657318  51.3791710
  43.2466292   6.3513912  52.2885584  42.1010947   6.0674803  51.3403883
  42.8746880  -7.5105916  58.4196459  41.9609959  -7.2801690  58.5878666
  43.3039981  -7.4267472  59.2710492  42.6453338   0.6783976  60.9196353
  41.9924788   0.9259883  60.2648806  43.0233718  -0.1351886  60.5858831
  39.6060512  10.7143669  55.0224524  39.7882907   9.8965325  55.4852276
  40.4293498  10.9311361  54.5849414  39.9402678   9.6411854  52.2839572
  40.4690444   9.1304308  51.6709734  40.2030897   9.3254384  53.1485105
  38.6940911   1.4203787  67.4062391  38.0181548   1.3197916  68.0764766
  39.5168545   1.2643000  67.8698388  30.4419770   7.6575723  60.0274906
  31.0273207   6.9119411  60.1602810  30.2444609   7.9679680  60.9111570
  33.2958425  10.6926970  55.0437348  32.6268801  11.1773098  54.5601388
  33.1571295  10.9396191  55.9580727  37.4363694  12.7270714  61.6420006
  37.9882002  12.8902336  62.4069092  37.7769888  13.3175152  60.9700031
  42.2874568   7.5531972  67.4968661  42.8314472   8.1661930  67.0023616
  41.7061413   8.1111550  68.0135674  40.5732081  10.6752690  58.6283689
  40.4483221   9.8742429  58.1194634  41.2311172  11.1698883  58.1397659
  42.6366990   8.4761710  60.2563239  41.6897325   8.3567061  60.1841565
  42.9849763   7.5884208  60.3389500  39.6413423   8.2714426  56.4567591
  39.4938385   7.3431133  56.6375161  40.4666917   8.2934517  55.9724666
  43.2447545   9.0942985  57.5432464  44.1694092   8.8885846  57.4056915
  43.0762848   8.8459386  58.4521805  39.6374937  -3.8747737  51.4499708
  39.8538552  -2.9923099  51.1488536  39.1569005  -4.2661523  50.7205350
  34.3774159  -0.9162023  58.0270453  34.2318739  -0.6021720  58.9194734
  33.8999362  -0.2977123  57.4741351  38.0896672  -3.4922135  60.1204470
  37.8314450  -2.5705064  60.1188800  37.5581713  -3.8891701  60.8104934
  43.0342861   9.6128652  52.8994555  43.2079739   9.0475075  52.1468408
  43.5271752  10.4129547  52.7174045  28.8519821   1.6243321  60.9658114
  28.3073289   2.4003129  61.0978388  29.7299171   1.9714126  60.8077235
  48.8882252   2.3765075  54.5184855  49.3313398   1.6272400  54.1203978
  48.0108763   2.3675211  54.1358587  44.0218034   8.9295416  49.9991453
  44.7168938   9.5502109  50.2178768  44.3641184   8.0790768  50.2743831
  29.6385843   0.7513217  63.8588271  28.8967579   0.8995853  64.4452901
  29.3178587   1.0121483  62.9955020  45.9209457   6.3795122  51.5278784
  46.4460781   6.7182395  50.8028104  45.8331809   5.4442137  51.3441919
  37.5829505  10.2929196  63.6568661  37.8916632  10.0478342  64.5291360
  38.3804987  10.4975834  63.1687531  37.6050117  12.4467105  55.8874037
  37.1655108  11.9543484  56.5806894  38.3558234  11.9040073  55.6466113
  30.0842456   8.6378646  55.8898665  30.9100476   8.3382418  55.5097309
  29.7336508   7.8686269  56.3388454  35.0523990   7.9905114  57.9596339
  34.4303999   7.3275819  57.6598567  35.7228857   8.0166246  57.2769987
  28.2851061   6.5564973  56.8487599  27.4482970   6.1287147  56.6671600
  28.2574707   6.7497416  57.7858390  45.6103363   7.0128026  66.8329982
  44.8198906   6.9952164  66.2934482  45.3736717   7.5516319  67.5879019
  45.7301238   3.8620492  64.1462711  45.7799243   3.6970499  65.0878233
  45.6215161   2.9947751  63.7560591  34.6137497   6.5409038  51.4354800
  34.7625617   7.2244502  50.7821472  35.4203940   6.5214128  51.9504255
  43.0205000  -0.1548580  65.4622017  43.9214863  -0.2942115  65.1706015
  43.0952975   0.0105875  66.4020195  37.3547806  -2.7781725  64.3075204
  36.4851115  -2.4848159  64.0357792  37.5907286  -2.1941280  65.0282467
  47.2319435   6.2817433  64.3904732  46.9404243   6.6447414  65.2268193
  46.6191566   5.5684442  64.2118064  48.4315117   3.8470313  56.9107302
  49.2662008   4.2860117  57.0744863  48.5674246   3.3708966  56.0915548
  45.4806623   1.4050048  62.8584790  45.9560744   1.5977694  62.0503642
  44.5572188   1.4609234  62.6128174  32.3690129   2.5674215  52.4415869
  32.1236171   1.6636545  52.6396079  32.5386044   2.5691366  51.4995347
  40.0586839  -6.5602108  61.8240624  40.5768783  -5.8241081  61.4987113
  39.7041972  -6.2538115  62.6587383  38.1132902   9.0357168  48.9066547
  37.5406869   9.6547355  48.4537019  38.6865696   9.5856530  49.4406469
  44.1808292  -1.7184192  61.0913096  45.1325715  -1.6186094  61.1125320
  44.0111742  -2.5105923  61.6011180  42.2022671  -4.6328609  61.2772497
  41.6072603  -4.3523596  60.5818985  41.9172368  -4.1434708  62.0489238
  41.3330162   9.3194318  50.0375129  42.2660835   9.2539880  50.2408005
  41.2453375  10.1550585  49.5789662  43.9618178   8.6360189  46.9979077
  43.8831810   8.3020052  47.8914835  44.7827845   9.1281956  46.9970549
  46.6596370   1.5021928  60.2055395  46.6272690   0.5637929  60.3915079
  47.2696993   1.5805965  59.4721220  38.4979701   0.3717981  46.2482600
  39.4438805   0.2424189  46.3171018  38.1193945  -0.3667357  46.7252028
  46.8090858  -1.7067029  60.2513679  46.2929907  -2.4908572  60.0643608
  47.6930807  -2.0348312  60.4160198  44.4701585  -7.9626013  56.2109491
  44.2726406  -8.2710925  57.0952823  45.0801291  -7.2364374  56.3407421
  52.4772920   2.5637935  59.3461432  53.2076308   2.3023223  59.9069136
  51.8679865   1.8266657  59.3863500  50.5588217   0.7045797  59.9435883
  49.8321380   0.5701762  59.3352375  50.1435504   1.0122626  60.7492602
  38.3818393   4.4235727  67.7083257  39.3021403   4.6014326  67.9023303
  38.3467976   3.4791772  67.5562956  36.6822618  -1.7032043  46.1837485
  35.7754073  -1.9998930  46.2600198  36.9598599  -2.0002225  45.3171771
  31.3780466   2.3336762  60.3506038  31.5966475   3.2653869  60.3694071
  31.7906239   1.9744736  61.1360842  36.2508331  -2.0930033  69.7408787
  36.1505058  -1.1435676  69.6720878  36.0329873  -2.4211794  68.8684857
  27.4688818   3.2377232  58.6029653  26.7752290   2.8231185  58.0899607
  28.2161809   3.2797769  58.0063072  43.6054039  -5.9716581  53.4684687
  43.0252708  -5.3131777  53.0862739  43.3389971  -6.7939236  53.0572104
  42.0557605  -6.5711523  55.6706007  42.5557384  -6.4594989  54.8620326
  42.6993213  -6.8750471  56.3106816  36.1139601   1.3367106  68.5573848
  35.6306683   2.1367466  68.7637737  36.2000540   1.3475051  67.6041292
  29.3825561   3.1695486  56.4795668  29.3596249   3.2683173  55.5277551
  29.6926197   4.0160637  56.8012834  32.0412938   5.2271641  60.5942282
  32.9956192   5.1955583  60.5272214  31.8425462   4.7662265  61.4092508
  32.6312321   3.7972757  63.1613080  33.4505210   4.2916836  63.1847917
  32.9049128   2.8804725  63.1330647  42.3878917  -3.8116491  52.5241035
  41.5004772  -3.5266840  52.3061230  42.8032906  -3.9722727  51.6768312
  45.7393453  -3.7869970  56.2395374  46.5153843  -3.2973517  56.5119991
  45.0141587  -3.3611916  56.6967244  48.1766012  -3.0742350  57.2969315
  48.7710502  -3.3146615  56.5862623  48.2492595  -3.7935220  57.9242851
  30.3963167  10.7691260  57.6112480  30.2617635  10.0091661  57.0450478
  29.9795230  11.4932160  57.1441269  41.5322130   5.9528184  46.6189055
  42.2357980   6.1578186  47.2346711  40.8084779   6.5204946  46.8838139
  42.3619941   1.7038045  52.7391325  42.3055142   2.1606597  51.8998958
  42.9148283   0.9428730  52.5614168  46.1724746  -2.5072223  53.5641445
  45.9161681  -2.9075587  54.3949653  45.5477615  -1.7928429  53.4391584
  50.4837084   0.2323850  56.0712736  49.9236642   0.3017040  56.8444298
  49.8780588   0.0564835  55.3512233  33.5532293  11.6660577  57.8230923
  33.4364677  12.6106010  57.7209613  32.7324739  11.3634139  58.2116722
  43.4408828   6.3910713  48.6687515  44.2754432   5.9591912  48.4864990
  43.2793171   6.2192727  49.5964410  43.0954720   2.8942826  50.0343855
  43.0403524   2.7287098  49.0932299  42.4700775   3.6018859  50.1906044
  40.4100627   5.1991738  69.3597417  41.2791787   5.3732391  68.9984052
  39.9307379   6.0186155  69.2373147  34.5786807  12.3188839  61.0386851
  35.4814054  12.3512450  61.3553346  34.3524177  11.3889290  61.0533187
  36.3340409  11.0719826  57.6996930  35.3836040  11.0721688  57.5861302
  36.6372895  10.3252560  57.1832964  52.0693103  16.9080364  58.7642692
  52.7071513  16.7887112  58.0606032  51.9513946  17.8561208  58.8230644
  48.8782809  16.8607792  58.7004217  48.5401321  16.7448857  57.8124752
  49.7472577  16.4598957  58.6805223  44.7369625  18.7143269  54.6901108
  44.1734490  18.6233206  53.9217395  44.6222020  17.8943173  55.1703600
  49.3602592  18.0142644  64.6590422  49.3491233  17.6195442  63.7870926
  49.5223232  17.2808717  65.2524194  42.2834057  20.2094460  57.5285328
  43.0755349  19.8685285  57.1131627  42.5230707  20.3189435  58.4487481
  50.3169183  22.3814237  50.0015573  49.6657163  22.9668317  49.6149586
  51.1113546  22.9120431  50.0610610  44.2424811  19.4703374  50.4002707
  45.0155687  18.9232361  50.2615583  44.5950209  20.3347623  50.6117168
  46.0809853  20.7979756  63.6069606  45.7899719  21.7025387  63.4916273
  46.7166838  20.8396284  64.3213676  47.0066060  18.1756604  60.1970966
  47.6029632  17.9512627  59.4827929  47.0641032  17.4341350  60.7996414
  46.5791088  15.6296040  48.0321157  46.8316609  15.1077561  47.2704620
  45.6415648  15.4662185  48.1347840  51.6234371  14.6331818  55.8395900
  52.4097460  14.2151241  55.4886317  51.8873076  15.5377910  56.0077548
  51.7944449  20.0704668  50.5384557  51.1590282  20.1439295  51.2505461
  51.4641855  20.6598267  49.8603636  57.0242798  14.5707051  56.7428879
  57.7567970  14.0006268  56.9766708  56.2682154  14.1828652  57.1835384
  46.2987377  17.5324146  50.2345532  46.1823635  16.8569049  50.9026616
  46.4089637  17.0456520  49.4177685  48.6418918  16.9934293  53.9392221
  48.2777125  16.4664914  54.6505142  49.4986034  16.6032762  53.7658706
  54.5468219   8.2828625  61.2023487  54.2151544   9.1524036  60.9784702
  53.9513832   7.9664909  61.8817518  48.2824405  12.0224193  48.9353570
  48.4498807  12.8904429  49.3024041  48.0921574  12.1851474  48.0114859
  51.0399738  20.4841171  60.6019400  50.7400461  21.3866210  60.4935207
  50.6950798  20.2173355  61.4540553  44.4912220  16.9354968  56.6356104
  43.5662716  16.8031182  56.8433796  44.7396633  17.7149188  57.1326047
  54.4396882  13.0023712  58.2816837  53.5313759  12.9339120  57.9875598
  54.3884478  13.4795657  59.1098663  48.2613626  14.4781850  49.9200236
  48.1413251  14.9238901  50.7585717  47.5666214  14.8267168  49.3613774
  41.8521031  16.5788242  57.4699893  41.9813412  16.8322721  58.3839305
  41.1718482  17.1715950  57.1504548  46.0220518  27.2485492  53.5690368
  45.9444548  28.1993317  53.6478848  45.4182162  26.9031364  54.2265294
  48.5137748  14.4213357  66.2251734  47.7371082  14.9807277  66.2154599
  49.1528311  14.9070140  66.7466605  56.3058528  11.2040150  60.0594711
  55.6632909  11.4972683  59.4134506  55.8013457  11.0893070  60.8647908
  53.9598692  14.9503323  50.7480570  54.8716548  15.1830710  50.5728268
  53.4508339  15.5340367  50.1855649  46.7684120  17.2298811  65.7869701
  47.5098805  17.7683855  65.5104525  46.0621106  17.8565099  65.9441253
  52.2439460  19.3727951  64.3841863  52.6522816  18.9310362  63.6396495
  51.5216721  18.7980579  64.6376056  48.5970530  14.3100558  61.7575420
  49.4431725  14.7339971  61.9010069  48.5369168  13.6534182  62.4513983
  52.5668274  19.9329142  58.1394152  51.9377137  20.0974856  57.4370220
  52.1793937  20.3470751  58.9105116  56.4457506  20.8683580  55.4938516
  55.7608544  21.2482481  54.9435549  56.5301356  21.4778906  56.2270463
  51.7469975  11.9704926  63.4156594  51.5030907  12.7246987  62.8790869
  52.0229906  12.3490274  64.2503841  53.7008438  18.5143539  62.0933859
  53.9125333  19.1575298  61.4168240  53.6538186  17.6805855  61.6255789
  51.3034667  11.1261359  58.9970431  50.4419146  11.4242613  59.2887169
  51.3297102  11.3431758  58.0651464  48.1196236  19.6703550  55.4044237
  48.5834582  19.9491253  54.6148859  47.8553034  18.7686994  55.2217328
  45.0120317  19.2175031  58.3424000  45.5821674  19.6462300  57.7041485
  45.6028429  18.9357616  59.0408186  47.0565122  15.7926702  52.2133802
  47.7589166  16.2447746  52.6807728  46.7245751  15.1510521  52.8413695
  45.5045484  14.3838459  66.5885011  44.8744144  15.0654740  66.8220408
  45.3981572  14.2721540  65.6438150  40.7990456  14.0510255  57.5150936
  40.0089510  14.3067783  57.0391046  41.2901704  14.8658593  57.6202976
  54.8154266  21.3915494  60.2656216  55.6371710  20.9895681  59.9838898
  54.8116669  21.2883728  61.2172332  42.7505202  14.4154834  54.4734412
  41.9536365  14.5273528  54.9917908  42.5230794  14.7541486  53.6075303
  48.5810869  20.9399537  62.4216927  48.6455302  21.4019945  63.2575099
  47.8721793  20.3096902  62.5499237  39.0828159  14.3040745  59.9465926
  39.3336198  15.1887755  60.2123502  39.6187708  14.1245347  59.1741018
  62.9060259  17.7354242  56.6141188  62.1523967  17.1661641  56.4585192
  63.0407800  17.7016907  57.5611823  48.2958887  22.6067645  52.2895907
  48.1604562  23.4519180  52.7180755  48.8368699  22.8086922  51.5261841
  44.7826227   8.6859225  68.9510263  44.3893172   8.1325423  69.6257907
  45.5992367   8.9969803  69.3416780  41.7488284  20.1243083  52.8623832
  42.2612805  20.9186333  53.0129397  42.4010997  19.4269373  52.7957434
  43.5583169  23.2408839  54.9446586  43.7349797  24.1626804  54.7567569
  44.3540003  22.9267258  55.3740965  47.6994188  10.1017104  66.5430519
  48.4403901  10.7024257  66.4634982  47.9312110   9.3594741  65.9848562
  42.8435526  15.2873471  64.8208749  42.7289041  14.3858728  65.1215848
  41.9880043  15.5337168  64.4693565  49.9227363  23.2291211  66.4196249
  49.4791218  22.4427590  66.1017154  50.5844577  23.4170362  65.7540140
  44.6814485  24.7587013  60.9456928  45.2321910  24.6304076  60.1733922
  43.8425960  25.0581902  60.5951821  52.0208601  23.5094011  64.4477651
  52.0027077  24.3302892  63.9557920  52.9428521  23.3848086  64.6727792
  48.4781656  21.0238141  65.2901159  49.0109992  20.2626429  65.0600467
  47.9495737  20.7311792  66.0325314  51.6451351   6.1298207  60.8194801
  51.3015620   7.0199848  60.7433911  52.0130313   5.9399864  59.9564386
  39.7137201  18.4531737  53.6383403  40.5512423  18.8628745  53.4217111
  39.8915469  17.5131179  53.6083597  51.6101633  16.1206818  49.3267236
  51.0948257  16.8911422  49.5655623  51.3378942  15.4471954  49.9500297
  49.1948744  10.9656519  54.3852474  48.3390341  10.5763369  54.2058113
  49.6075696  11.0448479  53.5252260  50.7247891   8.5002862  58.7844034
  50.2212687   8.4632997  57.9711839  51.0178498   9.4095605  58.8440691
  46.9690777   8.5841592  57.7910216  47.8343774   8.3884400  57.4316105
  47.0368286   8.3551943  58.7179573  56.5835907  18.8739172  51.2620409
  55.8065350  18.5350332  50.8175571  57.2627388  18.8791796  50.5875374
  51.3987936  13.9933910  51.1527017  51.0938072  14.3080059  52.0037160
  52.3518379  14.0715330  51.1954350  49.8434368  20.1524133  52.8019971
  49.3155730  19.4176893  52.4893208  49.3421871  20.9298810  52.5559939
  54.8227214  18.3473154  57.9187017  54.1650889  19.0372415  58.0067146
  55.6267614  18.7369586  58.2621004  44.5753096  10.8143799  55.1626583
  45.1496848  10.5918981  54.4299776  45.1624078  10.8832494  55.9155184
  53.6332673  16.7017526  55.9690959  54.1464555  17.3347518  56.4712669
  54.2833897  16.1018722  55.6034319  44.9022683  12.8448260  49.1822468
  44.0659995  13.1822947  49.5031743  44.7627453  12.7097240  48.2449605
  46.8775764   7.6885048  53.8901652  46.2240176   7.3734066  53.2658267
  46.8356238   7.0660789  54.6161475  47.9886968  17.9704343  45.8054944
  47.0814030  17.7393597  46.0046093  48.4858000  17.1741963  45.9928926
  50.8955047  26.6801851  48.7251630  50.2216746  26.9833547  49.3336588
  51.2820869  27.4830931  48.3757087  50.1113504  14.1766982  58.2149300
  49.1936065  14.3981929  58.0570988  50.5273648  14.2513292  57.3561007
  50.8948552  15.5758398  53.3451980  51.6420371  16.0879795  53.0359102
  51.1640141  15.2542450  54.2056373  49.1675202  18.0716938  50.3278934
  48.2586421  17.7875971  50.4251404  49.1970286  18.4916017  49.4682241
  54.3994469  21.6823528  54.0970102  53.9456796  20.8414438  54.1535292
  53.7688436  22.3184926  54.4344882  53.3427389  12.6115514  55.3270769
  52.6050146  12.0992900  55.6581012  53.5954162  12.1715895  54.5154046
  52.8427409  23.5200024  55.0319920  53.1350383  24.0805082  54.3132286
  53.3526029  23.8128585  55.7873079  53.4439016   5.3891766  55.9212538
  53.7497893   4.5289129  55.6338454  54.1691621   5.9809386  55.7211532
  39.7363372  15.7922452  54.3094136  39.5387772  15.1991813  53.5845203
  39.1810036  15.4874663  55.0270075  47.7160096  15.6845559  56.4288730
  47.7708706  14.7319395  56.3531206  46.9051298  15.8404998  56.9130028
  48.8651290  19.6125682  47.6667013  48.4270720  18.8961541  47.2072650
  49.6061731  19.8401797  47.1052104  45.6552456  14.3022619  54.1879108
  44.8420321  14.6016789  54.5944301  46.1511450  13.9078307  54.9053591
  47.8061034  24.2980376  56.1213373  47.7637213  24.5241222  55.1921905
  48.7223733  24.0643750  56.2699174  51.2526668  14.7664443  63.0194002
  51.6076055  14.9935916  63.8788468  51.8998799  15.0982820  62.3971258
  56.9824404  17.8882879  53.7243331  56.8442303  18.0784475  52.7964521
  56.6260623  18.6502262  54.1811382  45.1466531  11.8740974  59.8040343
  45.7865910  11.7329733  59.1063307  44.3144061  11.5875488  59.4278945
  57.0093784  19.9559406  58.7354603  57.4430291  19.8634695  59.5837657
  57.7225365  19.9316906  58.0974619  45.9226835  21.1743405  55.9175336
  46.7167433  20.6793725  55.7157911  45.2118527  20.6461268  55.5543041
  50.7421679  23.5561500  60.2687703  50.7958701  24.1252436  61.0365419
  49.8736460  23.7263385  59.9041741  42.2309598  15.3186486  51.9935088
  41.3007186  15.2570942  52.2105051  42.3267070  14.7962439  51.1971730
  42.1495147  11.8441299  54.5813330  42.4101964  12.7586632  54.4722491
  42.9712319  11.3765742  54.7309943  43.6220072  13.2579056  61.7512155
  44.2943126  13.0496418  61.1024804  42.7949859  13.0601142  61.3117387
  57.8709334  19.9983107  61.2687488  58.0645224  20.9028917  61.5146763
  57.7709952  19.5390526  62.1026073  49.5245644   9.8840997  63.7677816
  48.8773559  10.5830947  63.6742292  50.2946660  10.3177141  64.1354064
  52.9324442  20.1489849  66.8428369  52.7809949  19.9200401  65.9258453
  52.9229122  21.1060451  66.8559714  49.7009779  17.7221762  61.8274635
  50.6301839  17.8732922  61.6543603  49.2800809  17.8105783  60.9723282
  48.4998111  21.7472427  59.5973173  48.3609196  21.3791211  60.4699111
  47.7112707  22.2620066  59.4257131  49.0946263  26.8481523  50.9398709
  49.2698018  26.3769566  51.7544332  48.4079051  27.4747289  51.1679970
  50.0503326  21.1254029  56.9862011  49.7153158  21.0854799  57.8819661
  49.5507271  20.4598745  56.5132421  44.0247570  16.5321659  62.5114592
  43.8867368  15.8001898  63.1126131  44.9352493  16.4430559  62.2298780
  52.9862517  18.4710064  47.2599070  52.3691688  17.7456892  47.1632123
  52.5179006  19.2319424  46.9166145  46.6529870  16.2441619  61.9998271
  47.3629489  15.6034811  61.9584890  46.6099178  16.4954513  62.9224452
  54.6416649  23.1808972  64.9204851  54.5829195  22.4968192  64.2535434
  55.0436167  23.9227962  64.4685477  45.3658804  13.2306836  63.8193911
  44.8296161  12.7797575  64.4715507  44.7775513  13.3652745  63.0764375
  43.6607348  29.9970886  57.7138570  43.9003946  30.6289410  58.3917588
  42.8176544  29.6458926  58.0003929  44.7761063  12.6895488  46.3820375
  43.8990530  12.5684289  46.0182621  45.2518816  11.8981566  46.1299263
  54.6434056  21.1448556  63.1518830  53.7560835  20.8074478  63.2745229
  55.2132607  20.4131587  63.3887596  36.2963203  17.4772648  56.4761882
  36.9834243  17.1634378  55.8882897  36.1411332  18.3814012  56.2029133
  41.0997926  12.3662844  60.9046905  41.0156114  11.7588514  60.1697315
  40.2780632  12.8571863  60.9056402  48.1735210  25.8050008  60.1180074
  48.1005381  26.6104980  60.6299378  47.7312603  26.0041974  59.2928095
  47.9624989  25.0421778  53.6282895  47.1792511  25.5843458  53.7221120
  48.6617734  25.5595758  54.0277136  51.2721639  10.8516408  56.2717101
  51.7690339  10.0986370  55.9518171  50.5008621  10.8880724  55.7060310
  59.1251397  16.5556773  57.9135392  59.1141273  17.4381489  57.5429325
  58.2568776  16.2028324  57.7189929  50.6333893  25.7036842  62.2738232
  51.3461865  26.3384307  62.2014134  50.1423922  25.8000708  61.4578234
  52.3551420  19.6088095  53.8455524  51.4207699  19.7289557  53.6760228
  52.5328089  18.7060562  53.5815534  47.8556608  12.9933791  55.9988785
  47.4854396  12.4404831  56.6869691  48.3515701  12.3891924  55.4463785
  55.7423971  15.4505414  54.3805558  56.2084424  16.2833406  54.3065861
  56.1931472  14.9850396  55.0850817  45.6845807  23.4531286  63.0943803
  46.3855266  24.0867769  63.2473197  45.2140922  23.7946017  62.3339442
  53.8100203  21.7949236  51.3791710  54.0860046  21.6805830  52.2885584
  52.9404701  21.3966720  51.3403883  53.7140634   7.8186001  58.4196459
  52.8003714   8.0490228  58.5878666  54.1433736   7.9024445  59.2710492
  53.4847093  16.0075893  60.9196353  52.8318543  16.2551801  60.2648806
  53.8627473  15.1940031  60.5858831  50.4454267  26.0435586  55.0224524
  50.6276661  25.2257242  55.4852276  51.2687253  26.2603279  54.5849414
  50.7796432  24.9703771  52.2839572  51.3084198  24.4596226  51.6709734
  51.0424652  24.6546302  53.1485105  49.5334666  16.7495704  67.4062391
  48.8575303  16.6489834  68.0764766  50.3562300  16.5934918  67.8698388
  41.2813525  22.9867641  60.0274906  41.8666962  22.2411329  60.1602810
  41.0838363  23.2971597  60.9111570  44.1352180  26.0218888  55.0437348
  43.4662555  26.5065016  54.5601388  43.9965050  26.2688109  55.9580727
  35.8731180  15.5573241  58.7479349  35.9115279  15.0236832  59.5416467
  35.3671472  15.0308447  58.1290326  48.2757449  28.0562632  61.6420006
  48.8275757  28.2194253  62.4069092  48.6163642  28.6467070  60.9700031
  43.2521942  10.4037781  62.2441891  43.3163268  11.2652612  61.8319289
  43.1889062   9.7911783  61.5114250  42.7274214  12.4760914  65.8914925
  43.3546253  12.0937991  66.5052450  41.8702133  12.2575116  66.2570618
  53.1268323  22.8823889  67.4968661  53.6708227  23.4953847  67.0023616
  52.5455168  23.4403468  68.0135674  39.5039757  14.2837343  51.8233280
  39.7993198  13.3748022  51.7700334  38.6027793  14.2625083  51.5014283
  51.4125836  26.0044607  58.6283689  51.2876975  25.2034347  58.1194634
  52.0704927  26.4990801  58.1397659  43.0334004  12.3593340  57.8060829
  42.3120590  12.9729307  57.6668302  43.8227260  12.8951105  57.7277475
  53.4760744  23.8053627  60.2563239  52.5291080  23.6858978  60.1841565
  53.8243517  22.9176125  60.3389500  45.8360318   9.6947766  64.0801481
  46.3594719   9.9410063  64.8427790  45.6172651  10.5267801  63.6604618
  41.2327599  11.9651441  51.9472605  40.9040305  11.0848820  51.7647711
  41.5866969  11.9099110  52.8348995  50.4807178  23.6006344  56.4567591
  50.3332140  22.6723051  56.6375161  51.3060671  23.6226434  55.9724666
  44.3469422  12.2524411  52.3148083  44.6865494  12.7810332  51.5926691
  44.7941542  12.5904817  53.0906650  54.0841299  24.4234902  57.5432464
  55.0087847  24.2177764  57.4056915  53.9156603  24.1751303  58.4521805
  47.0412863  10.6361461  61.7651151  46.7009683   9.8369274  62.1671831
  46.3351869  10.9363172  61.1927984  47.6929334   7.7210774  60.2178474
  48.5155404   7.2471252  60.0957365  47.9367398   8.5001258  60.7177160
  46.3337569  10.7499032  50.5141376  47.0545931  11.1280285  50.0105093
  45.7102873  11.4687909  50.6176354  50.4768692  11.4544181  51.4499708
  50.6932306  12.3368819  51.1488536  49.9962759  11.0630395  50.7205350
  45.2167913  14.4129894  58.0270453  45.0712494  14.7270197  58.9194734
  44.7393117  15.0314795  57.4741351  47.0764296  11.4032442  58.0751342
  47.0625865  10.5073536  57.7383640  47.7936724  11.4103106  58.7089628
  48.9290427  11.8369783  60.1204470  48.6708205  12.7586853  60.1188800
  48.3975467  11.4400217  60.8104934  53.8736616  24.9420570  52.8994555
  54.0473493  24.3766992  52.1468408  54.3665507  25.7421465  52.7174045
  39.6913575  16.9535239  60.9658114  39.1467043  17.7295047  61.0978388
  40.5692925  17.3006043  60.8077235  46.4801192  10.2846823  53.3438912
  46.6017103   9.3563469  53.5429800  46.1903234  10.2985509  52.4317228
  49.3492382   7.9701733  56.4805632  49.3714079   8.0341066  55.5257612
  49.7660441   7.1306242  56.6746138  59.7276007  17.7056993  54.5184855
  60.1707153  16.9564318  54.1203978  58.8502517  17.6967129  54.1358587
  54.8611788  24.2587334  49.9991453  55.5562693  24.8794027  50.2178768
  55.2034938  23.4082685  50.2743831  40.4779597  16.0805135  63.8588271
  39.7361333  16.2287770  64.4452901  40.1572342  16.3413401  62.9955020
  56.7603211  21.7087040  51.5278784  57.2854535  22.0474312  50.8028104
  56.6725564  20.7734055  51.3441919  48.4223260  25.6221113  63.6568661
  48.7310386  25.3770260  64.5291360  49.2198742  25.8267752  63.1687531
  48.4443872  27.7759023  55.8874037  48.0048862  27.2835402  56.5806894
  49.1951989  27.2331991  55.6466113  40.9236211  23.9670564  55.8898665
  41.7494231  23.6674336  55.5097309  40.5730263  23.1978186  56.3388454
  45.8917744  23.3197032  57.9596339  45.2697753  22.6567737  57.6598567
  46.5622611  23.3458164  57.2769987  39.1244816  21.8856890  56.8487599
  38.2876724  21.4579065  56.6671600  39.0968461  22.0789334  57.7858390
  45.9642272  11.7978820  67.5528845  46.0130427  12.6740943  67.1706615
  46.5064786  11.2556213  66.9800488  56.4497117  22.3419943  66.8329982
  55.6592661  22.3244082  66.2934482  56.2130472  22.8808237  67.5879019
  56.5694992  19.1912410  64.1462711  56.6192997  19.0262417  65.0878233
  56.4608916  18.3239669  63.7560591  45.4531251  21.8700955  51.4354800
  45.6019371  22.5536420  50.7821472  46.2597694  21.8506045  51.9504255
  53.8598755  15.1743338  65.4622017  54.7608617  15.0349803  65.1706015
  53.9346729  15.3397793  66.4020195  48.1941560  12.5510192  64.3075204
  47.3244869  12.8443758  64.0357792  48.4301040  13.1350637  65.0282467
  58.0713189  21.6109351  64.3904732  57.7797997  21.9739332  65.2268193
  57.4585320  20.8976359  64.2118064  59.2708871  19.1762231  56.9107302
  60.1055763  19.6152035  57.0744863  59.4068000  18.7000884  56.0915548
  56.3200377  16.7341966  62.8584790  56.7954499  16.9269612  62.0503642
  55.3965943  16.7901152  62.6128174  43.2083884  17.8966133  52.4415869
  42.9629926  16.9928463  52.6396079  43.3779799  17.8983283  51.4995347
  50.8980594   8.7689809  61.8240624  51.4162538   9.5050836  61.4987113
  50.5435727   9.0753803  62.6587383  42.4779532  13.6294491  49.9402030
  41.7848776  13.7038846  49.2842066  42.2331283  12.8654834  50.4623547
  51.1493188   5.1890092  57.3441521  51.4294942   4.5213281  57.9701947
  51.9343795   5.3819188  56.8316185  48.9526657  24.3649086  48.9066547
  48.3800624  24.9839273  48.4537019  49.5259450  24.9148447  49.4406469
  55.0202046  13.6107726  61.0913096  55.9719469  13.7105824  61.1125320
  54.8505497  12.8185994  61.6011180  53.0416426  10.6963309  61.2772497
  52.4466358  10.9768322  60.5818985  52.7566123  11.1857210  62.0489238
  52.1723916  24.6486236  50.0375129  53.1054589  24.5831798  50.2408005
  52.0847129  25.4842503  49.5789662  54.8011933  23.9652106  46.9979077
  54.7225565  23.6311970  47.8914835  55.6221600  24.4573874  46.9970549
  57.4990124  16.8313846  60.2055395  57.4666444  15.8929846  60.3915079
  58.1090748  16.9097882  59.4721220  49.3373455  15.7009899  46.2482600
  50.2832560  15.5716107  46.3171018  48.9587700  14.9624560  46.7252028
  57.6484613  13.6224889  60.2513679  57.1323661  12.8383346  60.0643608
  58.5324561  13.2943606  60.4160198  55.3095340   7.3665905  56.2109491
  55.1120161   7.0580993  57.0952823  55.9195045   8.0927543  56.3407421
  63.3166674  17.8929852  59.3461432  64.0470062  17.6315141  59.9069136
  62.7073619  17.1558574  59.3863500  61.3981971  16.0337715  59.9435883
  60.6715135  15.8993680  59.3352375  60.9829258  16.3414544  60.7492602
  49.2212148  19.7527645  67.7083257  50.1415157  19.9306244  67.9023303
  49.1861731  18.8083690  67.5562956  47.5216372  13.6259875  46.1837485
  46.6147828  13.3292988  46.2600198  47.7992353  13.3289693  45.3171771
  38.4394313  14.9466238  56.6336531  38.1197097  14.0931547  56.3410905
  37.8927741  15.1614816  57.3894498  42.2174220  17.6628679  60.3506038
  42.4360230  18.5945787  60.3694071  42.6299994  17.3036654  61.1360842
  49.1378438   8.1696765  52.3381726  48.3279166   7.8243850  52.7136972
  49.8262855   7.8604308  52.9269338  51.0668986   7.2474811  53.9606023
  51.6200025   7.6670265  54.6196046  51.3039073   6.3210560  54.0028979
  47.0902085  13.2361885  69.7408787  46.9898812  14.1856242  69.6720878
  46.8723627  12.9080124  68.8684857  46.2915157  10.4846810  46.3249464
  47.1534321  10.8101708  46.5845281  46.4765501   9.6978306  45.8122530
  38.3082573  18.5669150  58.6029653  37.6146044  18.1523103  58.0899607
  39.0555564  18.6089686  58.0063072  54.4447793   9.3575337  53.4684687
  53.8646462  10.0160141  53.0862739  54.1783726   8.5352681  53.0572104
  52.8951360   8.7580394  55.6706007  53.3951138   8.8696929  54.8620326
  53.5386968   8.4541447  56.3106816  46.9533355  16.6659024  68.5573848
  46.4700437  17.4659384  68.7637737  47.0394295  16.6766969  67.6041292
  40.2219315  18.4987404  56.4795668  40.1990003  18.5975091  55.5277551
  40.5319952  19.3452554  56.8012834  42.8806693  20.5563559  60.5942282
  43.8349947  20.5247501  60.5272214  42.6819217  20.0954182  61.4092508
  43.4706075  19.1264675  63.1613080  44.2898964  19.6208753  63.1847917
  43.7442883  18.2096643  63.1330647  53.2272671  11.5175427  52.5241035
  52.3398526  11.8025078  52.3061230  53.6426660  11.3569190  51.6768312
  56.5787207  11.5421948  56.2395374  57.3547598  12.0318400  56.5119991
  55.8535342  11.9680002  56.6967244  59.0159766  12.2549567  57.2969315
  59.6104257  12.0145303  56.5862623  59.0886350  11.5356698  57.9242851
  41.2356922  26.0983178  57.6112480  41.1011390  25.3383579  57.0450478
  40.8188984  26.8224078  57.1441269  52.3715885  21.2820102  46.6189055
  53.0751735  21.4870104  47.2346711  51.6478534  21.8496864  46.8838139
  53.2013695  17.0329963  52.7391325  53.1448896  17.4898514  51.8998958
  53.7542038  16.2720648  52.5614168  57.0118501  12.8219695  53.5641445
  56.7555435  12.4216330  54.3949653  56.3871369  13.5363489  53.4391584
  61.3230839  15.5615768  56.0712736  60.7630397  15.6308957  56.8444298
  60.7174342  15.3856753  55.3512233  44.3926048  26.9952495  57.8230923
  44.2758432  27.9397928  57.7209613  43.5718494  26.6926057  58.2116722
  54.2802582  21.7202631  48.6687515  55.1148186  21.2883829  48.4864990
  54.1186925  21.5484645  49.5964410  53.9348474  18.2234744  50.0343855
  53.8797278  18.0579016  49.0932299  53.3094530  18.9310777  50.1906044
  38.7240989  13.4602809  63.8605277  39.3699853  12.9501763  64.3492502
  38.5158140  14.1971490  64.4348702  51.2494382  20.5283656  69.3597417
  52.1185541  20.7024308  68.9984052  50.7701133  21.3478073  69.2373147
  47.2444600   7.7242853  49.6129173  47.2323270   8.6684693  49.7697444
  48.1368022   7.5412999  49.3188634  45.4180562  27.6480757  61.0386851
  46.3207808  27.6804367  61.3553346  45.1917932  26.7181208  61.0533187
  47.1734164  26.4011744  57.6996930  46.2229795  26.4013605  57.5861302
  47.4766650  25.6544478  57.1832964  51.0596719   4.3185630  53.8675110
  50.2929115   3.7644117  54.0131792  51.4707424   4.3907499  54.7289261
  43.0638480  10.6070426  67.9580291  43.9269942  10.2507230  68.1683616
  42.4903891  10.2684320  68.6455695  62.9086857  32.2372282  58.7642692
  63.5465267  32.1179029  58.0606032  62.7907700  33.1853126  58.8230644
  59.7176564  32.1899710  58.7004217  59.3795075  32.0740775  57.8124752
  60.5866332  31.7890875  58.6805223  55.5763379  34.0435186  54.6901108
  55.0128244  33.9525123  53.9217395  55.4615774  33.2235091  55.1703600
  60.1996347  33.3434562  64.6590422  60.1884987  32.9487360  63.7870926
  60.3616986  32.6100634  65.2524194  53.1227811  35.5386378  57.5285328
  53.9149103  35.1977203  57.1131627  53.3624461  35.6481353  58.4487481
  61.1562938  37.7106154  50.0015573  60.5050918  38.2960235  49.6149586
  61.9507301  38.2412349  50.0610610  55.0818565  34.7995291  50.4002707
  55.8549441  34.2524278  50.2615583  55.4343964  35.6639541  50.6117168
  56.9203608  36.1271674  63.6069606  56.6293474  37.0317304  63.4916273
  57.5560592  36.1688201  64.3213676  57.8459815  33.5048522  60.1970966
  58.4423387  33.2804545  59.4827929  57.9034786  32.7633268  60.7996414
  57.4184843  30.9587957  48.0321157  57.6710364  30.4369479  47.2704620
  56.4809402  30.7954103  48.1347840  62.4628126  29.9623736  55.8395900
  63.2491215  29.5443159  55.4886317  62.7266830  30.8669828  56.0077548
  62.6338203  35.3996586  50.5384557  61.9984036  35.4731213  51.2505461
  62.3035610  35.9890185  49.8603636  57.1381132  32.8616063  50.2345532
  57.0217390  32.1860967  50.9026616  57.2483392  32.3748437  49.4177685
  59.4812673  32.3226211  53.9392221  59.1170880  31.7956831  54.6505142
  60.3379789  31.9324680  53.7658706  65.3861973  23.6120543  61.2023487
  65.0545298  24.4815954  60.9784702  64.7907587  23.2956827  61.8817518
  59.1218160  27.3516110  48.9353570  59.2892562  28.2196347  49.3024041
  58.9315329  27.5143392  48.0114859  61.8793493  35.8133089  60.6019400
  61.5794216  36.7158128  60.4935207  61.5344552  35.5465272  61.4540553
  55.3305974  32.2646886  56.6356104  54.4056471  32.1323100  56.8433796
  55.5790387  33.0441105  57.1326047  65.2790637  28.3315629  58.2816837
  64.3707514  28.2631038  57.9875598  65.2278232  28.8087574  59.1098663
  59.1007380  29.8073768  49.9200236  58.9807006  30.2530818  50.7585717
  58.4059969  30.1559085  49.3613774  52.6914785  31.9080160  57.4699893
  52.8207166  32.1614638  58.3839305  52.0112237  32.5007868  57.1504548
  59.3531502  29.7505275  66.2251734  58.5764836  30.3099195  66.2154599
  59.9922065  30.2362058  66.7466605  67.1452283  26.5332068  60.0594711
  66.5026663  26.8264601  59.4134506  66.6407211  26.4184988  60.8647908
  64.7992447  30.2795241  50.7480570  65.7110303  30.5122628  50.5728268
  64.2902094  30.8632285  50.1855649  57.6077875  32.5590728  65.7869701
  58.3492559  33.0975772  65.5104525  56.9014860  33.1857017  65.9441253
  63.0833214  34.7019869  64.3841863  63.4916570  34.2602279  63.6396495
  62.3610476  34.1272496  64.6376056  59.4364284  29.6392475  61.7575420
  60.2825480  30.0631889  61.9010069  59.3762922  28.9826100  62.4513983
  63.4062029  35.2621059  58.1394152  62.7770891  35.4266773  57.4370220
  63.0187691  35.6762669  58.9105116  62.5863730  27.2996844  63.4156594
  62.3424662  28.0538904  62.8790869  62.8623660  27.6782191  64.2503841
  64.5402192  33.8435456  62.0933859  64.7519088  34.4867216  61.4168240
  64.4931941  33.0097773  61.6255789  62.1428421  26.4553277  58.9970431
  61.2812900  26.7534530  59.2887169  62.1690856  26.6723676  58.0651464
  58.9589991  34.9995467  55.4044237  59.4228336  35.2783170  54.6148859
  58.6946789  34.0978912  55.2217328  55.8514072  34.5466949  58.3424000
  56.4215429  34.9754217  57.7041485  56.4422184  34.2649534  59.0408186
  57.8958877  31.1218620  52.2133802  58.5982920  31.5739663  52.6807728
  57.5639505  30.4802439  52.8413695  56.3439238  29.7130376  66.5885011
  55.7137899  30.3946657  66.8220408  56.2375326  29.6013458  65.6438150
  51.6384211  29.3802172  57.5150936  50.8483265  29.6359701  57.0391046
  52.1295458  30.1950510  57.6202976  65.6548020  36.7207412  60.2656216
  66.4765464  36.3187599  59.9838898  65.6510423  36.6175646  61.2172332
  53.5898956  29.7446752  54.4734412  52.7930119  29.8565446  54.9917908
  53.3624548  30.0833404  53.6075303  59.4204624  36.2691455  62.4216927
  59.4849056  36.7311862  63.2575099  58.7115548  35.6388820  62.5499237
  49.9221914  29.6332663  59.9465926  50.1729952  30.5179673  60.2123502
  50.4581462  29.4537264  59.1741018  59.1352641  37.9359562  52.2895907
  58.9998316  38.7811098  52.7180755  59.6762454  38.1378840  51.5261841
  55.6219981  24.0151142  68.9510263  55.2286927  23.4617341  69.6257907
  56.4386121  24.3261721  69.3416780  52.5882039  35.4535000  52.8623832
  53.1006559  36.2478251  53.0129397  53.2404752  34.7561291  52.7957434
  54.3976924  38.5700757  54.9446586  54.5743552  39.4918721  54.7567569
  55.1933757  38.2559176  55.3740965  58.5387942  25.4309021  66.5430519
  59.2797655  26.0316175  66.4634982  58.7705865  24.6886659  65.9848562
  53.6829280  30.6165389  64.8208749  53.5682795  29.7150646  65.1215848
  52.8273798  30.8629085  64.4693565  60.7621118  38.5583129  66.4196249
  60.3184972  37.7719508  66.1017154  61.4238331  38.7462279  65.7540140
  55.5208239  40.0878931  60.9456928  56.0715664  39.9595994  60.1733922
  54.6819715  40.3873820  60.5951821  62.8602356  38.8385929  64.4477651
  62.8420831  39.6594810  63.9557920  63.7822276  38.7140004  64.6727792
  59.3175410  36.3530058  65.2901159  59.8503747  35.5918347  65.0600467
  58.7889491  36.0603710  66.0325314  62.4845105  21.4590124  60.8194801
  62.1409374  22.3491766  60.7433911  62.8524068  21.2691782  59.9564386
  50.5530956  33.7823655  53.6383403  51.3906178  34.1920663  53.4217111
  50.7309223  32.8423097  53.6083597  62.4495388  31.4498735  49.3267236
  61.9342011  32.2203340  49.5655623  62.1772696  30.7763872  49.9500297
  60.0342499  26.2948436  54.3852474  59.1784095  25.9055287  54.2058113
  60.4469451  26.3740397  53.5252260  61.5641645  23.8294779  58.7844034
  61.0606441  23.7924915  57.9711839  61.8572252  24.7387522  58.8440691
  57.8084531  23.9133509  57.7910216  58.6737528  23.7176318  57.4316105
  57.8762040  23.6843861  58.7179573  62.2381691  29.3225828  51.1527017
  61.9331827  29.6371977  52.0037160  63.1912133  29.4007247  51.1954350
  60.6828123  35.4816051  52.8019971  60.1549484  34.7468810  52.4893208
  60.1815626  36.2590727  52.5559939  65.6620969  33.6765071  57.9187017
  65.0044643  34.3664333  58.0067146  66.4661368  34.0661503  58.2621004
  55.4146850  26.1435717  55.1626583  55.9890602  25.9210899  54.4299776
  56.0017833  26.2124412  55.9155184  64.4726428  32.0309444  55.9690959
  64.9858309  32.6639436  56.4712669  65.1227651  31.4310640  55.6034319
  55.7416438  28.1740178  49.1822468  54.9053750  28.5114865  49.5031743
  55.6021207  28.0389158  48.2449605  57.7169518  23.0176966  53.8901652
  57.0633930  22.7025983  53.2658267  57.6749992  22.3952706  54.6161475
  58.8280723  33.2996261  45.8054944  57.9207785  33.0685515  46.0046093
  59.3251755  32.5033880  45.9928926  60.9507258  29.5058900  58.2149300
  60.0329820  29.7273847  58.0570988  61.3667402  29.5805210  57.3561007
  61.7342306  30.9050315  53.3451980  62.4814125  31.4171712  53.0359102
  62.0033896  30.5834368  54.2056373  60.0068956  33.4008856  50.3278934
  59.0980176  33.1167889  50.4251404  60.0364040  33.8207935  49.4682241
  64.1821143  27.9407431  55.3270769  63.4443900  27.4284818  55.6581012
  64.4347917  27.5007813  54.5154046  64.2832771  20.7183683  55.9212538
  64.5891648  19.8581047  55.6338454  65.0085376  21.3101304  55.7211532
  50.5757127  31.1214370  54.3094136  50.3781527  30.5283731  53.5845203
  50.0203791  30.8166580  55.0270075  58.5553850  31.0137477  56.4288730
  58.6102460  30.0611313  56.3531206  57.7445052  31.1696916  56.9130028
  59.7045044  34.9417600  47.6667013  59.2664474  34.2253459  47.2072650
  60.4455485  35.1693714  47.1052104  56.4946210  29.6314536  54.1879108
  55.6814076  29.9308707  54.5944301  56.9905205  29.2370225  54.9053591
  58.6454788  39.6272293  56.1213373  58.6030967  39.8533140  55.1921905
  59.5617487  39.3935668  56.2699174  62.0920422  30.0956361  63.0194002
  62.4469810  30.3227834  63.8788468  62.7392553  30.4274738  62.3971258
  55.9860285  27.2032892  59.8040343  56.6259664  27.0621651  59.1063307
  55.1537816  26.9167405  59.4278945  56.7620589  36.5035322  55.9175336
  57.5561188  36.0085642  55.7157911  56.0512281  35.9753185  55.5543041
  61.5815434  38.8853418  60.2687703  61.6352456  39.4544354  61.0365419
  60.7130215  39.0555303  59.9041741  53.0703352  30.6478404  51.9935088
  52.1400941  30.5862859  52.2105051  53.1660824  30.1254357  51.1971730
  52.9888902  27.1733217  54.5813330  53.2495719  28.0878550  54.4722491
  53.8106074  26.7057659  54.7309943  54.4613827  28.5870974  61.7512155
  55.1336880  28.3788336  61.1024804  53.6343613  28.3893060  61.3117387
  60.3639399  25.2132915  63.7677816  59.7167314  25.9122865  63.6742292
  61.1340414  25.6469059  64.1354064  63.7718197  35.4781767  66.8428369
  63.6203703  35.2492319  65.9258453  63.7622876  36.4352368  66.8559714
  60.5403533  33.0513680  61.8274635  61.4695593  33.2024839  61.6543603
  60.1194563  33.1397701  60.9723282  59.3391865  37.0764344  59.5973173
  59.2002951  36.7083129  60.4699111  58.5506461  37.5911984  59.4257131
  60.8897080  36.4545947  56.9862011  60.5546913  36.4146717  57.8819661
  60.3901026  35.7890663  56.5132421  54.8641324  31.8613577  62.5114592
  54.7261122  31.1293816  63.1126131  55.7746248  31.7722477  62.2298780
  63.8256272  33.8001981  47.2599070  63.2085442  33.0748809  47.1632123
  63.3572760  34.5611342  46.9166145  57.4923625  31.5733536  61.9998271
  58.2023243  30.9326728  61.9584890  57.4492933  31.8246431  62.9224452
  65.4810403  38.5100890  64.9204851  65.4222950  37.8260110  64.2535434
  65.8829922  39.2519880  64.4685477  56.2052559  28.5598754  63.8193911
  55.6689916  28.1089493  64.4715507  55.6169267  28.6944663  63.0764375
  54.5001102  45.3262803  57.7138570  54.7397701  45.9581328  58.3917588
  53.6570299  44.9750843  58.0003929  55.6154818  28.0187406  46.3820375
  54.7384284  27.8976206  46.0182621  56.0912571  27.2273484  46.1299263
  47.1356958  32.8064565  56.4761882  47.8227998  32.4926295  55.8882897
  46.9805087  33.7105930  56.2029133  51.9391680  27.6954762  60.9046905
  51.8549869  27.0880431  60.1697315  51.1174386  28.1863780  60.9056402
  59.0128964  41.1341926  60.1180074  58.9399136  41.9396897  60.6299378
  58.5706357  41.3333892  59.2928095  62.1115394  26.1808325  56.2717101
  62.6084093  25.4278288  55.9518171  61.3402375  26.2172642  55.7060310
  61.4727648  41.0328760  62.2738232  62.1855620  41.6676225  62.2014134
  60.9817676  41.1292626  61.4578234  63.1945175  34.9380013  53.8455524
  62.2601453  35.0581475  53.6760228  63.3721843  34.0352479  53.5815534
  58.6950363  28.3225708  55.9988785  58.3248150  27.7696749  56.6869691
  59.1909455  27.7183842  55.4463785  66.5817726  30.7797332  54.3805558
  67.0478178  31.6125323  54.3065861  67.0325226  30.3142313  55.0850817
  56.5239561  38.7823203  63.0943803  57.2249021  39.4159686  63.2473197
  56.0534676  39.1237935  62.3339442  64.6493957  37.1241153  51.3791710
  64.9253801  37.0097748  52.2885584  63.7798456  36.7258638  51.3403883
  64.5534389  23.1477919  58.4196459  63.6397468  23.3782146  58.5878666
  64.9827490  23.2316363  59.2710492  64.3240847  31.3367811  60.9196353
  63.6712297  31.5843718  60.2648806  64.7021227  30.5231949  60.5858831
  60.3728420  32.0787622  67.4062391  59.6969057  31.9781751  68.0764766
  61.1956054  31.9226836  67.8698388  52.1207279  38.3159558  60.0274906
  52.7060716  37.5703246  60.1602810  51.9232118  38.6263515  60.9111570
  46.7124934  30.8865159  58.7479349  46.7509034  30.3528749  59.5416467
  46.2065227  30.3600364  58.1290326  59.1151203  43.3854549  61.6420006
  59.6669511  43.5486171  62.4069092  59.4557397  43.9758987  60.9700031
  54.0915696  25.7329699  62.2441891  54.1557023  26.5944530  61.8319289
  54.0282817  25.1203701  61.5114250  53.5667969  27.8052832  65.8914925
  54.1940008  27.4229909  66.5052450  52.7095888  27.5867034  66.2570618
  63.9662077  38.2115807  67.4968661  64.5101981  38.8245765  67.0023616
  63.3848922  38.7695385  68.0135674  50.3433512  29.6129261  51.8233280
  50.6386953  28.7039939  51.7700334  49.4421547  29.5917000  51.5014283
  53.8727759  27.6885257  57.8060829  53.1514344  28.3021225  57.6668302
  54.6621014  28.2243022  57.7277475  56.6754072  25.0239684  64.0801481
  57.1988474  25.2701980  64.8427790  56.4566405  25.8559719  63.6604618
  52.0721353  27.2943358  51.9472605  51.7434059  26.4140737  51.7647711
  52.4260724  27.2391027  52.8348995  55.1863176  27.5816328  52.3148083
  55.5259249  28.1102250  51.5926691  55.6335297  27.9196734  53.0906650
  57.8806617  25.9653379  61.7651151  57.5403438  25.1661192  62.1671831
  57.1745623  26.2655090  61.1927984  58.5323089  23.0502691  60.2178474
  59.3549158  22.5763170  60.0957365  58.7761152  23.8293175  60.7177160
  57.1731323  26.0790950  50.5141376  57.8939686  26.4572203  50.0105093
  56.5496628  26.7979827  50.6176354  61.3162446  26.7836099  51.4499708
  61.5326061  27.6660737  51.1488536  60.8356513  26.3922312  50.7205350
  56.0561668  29.7421812  58.0270453  55.9106248  30.0562115  58.9194734
  55.5786871  30.3606712  57.4741351  57.9158051  26.7324360  58.0751342
  57.9019619  25.8365453  57.7383640  58.6330479  26.7395024  58.7089628
  59.7684181  27.1661700  60.1204470  59.5101959  28.0878771  60.1188800
  59.2369222  26.7692135  60.8104934  50.5307330  32.2827156  60.9658114
  49.9860798  33.0586964  61.0978388  51.4086680  32.6297961  60.8077235
  57.3194947  25.6138740  53.3438912  57.4410858  24.6855387  53.5429800
  57.0296989  25.6277426  52.4317228  60.1886137  23.2993651  56.4805632
  60.2107834  23.3632984  55.5257612  60.6054196  22.4598159  56.6746138
  65.7005543  39.5879252  49.9991453  66.3956447  40.2085944  50.2178768
  66.0428693  38.7374603  50.2743831  51.3173352  31.4097053  63.8588271
  50.5755088  31.5579688  64.4452901  50.9966096  31.6705318  62.9955020
  59.2617014  40.9513031  63.6568661  59.5704141  40.7062178  64.5291360
  60.0592496  41.1559669  63.1687531  51.7629965  39.2962481  55.8898665
  52.5887985  38.9966253  55.5097309  51.4124017  38.5270104  56.3388454
  56.7311499  38.6488950  57.9596339  56.1091508  37.9859655  57.6598567
  57.4016365  38.6750082  57.2769987  49.9638570  37.2148808  56.8487599
  49.1270479  36.7870982  56.6671600  49.9362216  37.4081251  57.7858390
  56.8036026  27.1270738  67.5528845  56.8524182  28.0032861  67.1706615
  57.3458540  26.5848131  66.9800488  67.2890872  37.6711861  66.8329982
  66.4986415  37.6536000  66.2934482  67.0524226  38.2100155  67.5879019
  67.4088747  34.5204327  64.1462711  67.4586752  34.3554335  65.0878233
  67.3002670  33.6531586  63.7560591  56.2925005  37.1992873  51.4354800
  56.4413126  37.8828337  50.7821472  57.0991449  37.1797963  51.9504255
  64.6992509  30.5035255  65.4622017  65.6002372  30.3641720  65.1706015
  64.7740484  30.6689710  66.4020195  59.0335315  27.8802110  64.3075204
  58.1638624  28.1735676  64.0357792  59.2694795  28.4642555  65.0282467
  67.1594132  32.0633883  62.8584790  67.6348253  32.2561530  62.0503642
  66.2359697  32.1193069  62.6128174  54.0477638  33.2258051  52.4415869
  53.8023680  32.3220381  52.6396079  54.2173553  33.2275201  51.4995347
  61.7374348  24.0981727  61.8240624  62.2556292  24.8342754  61.4987113
  61.3829481  24.4045720  62.6587383  53.3173286  28.9586408  49.9402030
  52.6242531  29.0330763  49.2842066  53.0725038  28.1946752  50.4623547
  61.9886943  20.5182010  57.3441521  62.2688696  19.8505199  57.9701947
  62.7737549  20.7111105  56.8316185  59.7920411  39.6941003  48.9066547
  59.2194378  40.3131191  48.4537019  60.3653205  40.2440365  49.4406469
  65.8595801  28.9399644  61.0913096  66.8113224  29.0397741  61.1125320
  65.6899251  28.1477912  61.6011180  63.8810180  26.0255227  61.2772497
  63.2860112  26.3060239  60.5818985  63.5959877  26.5149128  62.0489238
  63.0117671  39.9778154  50.0375129  63.9448344  39.9123715  50.2408005
  62.9240884  40.8134420  49.5789662  65.6405687  39.2944024  46.9979077
  65.5619319  38.9603888  47.8914835  66.4615354  39.7865792  46.9970549
  68.3383879  32.1605763  60.2055395  68.3060199  31.2221764  60.3915079
  68.9484502  32.2389800  59.4721220  60.1767210  31.0301816  46.2482600
  61.1226314  30.9008024  46.3171018  59.7981454  30.2916478  46.7252028
  68.4878367  28.9516807  60.2513679  67.9717416  28.1675263  60.0643608
  69.3718316  28.6235523  60.4160198  66.1489094  22.6957822  56.2109491
  65.9513915  22.3872910  57.0952823  66.7588800  23.4219461  56.3407421
  60.0605902  35.0819562  67.7083257  60.9808912  35.2598161  67.9023303
  60.0255485  34.1375608  67.5562956  58.3610127  28.9551793  46.1837485
  57.4541582  28.6584905  46.2600198  58.6386108  28.6581611  45.3171771
  49.2788067  30.2758156  56.6336531  48.9590851  29.4223464  56.3410905
  48.7321495  30.4906734  57.3894498  53.0567975  32.9920597  60.3506038
  53.2753984  33.9237705  60.3694071  53.4693748  32.6328571  61.1360842
  59.9772192  23.4988682  52.3381726  59.1672921  23.1535767  52.7136972
  60.6656609  23.1896226  52.9269338  61.9062741  22.5766729  53.9606023
  62.4593779  22.9962183  54.6196046  62.1432827  21.6502477  54.0028979
  57.9295840  28.5653803  69.7408787  57.8292567  29.5148160  69.6720878
  57.7117382  28.2372042  68.8684857  57.1308911  25.8138728  46.3249464
  57.9928075  26.1393626  46.5845281  57.3159255  25.0270224  45.8122530
  49.1476327  33.8961068  58.6029653  48.4539798  33.4815020  58.0899607
  49.8949318  33.9381604  58.0063072  65.2841548  24.6867254  53.4684687
  64.7040217  25.3452058  53.0862739  65.0177480  23.8644599  53.0572104
  63.7345114  24.0872312  55.6706007  64.2344893  24.1988847  54.8620326
  64.3780722  23.7833365  56.3106816  57.7927110  31.9950942  68.5573848
  57.3094192  32.7951302  68.7637737  57.8788049  32.0058886  67.6041292
  51.0613070  33.8279321  56.4795668  51.0383758  33.9267009  55.5277551
  51.3713706  34.6744472  56.8012834  53.7200447  35.8855476  60.5942282
  54.6743701  35.8539419  60.5272214  53.5212971  35.4246100  61.4092508
  54.3099830  34.4556592  63.1613080  55.1292719  34.9500671  63.1847917
  54.5836637  33.5388560  63.1330647  64.0666426  26.8467345  52.5241035
  63.1792281  27.1316995  52.3061230  64.4820415  26.6861108  51.6768312
  67.4180962  26.8713866  56.2395374  68.1941352  27.3610318  56.5119991
  66.6929096  27.2971920  56.6967244  52.0750676  41.4275096  57.6112480
  51.9405144  40.6675497  57.0450478  51.6582739  42.1515996  57.1441269
  63.2109639  36.6112019  46.6189055  63.9145489  36.8162022  47.2346711
  62.4872288  37.1788781  46.8838139  64.0407450  32.3621881  52.7391325
  63.9842651  32.8190432  51.8998958  64.5935792  31.6012565  52.5614168
  67.8512255  28.1511612  53.5641445  67.5949190  27.7508248  54.3949653
  67.2265123  28.8655406  53.4391584  55.2319802  42.3244413  57.8230923
  55.1152186  43.2689845  57.7209613  54.4112248  42.0217974  58.2116722
  65.1196337  37.0494549  48.6687515  65.9541941  36.6175747  48.4864990
  64.9580680  36.8776562  49.5964410  64.7742229  33.5526662  50.0343855
  64.7191033  33.3870933  49.0932299  64.1488284  34.2602695  50.1906044
  49.5634744  28.7894726  63.8605277  50.2093607  28.2793680  64.3492502
  49.3551895  29.5263408  64.4348702  62.0888136  35.8575574  69.3597417
  62.9579296  36.0316226  68.9984052  61.6094888  36.6769991  69.2373147
  58.0838354  23.0534771  49.6129173  58.0717024  23.9976611  49.7697444
  58.9761776  22.8704916  49.3188634  56.2574316  42.9772675  61.0386851
  57.1601563  43.0096285  61.3553346  56.0311686  42.0473126  61.0533187
  58.0127918  41.7303661  57.6996930  57.0623549  41.7305523  57.5861302
  58.3160404  40.9836396  57.1832964  61.8990474  19.6477547  53.8675110
  61.1322870  19.0936034  54.0131792  62.3101179  19.7199416  54.7289261
  53.9032235  25.9362343  67.9580291  54.7663696  25.5799148  68.1683616
  53.3297645  25.5976238  68.6455695  65.3394857  60.6554721  57.7138570
  65.5791455  61.2873245  58.3917588  64.4964053  60.3042761  58.0003929
  57.5518688  46.2157076  58.7479349  57.5902788  45.6820667  59.5416467
  57.0458981  45.6892282  58.1290326  62.9144431  56.7567013  57.6112480
  62.7798899  55.9967414  57.0450478  62.4976493  57.4807913  57.1441269
  60.4028498  44.1186644  63.8605277  61.0487362  43.6085598  64.3492502
  60.1945649  44.8555326  64.4348702  89.5424062  60.5582804  56.7428879
  90.2749234  59.9882021  56.9766708  88.7863418  60.1704405  57.1835384
  87.0649482  54.2704378  61.2023487  86.7332807  55.1399789  60.9784702
  86.4695096  53.9540662  61.8817518  86.9578146  58.9899465  58.2816837
  86.0495023  58.9214873  57.9875598  86.9065741  59.4671410  59.1098663
  88.8239792  57.1915903  60.0594711  88.1814172  57.4848436  59.4134506
  88.3194720  57.0768823  60.8647908  95.4241522  63.7229995  56.6141188
  94.6705231  63.1537394  56.4585192  95.5589064  63.6892660  57.5611823
  84.5389865  69.4969764  64.4477651  84.5208340  70.3178645  63.9557920
  85.4609785  69.3723839  64.6727792  89.1017171  64.8614925  51.2620409
  88.3246614  64.5226085  50.8175571  89.7808652  64.8667549  50.5875374
  87.1597912  69.1684725  64.9204851  87.1010459  68.4843945  64.2535434
  87.5617431  69.9103715  64.4685477  76.1788611  75.9846639  57.7138570
  76.4185209  76.6165163  58.3917588  75.3357808  75.6334679  58.0003929
  91.6432660  62.5432526  57.9135392  91.6322537  63.4257242  57.5429325
  90.7750040  62.1904077  57.7189929  83.1515157  71.6912595  62.2738232
  83.8643129  72.3260060  62.2014134  82.6605185  71.7876461  61.4578234
  86.2321898  53.8061754  58.4196459  85.3184977  54.0365981  58.5878666
  86.6614999  53.8900198  59.2710492  82.9635530  72.0311339  55.0224524
  83.1457925  71.2132995  55.4852276  83.7868516  72.2479032  54.5849414
  80.7938712  74.0438385  61.6420006  81.3457020  74.2070006  62.4069092
  81.1344906  74.6342823  60.9700031  92.2457270  63.6932746  54.5184855
  92.6888416  62.9440071  54.1203978  91.3683781  63.6842882  54.1358587
  80.9404523  71.6096866  63.6568661  81.2491650  71.3646013  64.5291360
  81.7380005  71.8143505  63.1687531  80.9625135  73.7634776  55.8874037
  80.5230126  73.2711155  56.5806894  81.7133252  73.2207744  55.6466113
  88.9678381  68.3295696  66.8329982  88.1773924  68.3119835  66.2934482
  88.7311735  68.8683990  67.5879019  90.5894453  67.5985104  64.3904732
  90.2979261  67.9615085  65.2268193  89.9766584  66.8852112  64.2118064
  91.7890135  65.1637984  56.9107302  92.6237026  65.6027788  57.0744863
  91.9249264  64.6876637  56.0915548  90.1665876  59.6100642  60.2513679
  89.6504925  58.8259099  60.0643608  91.0505825  59.2819359  60.4160198
  87.8276603  53.3541658  56.2109491  87.6301424  53.0456746  57.0952823
  88.4376309  54.0803297  56.3407421  95.8347937  63.8805605  59.3461432
  96.5651326  63.6190894  59.9069136  95.2254883  63.1434327  59.3863500
  93.9163235  62.0213468  59.9435883  93.1896398  61.8869433  59.3352375
  93.5010521  62.3290297  60.7492602  93.8412102  61.5491521  56.0712736
  93.2811660  61.6184710  56.8444298  93.2355606  61.3732506  55.3512233
  95.4268121  78.2248035  58.7642692  96.0646531  78.1054782  58.0606032
  95.3088964  79.1728879  58.8230644  92.2357827  78.1775463  58.7004217
  91.8976339  78.0616528  57.8124752  93.1047595  77.7766628  58.6805223
  88.0944643  80.0310940  54.6901108  87.5309508  79.9400876  53.9217395
  87.9797038  79.2110844  55.1703600  92.7177610  79.3310315  64.6590422
  92.7066251  78.9363113  63.7870926  92.8798249  78.5976387  65.2524194
  85.6409075  81.5262131  57.5285328  86.4330367  81.1852956  57.1131627
  85.8805725  81.6357106  58.4487481  93.6744201  83.6981907  50.0015573
  93.0232181  84.2835988  49.6149586  94.4688564  84.2288102  50.0610610
  87.5999829  80.7871044  50.4002707  88.3730705  80.2400031  50.2615583
  87.9525227  81.6515294  50.6117168  89.4384871  82.1147427  63.6069606
  89.1474737  83.0193057  63.4916273  90.0741856  82.1563954  64.3213676
  90.3641078  79.4924275  60.1970966  90.9604650  79.2680298  59.4827929
  90.4216050  78.7509021  60.7996414  94.9809389  75.9499489  55.8395900
  95.7672478  75.5318912  55.4886317  95.2448094  76.8545581  56.0077548
  95.1519467  81.3872339  50.5384557  94.5165300  81.4606966  51.2505461
  94.8216873  81.9765938  49.8603636 100.3817816  75.8874722  56.7428879
 101.1142988  75.3173939  56.9766708  99.6257172  75.4996323  57.1835384
  91.9993936  78.3101964  53.9392221  91.6352143  77.7832585  54.6505142
  92.8561052  77.9200433  53.7658706  97.9043237  69.5996296  61.2023487
  97.5726561  70.4691707  60.9784702  97.3088850  69.2832580  61.8817518
  91.6399423  73.3391863  48.9353570  91.8073825  74.2072100  49.3024041
  91.4496592  73.5019145  48.0114859  94.3974756  81.8008842  60.6019400
  94.0975479  82.7033881  60.4935207  94.0525816  81.5341025  61.4540553
  87.8487238  78.2522639  56.6356104  86.9237734  78.1198853  56.8433796
  88.0971651  79.0316858  57.1326047  97.7971900  74.3191382  58.2816837
  96.8888777  74.2506791  57.9875598  97.7459496  74.7963327  59.1098663
  91.6188644  75.7949521  49.9200236  91.4988269  76.2406572  50.7585717
  90.9241232  76.1434838  49.3613774  85.2096049  77.8955913  57.4699893
  85.3388430  78.1490391  58.3839305  84.5293500  78.4883621  57.1504548
  89.3795536  88.5653163  53.5690368  89.3019566  89.5160988  53.6478848
  88.7757180  88.2199035  54.2265294  91.8712766  75.7381028  66.2251734
  91.0946100  76.2974948  66.2154599  92.5103329  76.2237811  66.7466605
  99.6633546  72.5207821  60.0594711  99.0207927  72.8140354  59.4134506
  99.1588475  72.4060741  60.8647908  97.3173710  76.2670994  50.7480570
  98.2291566  76.4998381  50.5728268  96.8083357  76.8508038  50.1855649
  90.1259138  78.5466481  65.7869701  90.8673822  79.0851525  65.5104525
  89.4196124  79.1732770  65.9441253  95.6014478  80.6895622  64.3841863
  96.0097834  80.2478032  63.6396495  94.8791739  80.1148249  64.6376056
  91.9545548  75.6268229  61.7575420  92.8006743  76.0507642  61.9010069
  91.8944185  74.9701853  62.4513983  95.9243292  81.2496812  58.1394152
  95.2952155  81.4142527  57.4370220  95.5368954  81.6638422  58.9105116
  99.8032524  82.1851250  55.4938516  99.1183562  82.5650152  54.9435549
  99.8876374  82.7946577  56.2270463  95.1044993  73.2872597  63.4156594
  94.8605925  74.0414657  62.8790869  95.3804924  73.6657944  64.2503841
  97.0583456  79.8311209  62.0933859  97.2700351  80.4742969  61.4168240
  97.0113204  78.9973526  61.6255789  94.6609685  72.4429030  58.9970431
  93.7994164  72.7410283  59.2887169  94.6872120  72.6599429  58.0651464
  91.4771254  80.9871220  55.4044237  91.9409600  81.2658923  54.6148859
  91.2128052  80.0854665  55.2217328  88.3695335  80.5342702  58.3424000
  88.9396692  80.9629970  57.7041485  88.9603447  80.2525287  59.0408186
  90.4140140  77.1094373  52.2133802  91.1164184  77.5615417  52.6807728
  90.0820769  76.4678192  52.8413695  88.8620502  75.7006129  66.5885011
  88.2319162  76.3822410  66.8220408  88.7556590  75.5889211  65.6438150
  84.1565474  75.3677925  57.5150936  83.3664528  75.6235454  57.0391046
  84.6476722  76.1826263  57.6202976  98.1729284  82.7083165  60.2656216
  98.9946728  82.3063352  59.9838898  98.1691687  82.6051399  61.2172332
  91.9385887  82.2567208  62.4216927  92.0030320  82.7187615  63.2575099
  91.2296811  81.6264573  62.5499237  82.4403177  75.6208416  59.9465926
  82.6911216  76.5055426  60.2123502  82.9762726  75.4413017  59.1741018
 106.2635277  79.0521913  56.6141188 105.5098985  78.4829311  56.4585192
 106.3982818  79.0184578  57.5611823  91.6533905  83.9235315  52.2895907
  91.5179580  84.7686851  52.7180755  92.1943717  84.1254593  51.5261841
  86.9158187  84.5576510  54.9446586  87.0924815  85.4794474  54.7567569
  87.7115021  84.2434929  55.3740965  91.0569206  71.4184774  66.5430519
  91.7978919  72.0191928  66.4634982  91.2887128  70.6762412  65.9848562
  86.2010544  76.6041142  64.8208749  86.0864059  75.7026399  65.1215848
  85.3455061  76.8504838  64.4693565  93.2802381  84.5458882  66.4196249
  92.8366236  83.7595261  66.1017154  93.9419595  84.7338032  65.7540140
  88.0389503  86.0754684  60.9456928  88.5896928  85.9471747  60.1733922
  87.2000978  86.3749573  60.5951821  95.3783619  84.8261682  64.4477651
  95.3602095  85.6470563  63.9557920  96.3003539  84.7015757  64.6727792
  91.8356674  82.3405811  65.2901159  92.3685010  81.5794100  65.0600467
  91.3070755  82.0479463  66.0325314  95.0026369  67.4465877  60.8194801
  94.6590638  68.3367519  60.7433911  95.3705331  67.2567535  59.9564386
  94.9676651  77.4374488  49.3267236  94.4523275  78.2079093  49.5655623
  94.6953960  76.7639625  49.9500297  92.5523762  72.2824189  54.3852474
  91.6965359  71.8931040  54.2058113  92.9650714  72.3616150  53.5252260
  94.0822909  69.8170533  58.7844034  93.5787704  69.7800668  57.9711839
  94.3753516  70.7263275  58.8440691  99.9410925  80.1906843  51.2620409
  99.1640368  79.8518003  50.8175571 100.6202406  80.1959466  50.5875374
  94.7562954  75.3101581  51.1527017  94.4513090  75.6247730  52.0037160
  95.7093397  75.3883000  51.1954350  93.2009386  81.4691804  52.8019971
  92.6730748  80.7344563  52.4893208  92.6996889  82.2466480  52.5559939
  98.1802232  79.6640824  57.9187017  97.5225907  80.3540086  58.0067146
  98.9842631  80.0537256  58.2621004  96.9907691  78.0185197  55.9690959
  97.5039573  78.6515189  56.4712669  97.6408915  77.4186393  55.6034319
  94.2530065  87.9969521  48.7251630  93.5791764  88.3001218  49.3336588
  94.6395887  88.7998602  48.3757087  93.4688522  75.4934653  58.2149300
  92.5511083  75.7149600  58.0570988  93.8848666  75.5680963  57.3561007
  94.2523570  76.8926068  53.3451980  94.9995389  77.4047465  53.0359102
  94.5215159  76.5710121  54.2056373  92.5250220  79.3884609  50.3278934
  91.6161439  79.1043642  50.4251404  92.5545304  79.8083688  49.4682241
  97.7569487  82.9991198  54.0970102  97.3031814  82.1582108  54.1535292
  97.1263454  83.6352597  54.4344882  96.7002407  73.9283185  55.3270769
  95.9625164  73.4160571  55.6581012  96.9529180  73.4883566  54.5154046
  96.2002427  84.8367695  55.0319920  96.4925401  85.3972752  54.3132286
  96.7101047  85.1296256  55.7873079  96.8014034  66.7059437  55.9212538
  97.1072911  65.8456800  55.6338454  97.5266639  67.2977057  55.7211532
  91.0735114  77.0013230  56.4288730  91.1283724  76.0487066  56.3531206
  90.2626316  77.1572669  56.9130028  89.0127474  75.6190289  54.1879108
  88.1995339  75.9184460  54.5944301  89.5086468  75.2245978  54.9053591
  91.1636052  85.6148046  56.1213373  91.1212231  85.8408893  55.1921905
  92.0798751  85.3811421  56.2699174  94.6101686  76.0832114  63.0194002
  94.9651073  76.3103587  63.8788468  95.2573817  76.4150491  62.3971258
 100.3399422  79.2050550  53.7243331 100.2017321  79.3952146  52.7964521
  99.9835641  79.9669933  54.1811382  88.5041549  73.1908645  59.8040343
  89.1440928  73.0497404  59.1063307  87.6719079  72.9043158  59.4278945
 100.3668802  81.2727077  58.7354603 100.8005309  81.1802366  59.5837657
 101.0800383  81.2484577  58.0974619  89.2801853  82.4911075  55.9175336
  90.0742451  81.9961395  55.7157911  88.5693545  81.9628938  55.5543041
  94.0996697  84.8729171  60.2687703  94.1533719  85.4420107  61.0365419
  93.2311478  85.0431056  59.9041741  85.5070165  73.1608970  54.5813330
  85.7676982  74.0754303  54.4722491  86.3287337  72.6933412  54.7309943
  86.9795090  74.5746727  61.7512155  87.6518144  74.3664089  61.1024804
  86.1524877  74.3768813  61.3117387 101.2284352  81.3150777  61.2687488
 101.4220242  82.2196588  61.5146763 101.1284970  80.8558196  62.1026073
  92.8820662  71.2008668  63.7677816  92.2348577  71.8998618  63.6742292
  93.6521678  71.6344812  64.1354064  96.2899460  81.4657520  66.8428369
  96.1384967  81.2368072  65.9258453  96.2804140  82.4228122  66.8559714
  93.0584797  79.0389433  61.8274635  93.9876857  79.1900592  61.6543603
  92.6375827  79.1273454  60.9723282  91.8573128  83.0640097  59.5973173
  91.7184214  82.6958882  60.4699111  91.0687725  83.5787737  59.4257131
  92.4521280  88.1649194  50.9398709  92.6273036  87.6937237  51.7544332
  91.7654068  88.7914960  51.1679970  93.4078344  82.4421700  56.9862011
  93.0728176  82.4022470  57.8819661  92.9082289  81.7766416  56.5132421
  87.3822588  77.8489330  62.5114592  87.2442386  77.1169569  63.1126131
  88.2927511  77.7598230  62.2298780  96.3437535  79.7877734  47.2599070
  95.7266706  79.0624562  47.1632123  95.8754024  80.5487095  46.9166145
  90.0104888  77.5609289  61.9998271  90.7204507  76.9202482  61.9584890
  89.9674196  77.8122184  62.9224452  97.9991667  84.4976643  64.9204851
  97.9404213  83.8135863  64.2535434  98.4011185  85.2395633  64.4685477
  88.7233822  74.5474507  63.8193911  88.1871179  74.0965246  64.4715507
  88.1350531  74.6820416  63.0764375  87.0182366  91.3138557  57.7138570
  87.2578964  91.9457081  58.3917588  86.1751562  90.9626597  58.0003929
  98.0009074  82.4616227  63.1518830  97.1135853  82.1242148  63.2745229
  98.5707625  81.7299258  63.3887596  79.6538221  78.7940318  56.4761882
  80.3409261  78.4802048  55.8882897  79.4986350  79.6981683  56.2029133
  84.4572943  73.6830515  60.9046905  84.3731132  73.0756184  60.1697315
  83.6355650  74.1739533  60.9056402  91.5310228  87.1217679  60.1180074
  91.4580399  87.9272650  60.6299378  91.0887621  87.3209645  59.2928095
  91.3200007  86.3589449  53.6282895  90.5367529  86.9011129  53.7221120
  92.0192752  86.8763429  54.0277136  94.6296657  72.1684078  56.2717101
  95.1265357  71.4154041  55.9518171  93.8583639  72.2048395  55.7060310
 102.4826415  77.8724444  57.9135392 102.4716291  78.7549159  57.5429325
 101.6143794  77.5195995  57.7189929  93.9908911  87.0204513  62.2738232
  94.7036883  87.6551978  62.2014134  93.4998940  87.1168379  61.4578234
  95.7126438  80.9255766  53.8455524  94.7782717  81.0457228  53.6760228
  95.8903107  80.0228232  53.5815534  91.2131626  74.3101461  55.9988785
  90.8429414  73.7572502  56.6869691  91.7090719  73.7059595  55.4463785
  99.0998989  76.7673085  54.3805558  99.5659442  77.6001077  54.3065861
  99.5506490  76.3018067  55.0850817  89.0420825  84.7698956  63.0943803
  89.7430284  85.4035439  63.2473197  88.5715940  85.1113688  62.3339442
  97.1675221  83.1116906  51.3791710  97.4435064  82.9973501  52.2885584
  96.2979719  82.7134391  51.3403883  97.0715652  69.1353672  58.4196459
  96.1578732  69.3657899  58.5878666  97.5008754  69.2192116  59.2710492
  96.8422111  77.3243564  60.9196353  96.1893561  77.5719471  60.2648806
  97.2202491  76.5107702  60.5858831  93.8029285  87.3603257  55.0224524
  93.9851679  86.5424913  55.4852276  94.6262271  87.5770949  54.5849414
  94.1371450  86.2871442  52.2839572  94.6659216  85.7763897  51.6709734
  94.3999670  85.9713972  53.1485105  92.8909684  78.0663375  67.4062391
  92.2150321  77.9657504  68.0764766  93.7137318  77.9102589  67.8698388
  84.6388543  84.3035311  60.0274906  85.2241980  83.5578999  60.1602810
  84.4413381  84.6139268  60.9111570  87.4927198  87.3386559  55.0437348
  86.8237573  87.8232687  54.5601388  87.3540068  87.5855779  55.9580727
  79.2306197  76.8740912  58.7479349  79.2690297  76.3404502  59.5416467
  78.7246490  76.3476117  58.1290326  91.6332467  89.3730302  61.6420006
  92.1850775  89.5361924  62.4069092  91.9738660  89.9634740  60.9700031
  86.6096960  71.7205452  62.2441891  86.6738286  72.5820283  61.8319289
  86.5464080  71.1079454  61.5114250  86.0849232  73.7928585  65.8914925
  86.7121271  73.4105662  66.5052450  85.2277151  73.5742787  66.2570618
  96.4843341  84.1991560  67.4968661  97.0283245  84.8121518  67.0023616
  95.9030186  84.7571138  68.0135674  94.7700854  87.3212278  58.6283689
  94.6451993  86.5202018  58.1194634  95.4279945  87.8158471  58.1397659
  86.3909022  73.6761010  57.8060829  85.6695608  74.2896978  57.6668302
  87.1802278  74.2118775  57.7277475  96.8335762  85.1221298  60.2563239
  95.8866098  85.0026649  60.1841565  97.1818535  84.2343796  60.3389500
  89.1935336  71.0115437  64.0801481  89.7169737  71.2577733  64.8427790
  88.9747669  71.8435472  63.6604618  93.8382196  84.9174014  56.4567591
  93.6907158  83.9890722  56.6375161  94.6635689  84.9394105  55.9724666
  87.7044440  73.5692081  52.3148083  88.0440512  74.0978003  51.5926691
  88.1516560  73.9072487  53.0906650  97.4416317  85.7402573  57.5432464
  98.3662865  85.5345434  57.4056915  97.2731621  85.4918974  58.4521805
  90.3987881  71.9529132  61.7651151  90.0584701  71.1536945  62.1671831
  89.6926887  72.2530843  61.1927984  91.0504352  69.0378444  60.2178474
  91.8730422  68.5638923  60.0957365  91.2942416  69.8168928  60.7177160
  93.8343710  72.7711852  51.4499708  94.0507324  73.6536490  51.1488536
  93.3537777  72.3798065  50.7205350  88.5742931  75.7297565  58.0270453
  88.4287512  76.0437868  58.9194734  88.0968135  76.3482465  57.4741351
  90.4339314  72.7200113  58.0751342  90.4200883  71.8241206  57.7383640
  91.1511742  72.7270777  58.7089628  92.2865445  73.1537453  60.1204470
  92.0283223  74.0754524  60.1188800  91.7550485  72.7567888  60.8104934
  97.2311634  86.2588240  52.8994555  97.4048511  85.6934663  52.1468408
  97.7240525  87.0589135  52.7174045  83.0488593  78.2702909  60.9658114
  82.5042061  79.0462717  61.0978388  83.9267943  78.6173714  60.8077235
 103.0851025  79.0224663  54.5184855 103.5282171  78.2731989  54.1203978
 102.2077535  79.0134800  54.1358587  98.2186806  85.5755005  49.9991453
  98.9137711  86.1961697  50.2178768  98.5609956  84.7250356  50.2743831
  83.8354615  77.3972806  63.8588271  83.0936351  77.5455441  64.4452901
  83.5147360  77.6581071  62.9955020 100.1178229  83.0254710  51.5278784
 100.6429553  83.3641983  50.8028104 100.0300582  82.0901726  51.3441919
  91.7798278  86.9388784  63.6568661  92.0885404  86.6937931  64.5291360
  92.5773760  87.1435422  63.1687531  91.8018890  89.0926694  55.8874037
  91.3623880  88.6003072  56.5806894  92.5527007  88.5499661  55.6466113
  84.2811229  85.2838234  55.8898665  85.1069249  84.9842006  55.5097309
  83.9305281  84.5145857  56.3388454  89.2492762  84.6364703  57.9596339
  88.6272771  83.9735408  57.6598567  89.9197629  84.6625835  57.2769987
  82.4819834  83.2024561  56.8487599  81.6451742  82.7746735  56.6671600
  82.4543479  83.3957004  57.7858390  89.3217290  73.1146491  67.5528845
  89.3705445  73.9908614  67.1706615  89.8639804  72.5723884  66.9800488
  99.8072135  83.6587614  66.8329982  99.0167679  83.6411753  66.2934482
  99.5705490  84.1975908  67.5879019  99.9270010  80.5080080  64.1462711
  99.9768015  80.3430088  65.0878233  99.8183934  79.6407339  63.7560591
  88.8106269  83.1868626  51.4354800  88.9594389  83.8704090  50.7821472
  89.6172712  83.1673716  51.9504255  97.2173773  76.4911008  65.4622017
  98.1183635  76.3517473  65.1706015  97.2921747  76.6565463  66.4020195
  91.5516578  73.8677863  64.3075204  90.6819887  74.1611429  64.0357792
  91.7876058  74.4518308  65.0282467 101.4288207  82.9277022  64.3904732
 101.1373015  83.2907002  65.2268193 100.8160338  82.2144030  64.2118064
 102.6283889  80.4929902  56.9107302 103.4630781  80.9319706  57.0744863
 102.7643018  80.0168555  56.0915548  99.6775395  78.0509636  62.8584790
 100.1529517  78.2437283  62.0503642  98.7540961  78.1068822  62.6128174
  94.2555612  70.0857480  61.8240624  94.7737556  70.8218507  61.4987113
  93.9010745  70.3921473  62.6587383  94.5068206  66.5057763  57.3441521
  94.7869960  65.8380952  57.9701947  95.2918813  66.6986858  56.8316185
  92.3101674  85.6816756  48.9066547  91.7375642  86.3006944  48.4537019
  92.8834468  86.2316118  49.4406469  98.3777064  74.9275397  61.0913096
  99.3294487  75.0273494  61.1125320  98.2080515  74.1353665  61.6011180
  96.3991444  72.0130980  61.2772497  95.8041376  72.2935993  60.5818985
  96.1141141  72.5024881  62.0489238  95.5298934  85.9653907  50.0375129
  96.4629607  85.8999468  50.2408005  95.4422147  86.8010173  49.5789662
  98.1586951  85.2819777  46.9979077  98.0800582  84.9479641  47.8914835
  98.9796618  85.7741545  46.9970549 100.8565142  78.1481516  60.2055395
 100.8241462  77.2097517  60.3915079 101.4665766  78.2265553  59.4721220
  92.6948473  77.0177569  46.2482600  93.6407578  76.8883777  46.3171018
  92.3162718  76.2792231  46.7252028 101.0059631  74.9392560  60.2513679
 100.4898679  74.1551016  60.0643608 101.8899579  74.6111276  60.4160198
  98.6670358  68.6833575  56.2109491  98.4695179  68.3748663  57.0952823
  99.2770063  69.4095214  56.3407421 106.6741692  79.2097523  59.3461432
 107.4045080  78.9482811  59.9069136 106.0648637  78.4726245  59.3863500
 104.7556989  77.3505386  59.9435883 104.0290153  77.2161351  59.3352375
 104.3404276  77.6582214  60.7492602  92.5787166  81.0695315  67.7083257
  93.4990175  81.2473914  67.9023303  92.5436749  80.1251361  67.5562956
  81.7969331  76.2633909  56.6336531  81.4772115  75.4099217  56.3410905
  81.2502759  76.4782487  57.3894498  85.5749238  78.9796350  60.3506038
  85.7935248  79.9113458  60.3694071  85.9875012  78.6204324  61.1360842
  92.4953456  69.4864435  52.3381726  91.6854184  69.1411520  52.7136972
  93.1837873  69.1771979  52.9269338  94.4244004  68.5642482  53.9606023
  94.9775043  68.9837936  54.6196046  94.6614091  67.6378230  54.0028979
  90.4477103  74.5529556  69.7408787  90.3473830  75.5023913  69.6720878
  90.2298645  74.2247795  68.8684857  81.6657591  79.8836821  58.6029653
  80.9721062  79.4690773  58.0899607  82.4130582  79.9257357  58.0063072
  97.8022811  70.6743007  53.4684687  97.2221480  71.3327811  53.0862739
  97.5358744  69.8520352  53.0572104  96.2526378  70.0748065  55.6706007
  96.7526156  70.1864600  54.8620326  96.8961986  69.7709118  56.3106816
  90.3108373  77.9826695  68.5573848  89.8275455  78.7827055  68.7637737
  90.3969312  77.9934640  67.6041292  83.5794333  79.8155074  56.4795668
  83.5565021  79.9142762  55.5277551  83.8894970  80.6620225  56.8012834
  86.2381711  81.8731229  60.5942282  87.1924964  81.8415172  60.5272214
  86.0394235  81.4121853  61.4092508  86.8281093  80.4432345  63.1613080
  87.6473982  80.9376424  63.1847917  87.1017901  79.5264314  63.1330647
  96.5847689  72.8343098  52.5241035  95.6973544  73.1192748  52.3061230
  97.0001678  72.6736861  51.6768312  99.9362225  72.8589619  56.2395374
 100.7122616  73.3486071  56.5119991  99.2110360  73.2847673  56.6967244
 102.3734784  73.5717238  57.2969315 102.9679275  73.3312974  56.5862623
 102.4461368  72.8524368  57.9242851  84.5931940  87.4150849  57.6112480
  84.4586408  86.6551250  57.0450478  84.1764002  88.1391749  57.1441269
  95.7290903  82.5987772  46.6189055  96.4326753  82.8037775  47.2346711
  95.0053551  83.1664534  46.8838139  96.5588713  78.3497634  52.7391325
  96.5023914  78.8066185  51.8998958  97.1117055  77.5888318  52.5614168
 100.3693519  74.1387365  53.5641445 100.1130453  73.7384001  54.3949653
  99.7446387  74.8531159  53.4391584 104.6805857  76.8783439  56.0712736
 104.1205415  76.9476628  56.8444298 104.0749360  76.7024423  55.3512233
  87.7501066  88.3120166  57.8230923  87.6333450  89.2565598  57.7209613
  86.9293512  88.0093727  58.2116722  97.6377600  83.0370302  48.6687515
  98.4723204  82.6051500  48.4864990  97.4761943  82.8652315  49.5964410
  97.2923492  79.5402415  50.0343855  97.2372296  79.3746686  49.0932299
  96.6669548  80.2478448  50.1906044  82.0816007  74.7770479  63.8605277
  82.7274871  74.2669433  64.3492502  81.8733158  75.5139161  64.4348702
  94.6069399  81.8451327  69.3597417  95.4760559  82.0191979  68.9984052
  94.1276151  82.6645744  69.2373147  90.6019618  69.0410524  49.6129173
  90.5898288  69.9852364  49.7697444  91.4943040  68.8580669  49.3188634
  88.7755580  88.9648428  61.0386851  89.6782826  88.9972038  61.3553346
  88.5492950  88.0348879  61.0533187  90.5309182  87.7179414  57.6996930
  89.5804813  87.7181276  57.5861302  90.8341668  86.9712149  57.1832964
  94.4171737  65.6353301  53.8675110  93.6504133  65.0811787  54.0131792
  94.8282442  65.7075169  54.7289261 106.2661875  93.5539953  58.7642692
 106.9040285  93.4346700  58.0606032 106.1482718  94.5020797  58.8230644
 103.0751582  93.5067381  58.7004217 102.7370093  93.3908445  57.8124752
 103.9441350  93.1058546  58.6805223  98.9338397  95.3602857  54.6901108
  98.3703262  95.2692794  53.9217395  98.8190792  94.5402762  55.1703600
 103.5571365  94.6602233  64.6590422 103.5460005  94.2655031  63.7870926
 103.7192004  93.9268305  65.2524194  96.4802829  96.8554049  57.5285328
  97.2724121  96.5144873  57.1131627  96.7199479  96.9649024  58.4487481
 104.5137956  99.0273825  50.0015573 103.8625936  99.6127905  49.6149586
 105.3082319  99.5580020  50.0610610  98.4393583  96.1162962  50.4002707
  99.2124459  95.5691949  50.2615583  98.7918982  96.9807211  50.6117168
 100.2778626  97.4439344  63.6069606  99.9868492  98.3484975  63.4916273
 100.9135610  97.4855872  64.3213676 101.2034833  94.8216193  60.1970966
 101.7998405  94.5972215  59.4827929 101.2609804  94.0800938  60.7996414
 100.7759861  92.2755628  48.0321157 101.0285382  91.7537149  47.2704620
  99.8384420  92.1121774  48.1347840 105.8203144  91.2791407  55.8395900
 106.6066233  90.8610830  55.4886317 106.0841848  92.1837499  56.0077548
 105.9913221  96.7164257  50.5384557 105.3559054  96.7898883  51.2505461
 105.6610627  97.3057856  49.8603636 111.2211571  91.2166640  56.7428879
 111.9536743  90.6465857  56.9766708 110.4650927  90.8288240  57.1835384
 100.4956150  94.1783734  50.2345532 100.3792408  93.5028638  50.9026616
 100.6058410  93.6916108  49.4177685 102.8387691  93.6393881  53.9392221
 102.4745898  93.1124502  54.6505142 103.6954806  93.2492350  53.7658706
 108.7436991  84.9288214  61.2023487 108.4120316  85.7983625  60.9784702
 108.1482605  84.6124498  61.8817518 102.4793178  88.6683781  48.9353570
 102.6467580  89.5364017  49.3024041 102.2890347  88.8311063  48.0114859
 105.2368511  97.1300760  60.6019400 104.9369234  98.0325799  60.4935207
 104.8919570  96.8632943  61.4540553  98.6880992  93.5814557  56.6356104
  97.7631489  93.4490771  56.8433796  98.9365405  94.3608776  57.1326047
 108.6365655  89.6483300  58.2816837 107.7282532  89.5798708  57.9875598
 108.5853250  90.1255245  59.1098663 102.4582398  91.1241438  49.9200236
 102.3382024  91.5698489  50.7585717 101.7634987  91.4726756  49.3613774
  96.0489803  93.2247830  57.4699893  96.1782184  93.4782309  58.3839305
  95.3687255  93.8175538  57.1504548 100.2189291 103.8945080  53.5690368
 100.1413320 104.8452905  53.6478848  99.6150934 103.5490953  54.2265294
 102.7106520  91.0672946  66.2251734 101.9339854  91.6266866  66.2154599
 103.3497083  91.5529729  66.7466605 110.5027301  87.8499738  60.0594711
 109.8601681  88.1432272  59.4134506 109.9982229  87.7352659  60.8647908
 108.1567465  91.5962912  50.7480570 109.0685321  91.8290298  50.5728268
 107.6477112  92.1799956  50.1855649 100.9652893  93.8758399  65.7869701
 101.7067577  94.4143443  65.5104525 100.2589878  94.5024688  65.9441253
 106.4408232  96.0187539  64.3841863 106.8491588  95.5769950  63.6396495
 105.7185494  95.4440167  64.6376056 102.7939302  90.9560146  61.7575420
 103.6400497  91.3799560  61.9010069 102.7337940  90.2993771  62.4513983
 106.7637047  96.5788730  58.1394152 106.1345909  96.7434444  57.4370220
 106.3762709  96.9930340  58.9105116 110.6426279  97.5143168  55.4938516
 109.9577317  97.8942069  54.9435549 110.7270128  98.1238495  56.2270463
 105.9438748  88.6164515  63.4156594 105.6999680  89.3706575  62.8790869
 106.2198678  88.9949862  64.2503841 107.8977210  95.1603127  62.0933859
 108.1094106  95.8034887  61.4168240 107.8506959  94.3265443  61.6255789
 105.5003439  87.7720948  58.9970431 104.6387918  88.0702201  59.2887169
 105.5265874  87.9891346  58.0651464 102.3165009  96.3163138  55.4044237
 102.7803354  96.5950841  54.6148859 102.0521807  95.4146583  55.2217328
  99.2089090  95.8634620  58.3424000  99.7790447  96.2921888  57.7041485
  99.7997202  95.5817204  59.0408186 101.2533895  92.4386291  52.2133802
 101.9557938  92.8907334  52.6807728 100.9214523  91.7970109  52.8413695
  99.7014256  91.0298047  66.5885011  99.0712917  91.7114328  66.8220408
  99.5950344  90.9181129  65.6438150  94.9959229  90.6969843  57.5150936
  94.2058283  90.9527372  57.0391046  95.4870476  91.5118181  57.6202976
 109.0123038  98.0375082  60.2656216 109.8340482  97.6355270  59.9838898
 109.0085441  97.9343317  61.2172332  96.9473974  91.0614422  54.4734412
  96.1505137  91.1733117  54.9917908  96.7199566  91.4001075  53.6075303
 102.7779642  97.5859126  62.4216927 102.8424074  98.0479533  63.2575099
 102.0690566  96.9556491  62.5499237  93.2796932  90.9500334  59.9465926
  93.5304970  91.8347344  60.2123502  93.8156480  90.7704935  59.1741018
 117.1029031  94.3813831  56.6141188 116.3492740  93.8121229  56.4585192
 117.2376573  94.3476495  57.5611823 102.4927659  99.2527233  52.2895907
 102.3573334 100.0978769  52.7180755 103.0337472  99.4546511  51.5261841
  98.9794999  85.3318813  68.9510263  98.5861945  84.7785012  69.6257907
  99.7961139  85.6429391  69.3416780  95.9457057  96.7702671  52.8623832
  96.4581577  97.5645921  53.0129397  96.5979770  96.0728962  52.7957434
  97.7551942  99.8868427  54.9446586  97.9318570 100.8086392  54.7567569
  98.5508775  99.5726847  55.3740965 101.8962960  86.7476692  66.5430519
 102.6372673  87.3483845  66.4634982 102.1280883  86.0054330  65.9848562
  97.0404298  91.9333059  64.8208749  96.9257813  91.0318317  65.1215848
  96.1848816  92.1796756  64.4693565 104.1196136  99.8750800  66.4196249
 103.6759990  99.0887178  66.1017154 104.7813349 100.0629950  65.7540140
  98.8783257 101.4046601  60.9456928  99.4290682 101.2763665  60.1733922
  98.0394733 101.7041490  60.5951821 106.2177374 100.1553600  64.4477651
 106.1995849 100.9762481  63.9557920 107.1397294 100.0307675  64.6727792
 102.6750428  97.6697729  65.2901159 103.2078765  96.9086017  65.0600467
 102.1464509  97.3771381  66.0325314 105.8420123  82.7757795  60.8194801
 105.4984392  83.6659437  60.7433911 106.2099086  82.5859453  59.9564386
  93.9105974  95.0991325  53.6383403  94.7481196  95.5088334  53.4217111
  94.0884241  94.1590768  53.6083597 105.8070406  92.7666406  49.3267236
 105.2917029  93.5371011  49.5655623 105.5347714  92.0931542  49.9500297
 103.3917517  87.6116107  54.3852474 102.5359113  87.2222957  54.2058113
 103.8044469  87.6908068  53.5252260 104.9216663  85.1462450  58.7844034
 104.4181459  85.1092585  57.9711839 105.2147270  86.0555193  58.8440691
 101.1659549  85.2301180  57.7910216 102.0312546  85.0343989  57.4316105
 101.2337058  85.0011532  58.7179573 110.7804680  95.5198761  51.2620409
 110.0034123  95.1809920  50.8175571 111.4596161  95.5251384  50.5875374
 105.5956709  90.6393498  51.1527017 105.2906844  90.9539647  52.0037160
 106.5487151  90.7174918  51.1954350 104.0403141  96.7983722  52.8019971
 103.5124502  96.0636481  52.4893208 103.5390643  97.5758398  52.5559939
 109.0195987  94.9932742  57.9187017 108.3619661  95.6832003  58.0067146
 109.8236386  95.3829174  58.2621004  98.7721868  87.4603388  55.1626583
  99.3465620  87.2378569  54.4299776  99.3592851  87.5292082  55.9155184
 107.8301446  93.3477115  55.9690959 108.3433327  93.9807107  56.4712669
 108.4802669  92.7478310  55.6034319  99.0991455  89.4907849  49.1822468
  98.2628768  89.8282535  49.5031743  98.9596225  89.3556829  48.2449605
 101.0744536  84.3344637  53.8901652 100.4208948  84.0193654  53.2658267
 101.0325010  83.7120377  54.6161475 102.1855741  94.6163932  45.8054944
 101.2782803  94.3853185  46.0046093 102.6826773  93.8201551  45.9928926
 105.0923820 103.3261439  48.7251630 104.4185519 103.6293136  49.3336588
 105.4789642 104.1290519  48.3757087 104.3082276  90.8226570  58.2149300
 103.3904838  91.0441517  58.0570988 104.7242420  90.8972881  57.3561007
 105.0917324  92.2217986  53.3451980 105.8389143  92.7339383  53.0359102
 105.3608914  91.9002039  54.2056373 103.3643974  94.7176527  50.3278934
 102.4555194  94.4335559  50.4251404 103.3939058  95.1375605  49.4682241
 108.5963242  98.3283116  54.0970102 108.1425569  97.4874026  54.1535292
 107.9657208  98.9644515  54.4344882 107.5396161  89.2575102  55.3270769
 106.8018918  88.7452488  55.6581012 107.7922935  88.8175484  54.5154046
 107.0396181 100.1659613  55.0319920 107.3319155 100.7264670  54.3132286
 107.5494802 100.4588174  55.7873079 107.6407789  82.0351354  55.9212538
 107.9466665  81.1748718  55.6338454 108.3660393  82.6268974  55.7211532
  93.9332145  92.4382041  54.3094136  93.7356545  91.8451402  53.5845203
  93.3778809  92.1334251  55.0270075 101.9128868  92.3305147  56.4288730
 101.9677478  91.3778984  56.3531206 101.1020070  92.4864586  56.9130028
 103.0620062  96.2585270  47.6667013 102.6239492  95.5421129  47.2072650
 103.8030503  96.4861385  47.1052104  99.8521228  90.9482207  54.1879108
  99.0389094  91.2476378  54.5944301 100.3480223  90.5537896  54.9053591
 102.0029806 100.9439964  56.1213373 101.9605985 101.1700810  55.1921905
 102.9192505 100.7103339  56.2699174 105.4495440  91.4124031  63.0194002
 105.8044828  91.6395505  63.8788468 106.0967571  91.7442408  62.3971258
 111.1793177  94.5342467  53.7243331 111.0411076  94.7244063  52.7964521
 110.8229396  95.2961850  54.1811382  99.3435303  88.5200563  59.8040343
  99.9834682  88.3789322  59.1063307  98.5112834  88.2335076  59.4278945
 111.2062557  96.6018994  58.7354603 111.6399063  96.5094283  59.5837657
 111.9194137  96.5776495  58.0974619 100.1195607  97.8202993  55.9175336
 100.9136205  97.3253313  55.7157911  99.4087299  97.2920856  55.5543041
 104.9390451 100.2021088  60.2687703 104.9927474 100.7712025  61.0365419
 104.0705233 100.3722974  59.9041741  96.4278370  91.9646075  51.9935088
  95.4975959  91.9030530  52.2105051  96.5235842  91.4422027  51.1971730
  96.3463920  88.4900888  54.5813330  96.6070737  89.4046221  54.4722491
  97.1681092  88.0225330  54.7309943  97.8188845  89.9038645  61.7512155
  98.4911898  89.6956007  61.1024804  96.9918631  89.7060731  61.3117387
 112.0678106  96.6442695  61.2687488 112.2613996  97.5488506  61.5146763
 111.9678724  96.1850114  62.1026073 103.7214417  86.5300586  63.7677816
 103.0742332  87.2290535  63.6742292 104.4915432  86.9636730  64.1354064
 107.1293215  96.7949438  66.8428369 106.9778721  96.5659989  65.9258453
 107.1197894  97.7520039  66.8559714 103.8978551  94.3681351  61.8274635
 104.8270611  94.5192510  61.6543603 103.4769581  94.4565371  60.9723282
 102.6966883  98.3932015  59.5973173 102.5577969  98.0250799  60.4699111
 101.9081479  98.9079654  59.4257131 103.2915035 103.4941111  50.9398709
 103.4666791 103.0229155  51.7544332 102.6047823 104.1206878  51.1679970
 104.2472098  97.7713618  56.9862011 103.9121931  97.7314388  57.8819661
 103.7476044  97.1058334  56.5132421  98.2216342  93.1781248  62.5114592
  98.0836140  92.4461487  63.1126131  99.1321266  93.0890148  62.2298780
 107.1831290  95.1169652  47.2599070 106.5660460  94.3916480  47.1632123
 106.7147778  95.8779012  46.9166145 100.8498643  92.8901207  61.9998271
 101.5598261  92.2494399  61.9584890 100.8067951  93.1414102  62.9224452
 108.8385421  99.8268560  64.9204851 108.7797968  99.1427780  64.2535434
 109.2404940 100.5687550  64.4685477  99.5627577  89.8766425  63.8193911
  99.0264934  89.4257163  64.4715507  98.9744285  90.0112334  63.0764375
  97.8576120 106.6430474  57.7138570  98.0972718 107.2748998  58.3917588
  97.0145317 106.2918514  58.0003929  98.9729836  89.3355076  46.3820375
  98.0959302  89.2143877  46.0182621  99.4487589  88.5441155  46.1299263
 108.8402829  97.7908144  63.1518830 107.9529607  97.4534066  63.2745229
 109.4101380  97.0591176  63.3887596  90.4931976  94.1232236  56.4761882
  91.1803016  93.8093966  55.8882897  90.3380105  95.0273601  56.2029133
  95.2966698  89.0122433  60.9046905  95.2124887  88.4048102  60.1697315
  94.4749404  89.5031451  60.9056402 102.3703982 102.4509597  60.1180074
 102.2974154 103.2564568  60.6299378 101.9281375 102.6501562  59.2928095
 102.1593762 101.6881367  53.6282895 101.3761284 102.2303047  53.7221120
 102.8586507 102.2055346  54.0277136 105.4690412  87.4975996  56.2717101
 105.9659111  86.7445958  55.9518171 104.6977393  87.5340313  55.7060310
 113.3220169  93.2016362  57.9135392 113.3110045  94.0841077  57.5429325
 112.4537549  92.8487912  57.7189929 104.8302666 102.3496431  62.2738232
 105.5430638 102.9843895  62.2014134 104.3392694 102.4460297  61.4578234
 106.5520193  96.2547683  53.8455524 105.6176471  96.3749146  53.6760228
 106.7296861  95.3520150  53.5815534 102.0525381  89.6393379  55.9988785
 101.6823168  89.0864419  56.6869691 102.5484473  89.0351513  55.4463785
 109.9392744  92.0965003  54.3805558 110.4053196  92.9292994  54.3065861
 110.3900244  91.6309984  55.0850817  99.8814579 100.0990874  63.0943803
 100.5824039 100.7327357  63.2473197  99.4109694 100.4405606  62.3339442
 108.0068975  98.4408824  51.3791710 108.2828819  98.3265418  52.2885584
 107.1373474  98.0426309  51.3403883 107.9109407  84.4645590  58.4196459
 106.9972486  84.6949816  58.5878666 108.3402508  84.5484034  59.2710492
 107.6815865  92.6535482  60.9196353 107.0287315  92.9011389  60.2648806
 108.0596245  91.8399620  60.5858831 104.6423039 102.6895175  55.0224524
 104.8245434 101.8716831  55.4852276 105.4656025 102.9062867  54.5849414
 104.9765205 101.6163360  52.2839572 105.5052971 101.1055814  51.6709734
 105.2393424 101.3005890  53.1485105 103.7303438  93.3955293  67.4062391
 103.0544075  93.2949422  68.0764766 104.5531072  93.2394506  67.8698388
  95.4782297  99.6327229  60.0274906  96.0635734  98.8870917  60.1602810
  95.2807136  99.9431186  60.9111570  98.3320952 102.6678477  55.0437348
  97.6631328 103.1524604  54.5601388  98.1933822 102.9147697  55.9580727
  90.0699952  92.2032829  58.7479349  90.1084051  91.6696420  59.5416467
  89.5640245  91.6768035  58.1290326 102.4726221 104.7022220  61.6420006
 103.0244529 104.8653842  62.4069092 102.8132414 105.2926658  60.9700031
  97.4490714  87.0497370  62.2441891  97.5132041  87.9112201  61.8319289
  97.3857835  86.4371372  61.5114250  96.9242987  89.1220502  65.8914925
  97.5515026  88.7397580  66.5052450  96.0670906  88.9034704  66.2570618
 107.3237095  99.5283478  67.4968661 107.8676999 100.1413436  67.0023616
 106.7423940 100.0863056  68.0135674  93.7008530  90.9296932  51.8233280
  93.9961971  90.0207610  51.7700334  92.7996565  90.9084671  51.5014283
 105.6094608 102.6504196  58.6283689 105.4845748 101.8493935  58.1194634
 106.2673699 103.1450389  58.1397659  97.2302777  89.0052928  57.8060829
  96.5089362  89.6188896  57.6668302  98.0196032  89.5410693  57.7277475
 107.6729517 100.4513216  60.2563239 106.7259852 100.3318567  60.1841565
 108.0212290  99.5635714  60.3389500 100.0329090  86.3407355  64.0801481
 100.5563492  86.5869651  64.8427790  99.8141423  87.1727389  63.6604618
  95.4296371  88.6111029  51.9472605  95.1009077  87.7308408  51.7647711
  95.7835742  88.5558698  52.8348995 104.6775950 100.2465932  56.4567591
 104.5300912  99.3182639  56.6375161 105.5029443 100.2686023  55.9724666
  98.5438194  88.8983999  52.3148083  98.8834267  89.4269920  51.5926691
  98.9910315  89.2364405  53.0906650 108.2810072 101.0694491  57.5432464
 109.2056619 100.8637352  57.4056915 108.1125375 100.8210892  58.4521805
 101.2381635  87.2821050  61.7651151 100.8978455  86.4828863  62.1671831
 100.5320641  87.5822761  61.1927984 101.8898107  84.3670362  60.2178474
 102.7124176  83.8930840  60.0957365 102.1336170  85.1460846  60.7177160
 100.5306341  87.3958621  50.5141376 101.2514704  87.7739873  50.0105093
  99.9071646  88.1147497  50.6176354 104.6737464  88.1003770  51.4499708
 104.8901079  88.9828407  51.1488536 104.1931531  87.7089983  50.7205350
  99.4136686  91.0589483  58.0270453  99.2681266  91.3729786  58.9194734
  98.9361889  91.6774383  57.4741351 101.2733069  88.0492031  58.0751342
 101.2594637  87.1533124  57.7383640 101.9905497  88.0562695  58.7089628
 103.1259199  88.4829371  60.1204470 102.8676977  89.4046442  60.1188800
 102.5944240  88.0859806  60.8104934 108.0705388 101.5880158  52.8994555
 108.2442266 101.0226581  52.1468408 108.5634279 102.3881053  52.7174045
  93.8882348  93.5994827  60.9658114  93.3435816  94.3754635  61.0978388
  94.7661698  93.9465632  60.8077235 100.6769964  86.9306411  53.3438912
 100.7985876  86.0023057  53.5429800 100.3872007  86.9445097  52.4317228
 103.5461155  84.6161321  56.4805632 103.5682852  84.6800655  55.5257612
 103.9629214  83.7765830  56.6746138 113.9244779  94.3516581  54.5184855
 114.3675925  93.6023906  54.1203978 113.0471290  94.3426717  54.1358587
 109.0580561 100.9046922  49.9991453 109.7531465 101.5253615  50.2178768
 109.4003711 100.0542274  50.2743831  94.6748370  92.7264723  63.8588271
  93.9330106  92.8747359  64.4452901  94.3541114  92.9872989  62.9955020
 110.9571984  98.3546628  51.5278784 111.4823308  98.6933901  50.8028104
 110.8694336  97.4193643  51.3441919 102.6192032 102.2680702  63.6568661
 102.9279159 102.0229848  64.5291360 103.4167514 102.4727340  63.1687531
 102.6412644 104.4218611  55.8874037 102.2017635 103.9294990  56.5806894
 103.3920761 103.8791579  55.6466113  95.1204983 100.6130152  55.8898665
  95.9463003 100.3133924  55.5097309  94.7699035  99.8437775  56.3388454
 100.0886517  99.9656620  57.9596339  99.4666526  99.3027325  57.6598567
 100.7591383  99.9917752  57.2769987  93.3213588  98.5316479  56.8487599
  92.4845497  98.1038653  56.6671600  93.2937234  98.7248922  57.7858390
 100.1611044  88.4438408  67.5528845 100.2099200  89.3200531  67.1706615
 100.7033558  87.9015801  66.9800488 110.6465890  98.9879532  66.8329982
 109.8561433  98.9703671  66.2934482 110.4099244  99.5267825  67.5879019
 110.7663765  95.8371998  64.1462711 110.8161770  95.6722005  65.0878233
 110.6577688  94.9699257  63.7560591  99.6500023  98.5160544  51.4354800
  99.7988144  99.1996008  50.7821472 100.4566467  98.4965634  51.9504255
 108.0567527  91.8202926  65.4622017 108.9577390  91.6809391  65.1706015
 108.1315502  91.9857381  66.4020195 102.3910332  89.1969781  64.3075204
 101.5213642  89.4903347  64.0357792 102.6269813  89.7810226  65.0282467
 112.2681962  98.2568940  64.3904732 111.9766770  98.6198920  65.2268193
 111.6554093  97.5435948  64.2118064 113.4677644  95.8221819  56.9107302
 114.3024535  96.2611623  57.0744863 113.6036773  95.3460473  56.0915548
 110.5169150  93.3801554  62.8584790 110.9923271  93.5729200  62.0503642
 109.5934715  93.4360740  62.6128174  97.4052656  94.5425721  52.4415869
  97.1598698  93.6388051  52.6396079  97.5748571  94.5442872  51.4995347
 105.0949366  85.4149398  61.8240624 105.6131310  86.1510425  61.4987113
 104.7404499  85.7213391  62.6587383  96.6748304  90.2754079  49.9402030
  95.9817549  90.3498434  49.2842066  96.4300056  89.5114423  50.4623547
 105.3461960  81.8349680  57.3441521 105.6263714  81.1672869  57.9701947
 106.1312567  82.0278776  56.8316185 103.1495429 101.0108674  48.9066547
 102.5769396 101.6298861  48.4537019 103.7228223 101.5608036  49.4406469
 109.2170819  90.2567314  61.0913096 110.1688242  90.3565412  61.1125320
 109.0474269  89.4645583  61.6011180 107.2385198  87.3422897  61.2772497
 106.6435130  87.6227910  60.5818985 106.9534895  87.8316798  62.0489238
 106.3692689 101.2945824  50.0375129 107.3023362 101.2291386  50.2408005
 106.2815902 102.1302091  49.5789662 108.9980705 100.6111695  46.9979077
 108.9194337 100.2771558  47.8914835 109.8190372 101.1033463  46.9970549
 111.6958897  93.4773434  60.2055395 111.6635217  92.5389435  60.3915079
 112.3059520  93.5557471  59.4721220 103.5342227  92.3469487  46.2482600
 104.4801332  92.2175695  46.3171018 103.1556472  91.6084149  46.7252028
 111.8453385  90.2684477  60.2513679 111.3292434  89.4842934  60.0643608
 112.7293334  89.9403194  60.4160198 109.5064112  84.0125493  56.2109491
 109.3088933  83.7040581  57.0952823 110.1163818  84.7387132  56.3407421
 117.5135446  94.5389441  59.3461432 118.2438835  94.2774729  59.9069136
 116.9042392  93.8018163  59.3863500 115.5950744  92.6797303  59.9435883
 114.8683907  92.5453268  59.3352375 115.1798030  92.9874132  60.7492602
 103.4180920  96.3987233  67.7083257 104.3383929  96.5765832  67.9023303
 103.3830503  95.4543278  67.5562956 101.7185145  90.2719463  46.1837485
 100.8116600  89.9752576  46.2600198 101.9961126  89.9749281  45.3171771
  92.6363085  91.5925827  56.6336531  92.3165869  90.7391135  56.3410905
  92.0896513  91.8074405  57.3894498  96.4142993  94.3088268  60.3506038
  96.6329002  95.2405376  60.3694071  96.8268766  93.9496242  61.1360842
 103.3347210  84.8156353  52.3381726 102.5247939  84.4703438  52.7136972
 104.0231627  84.5063897  52.9269338 105.2637759  83.8934400  53.9606023
 105.8168797  84.3129853  54.6196046 105.5007845  82.9670148  54.0028979
 101.2870858  89.8821473  69.7408787 101.1867585  90.8315830  69.6720878
 101.0692400  89.5539712  68.8684857 100.4883929  87.1306399  46.3249464
 101.3503093  87.4561297  46.5845281 100.6734273  86.3437894  45.8122530
  92.5051345  95.2128738  58.6029653  91.8114816  94.7982691  58.0899607
  93.2524336  95.2549275  58.0063072 108.6416566  86.0034925  53.4684687
 108.0615235  86.6619729  53.0862739 108.3752498  85.1812270  53.0572104
 107.0920132  85.4039983  55.6706007 107.5919910  85.5156517  54.8620326
 107.7355740  85.1001036  56.3106816 101.1502128  93.3118612  68.5573848
 100.6669210  94.1118972  68.7637737 101.2363067  93.3226557  67.6041292
  94.4188088  95.1446992  56.4795668  94.3958776  95.2434679  55.5277551
  94.7288724  95.9912143  56.8012834  97.0775465  97.2023147  60.5942282
  98.0318719  97.1707089  60.5272214  96.8787989  96.7413771  61.4092508
  97.6674848  95.7724263  63.1613080  98.4867737  96.2668342  63.1847917
  97.9411655  94.8556231  63.1330647 107.4241444  88.1635015  52.5241035
 106.5367299  88.4484666  52.3061230 107.8395433  88.0028779  51.6768312
 110.7755980  88.1881536  56.2395374 111.5516370  88.6777989  56.5119991
 110.0504114  88.6139591  56.6967244 113.2128539  88.9009156  57.2969315
 113.8073029  88.6604892  56.5862623 113.2855122  88.1816286  57.9242851
  95.4325694 102.7442767  57.6112480  95.2980162 101.9843167  57.0450478
  95.0157756 103.4683666  57.1441269 106.5684657  97.9279690  46.6189055
 107.2720507  98.1329693  47.2346711 105.8447306  98.4956452  46.8838139
 107.3982467  93.6789551  52.7391325 107.3417669  94.1358103  51.8998958
 107.9510810  92.9180236  52.5614168 111.2087273  89.4679283  53.5641445
 110.9524208  89.0675919  54.3949653 110.5840141  90.1823077  53.4391584
 115.5199611  92.2075356  56.0712736 114.9599169  92.2768546  56.8444298
 114.9143115  92.0316341  55.3512233  98.5894820 103.6412084  57.8230923
  98.4727204 104.5857516  57.7209613  97.7687266 103.3385645  58.2116722
 108.4771355  98.3662219  48.6687515 109.3116959  97.9343418  48.4864990
 108.3155698  98.1944233  49.5964410 108.1317247  94.8694333  50.0343855
 108.0766051  94.7038604  49.0932299 107.5063302  95.5770365  50.1906044
  92.9209762  90.1062397  63.8605277  93.5668625  89.5961351  64.3492502
  92.7126913  90.8431079  64.4348702 105.4463154  97.1743244  69.3597417
 106.3154314  97.3483897  68.9984052 104.9669905  97.9937661  69.2373147
 101.4413372  84.3702442  49.6129173 101.4292042  85.3144281  49.7697444
 102.3336794  84.1872587  49.3188634  99.6149334 104.2940345  61.0386851
 100.5176581 104.3263956  61.3553346  99.3886704 103.3640796  61.0533187
 101.3702936 103.0471332  57.6996930 100.4198567 103.0473194  57.5861302
 101.6735422 102.3004067  57.1832964 105.2565492  80.9645218  53.8675110
 104.4897888  80.4103705  54.0131792 105.6676197  81.0367087  54.7289261
  97.2607253  87.2530014  67.9580291  98.1238714  86.8966819  68.1683616
  96.6872663  86.9143909  68.6455695 117.1055630 108.8831870  58.7642692
 117.7434040 108.7638618  58.0606032 116.9876473 109.8312714  58.8230644
 113.9145336 108.8359298  58.7004217 113.5763848 108.7200363  57.8124752
 114.7835104 108.4350464  58.6805223 109.7732152 110.6894775  54.6901108
 109.2097017 110.5984712  53.9217395 109.6584547 109.8694679  55.1703600
 114.3965119 109.9894150  64.6590422 114.3853760 109.5946948  63.7870926
 114.5585758 109.2560223  65.2524194 107.3196584 112.1845966  57.5285328
 108.1117876 111.8436791  57.1131627 107.5593234 112.2940942  58.4487481
 115.3531710 114.3565743  50.0015573 114.7019690 114.9419823  49.6149586
 116.1476073 114.8871937  50.0610610 109.2787338 111.4454880  50.4002707
 110.0518214 110.8983867  50.2615583 109.6312736 112.3099129  50.6117168
 111.1172380 112.7731262  63.6069606 110.8262246 113.6776893  63.4916273
 111.7529364 112.8147790  64.3213676 112.0428587 110.1508111  60.1970966
 112.6392159 109.9264133  59.4827929 112.1003559 109.4092856  60.7996414
 111.6153615 107.6047546  48.0321157 111.8679136 107.0829067  47.2704620
 110.6778174 107.4413691  48.1347840 116.6596898 106.6083324  55.8395900
 117.4459987 106.1902747  55.4886317 116.9235603 107.5129416  56.0077548
 116.8306976 112.0456175  50.5384557 116.1952809 112.1190801  51.2505461
 116.5004382 112.6349773  49.8603636 122.0605325 106.5458557  56.7428879
 122.7930497 105.9757774  56.9766708 121.3044681 106.1580158  57.1835384
 111.3349904 109.5075652  50.2345532 111.2186162 108.8320555  50.9026616
 111.4452164 109.0208026  49.4177685 113.6781445 108.9685799  53.9392221
 113.3139652 108.4416420  54.6505142 114.5348561 108.5784268  53.7658706
 119.5830746 100.2580132  61.2023487 119.2514070 101.1275542  60.9784702
 118.9876359  99.9416416  61.8817518 113.3186932 103.9975699  48.9353570
 113.4861334 104.8655935  49.3024041 113.1284101 104.1602980  48.0114859
 116.0762265 112.4592678  60.6019400 115.7762988 113.3617716  60.4935207
 115.7313325 112.1924861  61.4540553 109.5274747 108.9106474  56.6356104
 108.6025243 108.7782688  56.8433796 109.7759160 109.6900694  57.1326047
 119.4759409 104.9775218  58.2816837 118.5676286 104.9090626  57.9875598
 119.4247005 105.4547163  59.1098663 113.2976153 106.4533356  49.9200236
 113.1775778 106.8990407  50.7585717 112.6028741 106.8018674  49.3613774
 106.8883558 108.5539748  57.4699893 107.0175939 108.8074227  58.3839305
 106.2081009 109.1467456  57.1504548 111.0583045 119.2236998  53.5690368
 110.9807075 120.1744823  53.6478848 110.4544689 118.8782870  54.2265294
 113.5500275 106.3964863  66.2251734 112.7733609 106.9558783  66.2154599
 114.1890838 106.8821646  66.7466605 121.3421055 103.1791656  60.0594711
 120.6995436 103.4724189  59.4134506 120.8375984 103.0644576  60.8647908
 118.9961219 106.9254829  50.7480570 119.9079075 107.1582216  50.5728268
 118.4870866 107.5091873  50.1855649 111.8046647 109.2050317  65.7869701
 112.5461331 109.7435361  65.5104525 111.0983633 109.8316605  65.9441253
 117.2801987 111.3479457  64.3841863 117.6885343 110.9061868  63.6396495
 116.5579248 110.7732085  64.6376056 113.6333057 106.2852064  61.7575420
 114.4794252 106.7091477  61.9010069 113.5731694 105.6285688  62.4513983
 117.6030801 111.9080648  58.1394152 116.9739664 112.0726362  57.4370220
 117.2156463 112.3222257  58.9105116 121.4820033 112.8435086  55.4938516
 120.7971071 113.2233987  54.9435549 121.5663883 113.4530412  56.2270463
 116.7832502 103.9456432  63.4156594 116.5393434 104.6998493  62.8790869
 117.0592433 104.3241780  64.2503841 118.7370965 110.4895045  62.0933859
 118.9487860 111.1326805  61.4168240 118.6900713 109.6557361  61.6255789
 116.3397194 103.1012865  58.9970431 115.4781673 103.3994119  59.2887169
 116.3659628 103.3183264  58.0651464 113.1558763 111.6455056  55.4044237
 113.6197109 111.9242759  54.6148859 112.8915561 110.7438500  55.2217328
 110.0482844 111.1926537  58.3424000 110.6184201 111.6213806  57.7041485
 110.6390956 110.9109122  59.0408186 112.0927649 107.7678208  52.2133802
 112.7951693 108.2199252  52.6807728 111.7608278 107.1262027  52.8413695
 110.5408011 106.3589965  66.5885011 109.9106671 107.0406246  66.8220408
 110.4344099 106.2473046  65.6438150 105.8352983 106.0261761  57.5150936
 105.0452037 106.2819289  57.0391046 106.3264231 106.8410099  57.6202976
 119.8516793 113.3667000  60.2656216 120.6734237 112.9647187  59.9838898
 119.8479196 113.2635234  61.2172332 107.7867729 106.3906340  54.4734412
 106.9898892 106.5025034  54.9917908 107.5593321 106.7292992  53.6075303
 113.6173396 112.9151043  62.4216927 113.6817829 113.3771451  63.2575099
 112.9084320 112.2848408  62.5499237 104.1190686 106.2792251  59.9465926
 104.3698725 107.1639261  60.2123502 104.6550235 106.0996853  59.1741018
 127.9422786 109.7105749  56.6141188 127.1886494 109.1413147  56.4585192
 128.0770327 109.6768413  57.5611823 113.3321414 114.5819151  52.2895907
 113.1967089 115.4270687  52.7180755 113.8731226 114.7838428  51.5261841
 109.8188754 100.6610731  68.9510263 109.4255699 100.1076929  69.6257907
 110.6354894 100.9721309  69.3416780 106.7850811 112.0994589  52.8623832
 107.2975332 112.8937839  53.0129397 107.4373524 111.4020879  52.7957434
 108.5945696 115.2160345  54.9446586 108.7712324 116.1378310  54.7567569
 109.3902530 114.9018764  55.3740965 112.7356715 102.0768610  66.5430519
 113.4766428 102.6775763  66.4634982 112.9674637 101.3346248  65.9848562
 107.8798053 107.2624977  64.8208749 107.7651568 106.3610234  65.1215848
 107.0242570 107.5088674  64.4693565 114.9589890 115.2042717  66.4196249
 114.5153745 114.4179096  66.1017154 115.6207104 115.3921868  65.7540140
 109.7177011 116.7338519  60.9456928 110.2684437 116.6055582  60.1733922
 108.8788487 117.0333408  60.5951821 117.0571128 115.4845517  64.4477651
 117.0389604 116.3054398  63.9557920 117.9791048 115.3599592  64.6727792
 113.5144183 112.9989647  65.2901159 114.0472519 112.2377935  65.0600467
 112.9858264 112.7063299  66.0325314 116.6813878  98.1049713  60.8194801
 116.3378147  98.9951354  60.7433911 117.0492840  97.9151370  59.9564386
 104.7499728 110.4283243  53.6383403 105.5874950 110.8380252  53.4217111
 104.9277996 109.4882685  53.6083597 116.6464160 108.0958324  49.3267236
 116.1310784 108.8662928  49.5655623 116.3741469 107.4223460  49.9500297
 114.2311271 102.9408025  54.3852474 113.3752868 102.5514875  54.2058113
 114.6438223 103.0199985  53.5252260 115.7610418 100.4754368  58.7844034
 115.2575213 100.4384503  57.9711839 116.0541025 101.3847111  58.8440691
 112.0053304 100.5593098  57.7910216 112.8706301 100.3635906  57.4316105
 112.0730813 100.3303449  58.7179573 121.6198434 110.8490678  51.2620409
 120.8427877 110.5101838  50.8175571 122.2989915 110.8543302  50.5875374
 116.4350463 105.9685416  51.1527017 116.1300599 106.2831565  52.0037160
 117.3880906 106.0466836  51.1954350 114.8796895 112.1275639  52.8019971
 114.3518257 111.3928399  52.4893208 114.3784398 112.9050316  52.5559939
 119.8589741 110.3224660  57.9187017 119.2013416 111.0123921  58.0067146
 120.6630140 110.7121092  58.2621004 109.6115623 102.7895306  55.1626583
 110.1859375 102.5670487  54.4299776 110.1986605 102.8584000  55.9155184
 118.6695200 108.6769032  55.9690959 119.1827082 109.3099024  56.4712669
 119.3196424 108.0770228  55.6034319 109.9385210 104.8199767  49.1822468
 109.1022522 105.1574453  49.5031743 109.7989980 104.6848746  48.2449605
 111.9138291  99.6636554  53.8901652 111.2602703  99.3485572  53.2658267
 111.8718765  99.0412295  54.6161475 113.0249495 109.9455849  45.8054944
 112.1176557 109.7145103  46.0046093 113.5220527 109.1493469  45.9928926
 115.9317574 118.6553357  48.7251630 115.2579273 118.9585053  49.3336588
 116.3183396 119.4582437  48.3757087 115.1476031 106.1518488  58.2149300
 114.2298592 106.3733435  58.0570988 115.5636175 106.2264798  57.3561007
 115.9311079 107.5509904  53.3451980 116.6782898 108.0631301  53.0359102
 116.2002668 107.2293956  54.2056373 114.2037729 110.0468444  50.3278934
 113.2948948 109.7627477  50.4251404 114.2332813 110.4667523  49.4682241
 119.4356996 113.6575034  54.0970102 118.9819323 112.8165944  54.1535292
 118.8050963 114.2936432  54.4344882 118.3789916 104.5867020  55.3270769
 117.6412673 104.0744406  55.6581012 118.6316689 104.1467401  54.5154046
 117.8789936 115.4951531  55.0319920 118.1712910 116.0556588  54.3132286
 118.3888556 115.7880092  55.7873079 118.4801543  97.3643272  55.9212538
 118.7860420  96.5040635  55.6338454 119.2054148  97.9560892  55.7211532
 104.7725899 107.7673958  54.3094136 104.5750299 107.1743319  53.5845203
 104.2172563 107.4626169  55.0270075 112.7522623 107.6597065  56.4288730
 112.8071233 106.7070901  56.3531206 111.9413825 107.8156504  56.9130028
 113.9013817 111.5877188  47.6667013 113.4633247 110.8713047  47.2072650
 114.6424258 111.8153303  47.1052104 110.6914983 106.2774125  54.1879108
 109.8782848 106.5768295  54.5944301 111.1873977 105.8829813  54.9053591
 112.8423561 116.2731882  56.1213373 112.7999740 116.4992728  55.1921905
 113.7586260 116.0395256  56.2699174 116.2889195 106.7415949  63.0194002
 116.6438582 106.9687422  63.8788468 116.9361326 107.0734326  62.3971258
 122.0186931 109.8634385  53.7243331 121.8804830 110.0535981  52.7964521
 121.6623150 110.6253768  54.1811382 110.1829058 103.8492480  59.8040343
 110.8228437 103.7081239  59.1063307 109.3506588 103.5626994  59.4278945
 122.0456311 111.9310912  58.7354603 122.4792818 111.8386201  59.5837657
 122.7587892 111.9068413  58.0974619 110.9589361 113.1494911  55.9175336
 111.7529960 112.6545231  55.7157911 110.2481054 112.6212774  55.5543041
 115.7784206 115.5313006  60.2687703 115.8321228 116.1003942  61.0365419
 114.9098987 115.7014891  59.9041741 107.2672125 107.2937992  51.9935088
 106.3369713 107.2322448  52.2105051 107.3629597 106.7713945  51.1971730
 107.1857674 103.8192805  54.5813330 107.4464491 104.7338138  54.4722491
 108.0074846 103.3517248  54.7309943 108.6582599 105.2330562  61.7512155
 109.3305653 105.0247925  61.1024804 107.8312386 105.0352648  61.3117387
 122.9071861 111.9734613  61.2687488 123.1007751 112.8780423  61.5146763
 122.8072479 111.5142032  62.1026073 114.5608171 101.8592503  63.7677816
 113.9136086 102.5582453  63.6742292 115.3309187 102.2928647  64.1354064
 117.9686969 112.1241355  66.8428369 117.8172476 111.8951907  65.9258453
 117.9591649 113.0811957  66.8559714 114.7372306 109.6973268  61.8274635
 115.6664366 109.8484428  61.6543603 114.3163336 109.7857289  60.9723282
 113.5360637 113.7223933  59.5973173 113.3971723 113.3542717  60.4699111
 112.7475234 114.2371572  59.4257131 114.1308789 118.8233029  50.9398709
 114.3060545 118.3521072  51.7544332 113.4441577 119.4498795  51.1679970
 115.0865853 113.1005535  56.9862011 114.7515685 113.0606305  57.8819661
 114.5869798 112.4350251  56.5132421 109.0610097 108.5073165  62.5114592
 108.9229895 107.7753404  63.1126131 109.9715020 108.4182065  62.2298780
 118.0225044 110.4461570  47.2599070 117.4054215 109.7208398  47.1632123
 117.5541533 111.2070930  46.9166145 111.6892397 108.2193125  61.9998271
 112.3992016 107.5786317  61.9584890 111.6461705 108.4706020  62.9224452
 119.6779176 115.1560478  64.9204851 119.6191722 114.4719698  64.2535434
 120.0798694 115.8979468  64.4685477 110.4021331 105.2058343  63.8193911
 109.8658688 104.7549081  64.4715507 109.8138040 105.3404251  63.0764375
 108.6969875 121.9722392  57.7138570 108.9366473 122.6040916  58.3917588
 107.8539071 121.6210432  58.0003929 109.8123590 104.6646994  46.3820375
 108.9353057 104.5435795  46.0182621 110.2881343 103.8733072  46.1299263
 119.6796583 113.1200062  63.1518830 118.7923362 112.7825984  63.2745229
 120.2495134 112.3883093  63.3887596 101.3325730 109.4524154  56.4761882
 102.0196770 109.1385884  55.8882897 101.1773859 110.3565518  56.2029133
 106.1360452 104.3414350  60.9046905 106.0518641 103.7340020  60.1697315
 105.3143159 104.8323369  60.9056402 113.2097737 117.7801514  60.1180074
 113.1367908 118.5856486  60.6299378 112.7675130 117.9793480  59.2928095
 112.9987516 117.0173284  53.6282895 112.2155038 117.5594965  53.7221120
 113.6980261 117.5347264  54.0277136 116.3084166 102.8267914  56.2717101
 116.8052866 102.0737876  55.9518171 115.5371148 102.8632230  55.7060310
 124.1613924 108.5308279  57.9135392 124.1503800 109.4132995  57.5429325
 123.2931303 108.1779830  57.7189929 115.6696420 117.6788348  62.2738232
 116.3824392 118.3135813  62.2014134 115.1786449 117.7752214  61.4578234
 117.3913947 111.5839601  53.8455524 116.4570226 111.7041063  53.6760228
 117.5690615 110.6812068  53.5815534 112.8919135 104.9685297  55.9988785
 112.5216923 104.4156337  56.6869691 113.3878228 104.3643430  55.4463785
 120.7786498 107.4256920  54.3805558 121.2446951 108.2584912  54.3065861
 121.2293999 106.9601902  55.0850817 110.7208334 115.4282792  63.0943803
 111.4217793 116.0619275  63.2473197 110.2503449 115.7697523  62.3339442
 118.8462729 113.7700742  51.3791710 119.1222573 113.6557336  52.2885584
 117.9767228 113.3718226  51.3403883 118.7503161  99.7937507  58.4196459
 117.8366241 100.0241734  58.5878666 119.1796263  99.8775951  59.2710492
 118.5209620 107.9827399  60.9196353 117.8681070 108.2303307  60.2648806
 118.8990000 107.1691537  60.5858831 115.4816793 118.0187092  55.0224524
 115.6639188 117.2008748  55.4852276 116.3049780 118.2354785  54.5849414
 115.8158959 116.9455278  52.2839572 116.3446725 116.4347732  51.6709734
 116.0787179 116.6297808  53.1485105 114.5697193 108.7247210  67.4062391
 113.8937830 108.6241340  68.0764766 115.3924827 108.5686424  67.8698388
 106.3176052 114.9619147  60.0274906 106.9029489 114.2162835  60.1602810
 106.1200890 115.2723104  60.9111570 109.1714707 117.9970394  55.0437348
 108.5025082 118.4816522  54.5601388 109.0327577 118.2439615  55.9580727
 100.9093706 107.5324747  58.7479349 100.9477806 106.9988338  59.5416467
 100.4033999 107.0059953  58.1290326 113.3119976 120.0314138  61.6420006
 113.8638284 120.1945759  62.4069092 113.6526169 120.6218576  60.9700031
 108.2884469 102.3789288  62.2441891 108.3525795 103.2404118  61.8319289
 108.2251589 101.7663289  61.5114250 107.7636741 104.4512420  65.8914925
 108.3908780 104.0689497  66.5052450 106.9064660 104.2326622  66.2570618
 118.1630850 114.8575395  67.4968661 118.7070754 115.4705354  67.0023616
 117.5817695 115.4154974  68.0135674 104.5402284 106.2588849  51.8233280
 104.8355725 105.3499528  51.7700334 103.6390320 106.2376589  51.5014283
 116.4488363 117.9796113  58.6283689 116.3239502 117.1785853  58.1194634
 117.1067454 118.4742307  58.1397659 108.0696531 104.3344846  57.8060829
 107.3483117 104.9480813  57.6668302 108.8589787 104.8702611  57.7277475
 118.5123271 115.7805133  60.2563239 117.5653607 115.6610485  60.1841565
 118.8606044 114.8927631  60.3389500 110.8722845 101.6699272  64.0801481
 111.3957246 101.9161569  64.8427790 110.6535178 102.5019307  63.6604618
 106.2690126 103.9402947  51.9472605 105.9402832 103.0600326  51.7647711
 106.6229496 103.8850616  52.8348995 115.5169704 115.5757850  56.4567591
 115.3694667 114.6474557  56.6375161 116.3423198 115.5977940  55.9724666
 109.3831949 104.2275917  52.3148083 109.7228021 104.7561838  51.5926691
 109.8304069 104.5656323  53.0906650 119.1203826 116.3986408  57.5432464
 120.0450374 116.1929270  57.4056915 118.9519130 116.1502809  58.4521805
 112.0775390 102.6112967  61.7651151 111.7372210 101.8120780  62.1671831
 111.3714396 102.9114678  61.1927984 112.7291861  99.6962280  60.2178474
 113.5517931  99.2222758  60.0957365 112.9729925 100.4752764  60.7177160
 111.3700096 102.7250538  50.5141376 112.0908458 103.1031791  50.0105093
 110.7465400 103.4439415  50.6176354 115.5131219 103.4295687  51.4499708
 115.7294833 104.3120325  51.1488536 115.0325286 103.0381901  50.7205350
 110.2530440 106.3881400  58.0270453 110.1075021 106.7021704  58.9194734
 109.7755644 107.0066301  57.4741351 112.1126823 103.3783948  58.0751342
 112.0988392 102.4825042  57.7383640 112.8299251 103.3854612  58.7089628
 113.9652954 103.8121289  60.1204470 113.7070732 104.7338359  60.1188800
 113.4337994 103.4151723  60.8104934 118.9099143 116.9172076  52.8994555
 119.0836020 116.3518498  52.1468408 119.4028034 117.7172971  52.7174045
 104.7276102 108.9286745  60.9658114 104.1829570 109.7046553  61.0978388
 105.6055452 109.2757549  60.8077235 111.5163719 102.2598329  53.3438912
 111.6379630 101.3314975  53.5429800 111.2265761 102.2737015  52.4317228
 114.3854909  99.9453239  56.4805632 114.4076606 100.0092572  55.5257612
 114.8022968  99.1057748  56.6746138 124.7638534 109.6808499  54.5184855
 125.2069680 108.9315824  54.1203978 123.8865044 109.6718635  54.1358587
 119.8974315 116.2338840  49.9991453 120.5925220 116.8545533  50.2178768
 120.2397465 115.3834191  50.2743831 105.5142124 108.0556641  63.8588271
 104.7723860 108.2039276  64.4452901 105.1934868 108.3164907  62.9955020
 121.7965738 113.6838546  51.5278784 122.3217062 114.0225818  50.8028104
 121.7088091 112.7485561  51.3441919 113.4585787 117.5972619  63.6568661
 113.7672913 117.3521766  64.5291360 114.2561269 117.8019258  63.1687531
 113.4806399 119.7510529  55.8874037 113.0411389 119.2586908  56.5806894
 114.2314516 119.2083497  55.6466113 105.9598738 115.9422070  55.8898665
 106.7856758 115.6425842  55.5097309 105.6092790 115.1729692  56.3388454
 110.9280271 115.2948538  57.9596339 110.3060280 114.6319243  57.6598567
 111.5985138 115.3209670  57.2769987 104.1607343 113.8608396  56.8487599
 103.3239251 113.4330571  56.6671600 104.1330988 114.0540840  57.7858390
 111.0004799 103.7730326  67.5528845 111.0492954 104.6492449  67.1706615
 111.5427313 103.2307719  66.9800488 121.4859644 114.3171449  66.8329982
 120.6955188 114.2995588  66.2934482 121.2492999 114.8559743  67.5879019
 121.6057519 111.1663916  64.1462711 121.6555524 111.0013923  65.0878233
 121.4971443 110.2991175  63.7560591 110.4893778 113.8452461  51.4354800
 110.6381898 114.5287926  50.7821472 111.2960221 113.8257551  51.9504255
 118.8961282 107.1494844  65.4622017 119.7971144 107.0101309  65.1706015
 118.9709256 107.3149299  66.4020195 113.2304087 104.5261698  64.3075204
 112.3607396 104.8195265  64.0357792 113.4663567 105.1102143  65.0282467
 123.1075716 113.5860857  64.3904732 122.8160524 113.9490838  65.2268193
 122.4947847 112.8727866  64.2118064 124.3071398 111.1513737  56.9107302
 125.1418290 111.5903541  57.0744863 124.4430527 110.6752390  56.0915548
 121.3562904 108.7093472  62.8584790 121.8317026 108.9021118  62.0503642
 120.4328470 108.7652658  62.6128174 108.2446411 109.8717639  52.4415869
 107.9992453 108.9679969  52.6396079 108.4142325 109.8734789  51.4995347
 115.9343121 100.7441315  61.8240624 116.4525065 101.4802342  61.4987113
 115.5798254 101.0505309  62.6587383 107.5142058 105.6045997  49.9402030
 106.8211303 105.6790352  49.2842066 107.2693810 104.8406340  50.4623547
 116.1855715  97.1641598  57.3441521 116.4657469  96.4964787  57.9701947
 116.9706322  97.3570694  56.8316185 113.9889183 116.3400592  48.9066547
 113.4163151 116.9590779  48.4537019 114.5621977 116.8899954  49.4406469
 120.0564573 105.5859232  61.0913096 121.0081996 105.6857330  61.1125320
 119.8868024 104.7937500  61.6011180 118.0778953 102.6714815  61.2772497
 117.4828885 102.9519828  60.5818985 117.7928649 103.1608716  62.0489238
 117.2086443 116.6237742  50.0375129 118.1417116 116.5583304  50.2408005
 117.1209656 117.4594009  49.5789662 119.8374460 115.9403612  46.9979077
 119.7588091 115.6063476  47.8914835 120.6584127 116.4325380  46.9970549
 122.5352651 108.8065352  60.2055395 122.5028971 107.8681352  60.3915079
 123.1453275 108.8849388  59.4721220 114.3735982 107.6761405  46.2482600
 115.3195087 107.5467613  46.3171018 113.9950227 106.9376067  46.7252028
 122.6847140 105.5976395  60.2513679 122.1686188 104.8134852  60.0643608
 123.5687088 105.2695112  60.4160198 120.3457867  99.3417411  56.2109491
 120.1482688  99.0332499  57.0952823 120.9557572 100.0679050  56.3407421
 128.3529201 109.8681358  59.3461432 129.0832589 109.6066647  59.9069136
 127.7436146 109.1310080  59.3863500 126.4344498 108.0089221  59.9435883
 125.7077662 107.8745186  59.3352375 126.0191785 108.3166050  60.7492602
 114.2574675 111.7279151  67.7083257 115.1777684 111.9057750  67.9023303
 114.2224258 110.7835196  67.5562956 112.5578899 105.6011381  46.1837485
 111.6510355 105.3044494  46.2600198 112.8354880 105.3041199  45.3171771
 103.4756840 106.9217744  56.6336531 103.1559624 106.0683053  56.3410905
 102.9290268 107.1366323  57.3894498 107.2536747 109.6380185  60.3506038
 107.4722757 110.5697293  60.3694071 107.6662521 109.2788160  61.1360842
 114.1740965 100.1448271  52.3381726 113.3641693  99.7995356  52.7136972
 114.8625382  99.8355814  52.9269338 116.1031513  99.2226318  53.9606023
 116.6562552  99.6421771  54.6196046 116.3401599  98.2962066  54.0028979
 112.1264612 105.2113391  69.7408787 112.0261339 106.1607748  69.6720878
 111.9086154 104.8831630  68.8684857 111.3277684 102.4598316  46.3249464
 112.1896848 102.7853215  46.5845281 111.5128028 101.6729812  45.8122530
 103.3445100 110.5420656  58.6029653 102.6508571 110.1274609  58.0899607
 104.0918091 110.5841192  58.0063072 119.4810320 101.3326843  53.4684687
 118.9008989 101.9911647  53.0862739 119.2146253 100.5104187  53.0572104
 117.9313887 100.7331900  55.6706007 118.4313665 100.8448435  54.8620326
 118.5749495 100.4292953  56.3106816 111.9895882 108.6410530  68.5573848
 111.5062964 109.4410890  68.7637737 112.0756821 108.6518475  67.6041292
 105.2581842 110.4738910  56.4795668 105.2352530 110.5726597  55.5277551
 105.5682479 111.3204060  56.8012834 107.9169220 112.5315065  60.5942282
 108.8712473 112.4999007  60.5272214 107.7181743 112.0705688  61.4092508
 108.5068602 111.1016181  63.1613080 109.3261491 111.5960259  63.1847917
 108.7805410 110.1848149  63.1330647 118.2635198 103.4926933  52.5241035
 117.3761053 103.7776584  52.3061230 118.6789187 103.3320696  51.6768312
 121.6149734 103.5173454  56.2395374 122.3910124 104.0069906  56.5119991
 120.8897869 103.9431508  56.6967244 124.0522293 104.2301073  57.2969315
 124.6466784 103.9896809  56.5862623 124.1248877 103.5108204  57.9242851
 106.2719449 118.0734684  57.6112480 106.1373917 117.3135085  57.0450478
 105.8551511 118.7975584  57.1441269 117.4078412 113.2571608  46.6189055
 118.1114262 113.4621610  47.2346711 116.6841060 113.8248370  46.8838139
 118.2376222 109.0081469  52.7391325 118.1811423 109.4650020  51.8998958
 118.7904564 108.2472154  52.5614168 122.0481028 104.7971201  53.5641445
 121.7917962 104.3967837  54.3949653 121.4233896 105.5114995  53.4391584
 126.3593366 107.5367274  56.0712736 125.7992924 107.6060463  56.8444298
 125.7536869 107.3608259  55.3512233 109.4288575 118.9704001  57.8230923
 109.3120959 119.9149434  57.7209613 108.6081021 118.6677563  58.2116722
 119.3165109 113.6954137  48.6687515 120.1510713 113.2635335  48.4864990
 119.1549452 113.5236151  49.5964410 118.9711001 110.1986250  50.0343855
 118.9159805 110.0330522  49.0932299 118.3457057 110.9062283  50.1906044
 103.7603516 105.4354315  63.8605277 104.4062380 104.9253269  64.3492502
 103.5520667 106.1722996  64.4348702 116.2856908 112.5035162  69.3597417
 117.1548068 112.6775814  68.9984052 115.8063660 113.3229579  69.2373147
 112.2807127  99.6994359  49.6129173 112.2685797 100.6436199  49.7697444
 113.1730549  99.5164505  49.3188634 110.4543089 119.6232263  61.0386851
 111.3570335 119.6555873  61.3553346 110.2280459 118.6932714  61.0533187
 112.2096691 118.3763250  57.6996930 111.2592322 118.3765111  57.5861302
 112.5129177 117.6295984  57.1832964 116.0959246  96.2937136  53.8675110
 115.3291642  95.7395623  54.0131792 116.5069951  96.3659005  54.7289261
 108.1001007 102.5821932  67.9580291 108.9632469 102.2258737  68.1683616
 107.5266418 102.2435827  68.6455695 127.9449384 124.2123788  58.7642692
 128.5827794 124.0930535  58.0606032 127.8270227 125.1604632  58.8230644
 124.7539090 124.1651216  58.7004217 124.4157602 124.0492281  57.8124752
 125.6228859 123.7642381  58.6805223 120.6125906 126.0186693  54.6901108
 120.0490771 125.9276629  53.9217395 120.4978301 125.1986597  55.1703600
 125.2358873 125.3186068  64.6590422 125.2247514 124.9238866  63.7870926
 125.3979513 124.5852140  65.2524194 118.1590338 127.5137884  57.5285328
 118.9511630 127.1728709  57.1131627 118.3986988 127.6232859  58.4487481
 126.1925465 129.6857660  50.0015573 125.5413445 130.2711741  49.6149586
 126.9869828 130.2163855  50.0610610 120.1181092 126.7746797  50.4002707
 120.8911968 126.2275784  50.2615583 120.4706491 127.6391047  50.6117168
 121.9566135 128.1023180  63.6069606 121.6656001 129.0068811  63.4916273
 122.5923119 128.1439707  64.3213676 122.8822341 125.4800028  60.1970966
 123.4785914 125.2556051  59.4827929 122.9397313 124.7384774  60.7996414
 122.4547370 122.9339464  48.0321157 122.7072891 122.4120985  47.2704620
 121.5171929 122.7705609  48.1347840 127.4990653 121.9375242  55.8395900
 128.2853742 121.5194665  55.4886317 127.7629357 122.8421334  56.0077548
 127.6700730 127.3748092  50.5384557 127.0346563 127.4482719  51.2505461
 127.3398136 127.9641691  49.8603636 132.8999080 121.8750475  56.7428879
 133.6324252 121.3049692  56.9766708 132.1438436 121.4872076  57.1835384
 122.1743659 124.8367569  50.2345532 122.0579917 124.1612473  50.9026616
 122.2845919 124.3499943  49.4177685 124.5175200 124.2977717  53.9392221
 124.1533407 123.7708338  54.6505142 125.3742315 123.9076186  53.7658706
 130.4224500 115.5872049  61.2023487 130.0907825 116.4567460  60.9784702
 129.8270114 115.2708333  61.8817518 124.1580687 119.3267616  48.9353570
 124.3255089 120.1947853  49.3024041 123.9677856 119.4894898  48.0114859
 126.9156020 127.7884595  60.6019400 126.6156743 128.6909634  60.4935207
 126.5707079 127.5216778  61.4540553 120.3668501 124.2398392  56.6356104
 119.4418998 124.1074606  56.8433796 120.6152914 125.0192611  57.1326047
 130.3153164 120.3067135  58.2816837 129.4070041 120.2382544  57.9875598
 130.2640759 120.7839080  59.1098663 124.1369907 121.7825274  49.9200236
 124.0169533 122.2282325  50.7585717 123.4422496 122.1310591  49.3613774
 117.7277312 123.8831666  57.4699893 117.8569693 124.1366145  58.3839305
 117.0474764 124.4759374  57.1504548 124.3894029 121.7256781  66.2251734
 123.6127363 122.2850701  66.2154599 125.0284592 122.2113564  66.7466605
 132.1814810 118.5083574  60.0594711 131.5389190 118.8016107  59.4134506
 131.6769738 118.3936494  60.8647908 129.8354974 122.2546747  50.7480570
 130.7472830 122.4874134  50.5728268 129.3264621 122.8383791  50.1855649
 122.6440402 124.5342234  65.7869701 123.3855086 125.0727278  65.5104525
 121.9377387 125.1608523  65.9441253 128.1195741 126.6771375  64.3841863
 128.5279097 126.2353785  63.6396495 127.3973003 126.1024002  64.6376056
 124.4726811 121.6143982  61.7575420 125.3188006 122.0383395  61.9010069
 124.4125449 120.9577606  62.4513983 128.4424556 127.2372565  58.1394152
 127.8133418 127.4018280  57.4370220 128.0550218 127.6514175  58.9105116
 127.6226257 119.2748350  63.4156594 127.3787188 120.0290410  62.8790869
 127.8986187 119.6533698  64.2503841 129.5764719 125.8186962  62.0933859
 129.7881615 126.4618722  61.4168240 129.5294468 124.9849279  61.6255789
 127.1790948 118.4304783  58.9970431 126.3175427 118.7286037  59.2887169
 127.2053383 118.6475182  58.0651464 123.9952518 126.9746974  55.4044237
 124.4590863 127.2534676  54.6148859 123.7309316 126.0730418  55.2217328
 120.8876599 126.5218455  58.3424000 121.4577956 126.9505723  57.7041485
 121.4784711 126.2401040  59.0408186 122.9321404 123.0970126  52.2133802
 123.6345447 123.5491170  52.6807728 122.6002032 122.4553945  52.8413695
 121.3801765 121.6881882  66.5885011 120.7500426 122.3698163  66.8220408
 121.2737853 121.5764964  65.6438150 116.6746738 121.3553679  57.5150936
 115.8845792 121.6111207  57.0391046 117.1657985 122.1702016  57.6202976
 118.6261483 121.7198258  54.4734412 117.8292646 121.8316952  54.9917908
 118.3987075 122.0584910  53.6075303 124.4567151 128.2442961  62.4216927
 124.5211583 128.7063368  63.2575099 123.7478075 127.6140326  62.5499237
 114.9584441 121.6084169  59.9465926 115.2092479 122.4931179  60.2123502
 115.4943989 121.4288771  59.1741018 124.1715168 129.9111068  52.2895907
 124.0360843 130.7562604  52.7180755 124.7124981 130.1130346  51.5261841
 120.6582508 115.9902648  68.9510263 120.2649454 115.4368847  69.6257907
 121.4748648 116.3013227  69.3416780 117.6244566 127.4286507  52.8623832
 118.1369086 128.2229757  53.0129397 118.2767279 126.7312797  52.7957434
 119.4339451 130.5452263  54.9446586 119.6106079 131.4670228  54.7567569
 120.2296284 130.2310682  55.3740965 123.5750469 117.4060527  66.5430519
 124.3160182 118.0067681  66.4634982 123.8068392 116.6638165  65.9848562
 118.7191807 122.5916895  64.8208749 118.6045322 121.6902152  65.1215848
 117.8636325 122.8380591  64.4693565 125.7983645 130.5334635  66.4196249
 125.3547499 129.7471014  66.1017154 126.4600858 130.7213786  65.7540140
 120.5570766 132.0630437  60.9456928 121.1078191 131.9347500  60.1733922
 119.7182242 132.3625326  60.5951821 124.3537937 128.3281564  65.2901159
 124.8866274 127.5669853  65.0600467 123.8252018 128.0355216  66.0325314
 127.5207632 113.4341630  60.8194801 127.1771901 114.3243272  60.7433911
 127.8886595 113.2443288  59.9564386 115.5893483 125.7575161  53.6383403
 116.4268705 126.1672169  53.4217111 115.7671750 124.8174603  53.6083597
 127.4857915 123.4250241  49.3267236 126.9704538 124.1954846  49.5655623
 127.2135223 122.7515378  49.9500297 125.0705026 118.2699942  54.3852474
 124.2146622 117.8806793  54.2058113 125.4831978 118.3491903  53.5252260
 126.6004172 115.8046286  58.7844034 126.0968968 115.7676421  57.9711839
 126.8934779 116.7139028  58.8440691 122.8447058 115.8885015  57.7910216
 123.7100055 115.6927824  57.4316105 122.9124567 115.6595367  58.7179573
 127.2744218 121.2977334  51.1527017 126.9694353 121.6123483  52.0037160
 128.2274660 121.3758753  51.1954350 125.7190650 127.4567557  52.8019971
 125.1912011 126.7220316  52.4893208 125.2178152 128.2342233  52.5559939
 130.6983496 125.6516577  57.9187017 130.0407170 126.3415839  58.0067146
 131.5023895 126.0413009  58.2621004 120.4509377 118.1187223  55.1626583
 121.0253129 117.8962405  54.4299776 121.0380360 118.1875918  55.9155184
 129.5088955 124.0060950  55.9690959 130.0220836 124.6390942  56.4712669
 130.1590178 123.4062146  55.6034319 120.7778964 120.1491684  49.1822468
 119.9416277 120.4866371  49.5031743 120.6383734 120.0140664  48.2449605
 122.7532045 114.9928472  53.8901652 122.0996457 114.6777489  53.2658267
 122.7112519 114.3704213  54.6161475 123.8643250 125.2747767  45.8054944
 122.9570312 125.0437021  46.0046093 124.3614282 124.4785386  45.9928926
 125.9869785 121.4810406  58.2149300 125.0692347 121.7025353  58.0570988
 126.4029929 121.5556716  57.3561007 126.7704833 122.8801821  53.3451980
 127.5176652 123.3923219  53.0359102 127.0396423 122.5585874  54.2056373
 125.0431483 125.3760362  50.3278934 124.1342703 125.0919395  50.4251404
 125.0726567 125.7959441  49.4682241 129.2183670 119.9158938  55.3270769
 128.4806427 119.4036324  55.6581012 129.4710444 119.4759319  54.5154046
 129.3195298 112.6935190  55.9212538 129.6254174 111.8332553  55.6338454
 130.0447902 113.2852810  55.7211532 115.6119654 123.0965876  54.3094136
 115.4144054 122.5035237  53.5845203 115.0566318 122.7918086  55.0270075
 123.5916377 122.9888983  56.4288730 123.6464987 122.0362819  56.3531206
 122.7807579 123.1448422  56.9130028 124.7407571 126.9169106  47.6667013
 124.3027001 126.2004965  47.2072650 125.4818012 127.1445221  47.1052104
 121.5308737 121.6066042  54.1879108 120.7176603 121.9060213  54.5944301
 122.0267731 121.2121731  54.9053591 123.6817315 131.6023799  56.1213373
 123.6393494 131.8284646  55.1921905 124.5980014 131.3687174  56.2699174
 127.1282949 122.0707867  63.0194002 127.4832337 122.2979340  63.8788468
 127.7755080 122.4026244  62.3971258 132.8580686 125.1926303  53.7243331
 132.7198585 125.3827899  52.7964521 132.5016905 125.9545686  54.1811382
 121.0222812 119.1784398  59.8040343 121.6622191 119.0373157  59.1063307
 120.1900343 118.8918911  59.4278945 121.7983116 128.4786828  55.9175336
 122.5923714 127.9837148  55.7157911 121.0874808 127.9504691  55.5543041
 118.1065879 122.6229910  51.9935088 117.1763468 122.5614366  52.2105051
 118.2023351 122.1005863  51.1971730 118.0251428 119.1484723  54.5813330
 118.2858246 120.0630056  54.4722491 118.8468601 118.6809165  54.7309943
 119.4976354 120.5622480  61.7512155 120.1699407 120.3539842  61.1024804
 118.6706140 120.3644566  61.3117387 125.4001926 117.1884421  63.7677816
 124.7529841 117.8874371  63.6742292 126.1702941 117.6220565  64.1354064
 128.8080724 127.4533273  66.8428369 128.6566230 127.2243825  65.9258453
 128.7985403 128.4103875  66.8559714 125.5766060 125.0265186  61.8274635
 126.5058120 125.1776345  61.6543603 125.1557090 125.1149207  60.9723282
 124.3754392 129.0515850  59.5973173 124.2365478 128.6834635  60.4699111
 123.5868988 129.5663490  59.4257131 125.9259607 128.4297453  56.9862011
 125.5909440 128.3898223  57.8819661 125.4263553 127.7642169  56.5132421
 119.9003851 123.8365083  62.5114592 119.7623649 123.1045322  63.1126131
 120.8108775 123.7473983  62.2298780 128.8618799 125.7753487  47.2599070
 128.2447969 125.0500316  47.1632123 128.3935287 126.5362848  46.9166145
 122.5286152 123.5485042  61.9998271 123.2385770 122.9078235  61.9584890
 122.4855460 123.7997937  62.9224452 121.2415086 120.5350260  63.8193911
 120.7052443 120.0840999  64.4715507 120.6531794 120.6696169  63.0764375
 120.6517345 119.9938912  46.3820375 119.7746811 119.8727712  46.0182621
 121.1275098 119.2024990  46.1299263 112.1719485 124.7816071  56.4761882
 112.8590525 124.4677801  55.8882897 112.0167614 125.6857436  56.2029133
 116.9754207 119.6706268  60.9046905 116.8912396 119.0631937  60.1697315
 116.1536913 120.1615286  60.9056402 127.1477921 118.1559831  56.2717101
 127.6446620 117.4029794  55.9518171 126.3764902 118.1924148  55.7060310
 135.0007678 123.8600197  57.9135392 134.9897554 124.7424912  57.5429325
 134.1325058 123.5071748  57.7189929 128.2307702 126.9131519  53.8455524
 127.2963980 127.0332981  53.6760228 128.4084370 126.0103985  53.5815534
 123.7312890 120.2977214  55.9988785 123.3610677 119.7448255  56.6869691
 124.2271982 119.6935348  55.4463785 131.6180253 122.7548838  54.3805558
 132.0840705 123.5876830  54.3065861 132.0687753 122.2893820  55.0850817
 121.5602088 130.7574709  63.0943803 122.2611548 131.3911192  63.2473197
 121.0897203 131.0989441  62.3339442 129.5896916 115.1229425  58.4196459
 128.6759995 115.3533652  58.5878666 130.0190017 115.2067869  59.2710492
 129.3603374 123.3119317  60.9196353 128.7074824 123.5595224  60.2648806
 129.7383754 122.4983455  60.5858831 125.4090947 124.0539128  67.4062391
 124.7331584 123.9533257  68.0764766 126.2318581 123.8978342  67.8698388
 117.1569806 130.2911065  60.0274906 117.7423243 129.5454752  60.1602810
 116.9594645 130.6015021  60.9111570 120.0108461 133.3262312  55.0437348
 119.3418837 133.8108440  54.5601388 119.8721331 133.5731532  55.9580727
 111.7487461 122.8616665  58.7479349 111.7871560 122.3280255  59.5416467
 111.2427754 122.3351870  58.1290326 119.1278223 117.7081205  62.2441891
 119.1919550 118.5696036  61.8319289 119.0645343 117.0955207  61.5114250
 118.6030496 119.7804338  65.8914925 119.2302535 119.3981415  66.5052450
 117.7458415 119.5618540  66.2570618 115.3796039 121.5880767  51.8233280
 115.6749480 120.6791445  51.7700334 114.4784074 121.5668506  51.5014283
 118.9090286 119.6636763  57.8060829 118.1876871 120.2772731  57.6668302
 119.6983541 120.1994528  57.7277475 121.7116599 116.9991190  64.0801481
 122.2351001 117.2453486  64.8427790 121.4928932 117.8311225  63.6604618
 117.1083880 119.2694865  51.9472605 116.7796586 118.3892243  51.7647711
 117.4623251 119.2142533  52.8348995 120.2225703 119.5567834  52.3148083
 120.5621776 120.0853756  51.5926691 120.6697824 119.8948240  53.0906650
 122.9169144 117.9404885  61.7651151 122.5765964 117.1412698  62.1671831
 122.2108150 118.2406596  61.1927984 123.5685616 115.0254197  60.2178474
 124.3911685 114.5514676  60.0957365 123.8123679 115.8044681  60.7177160
 122.2093850 118.0542456  50.5141376 122.9302213 118.4323709  50.0105093
 121.5859155 118.7731333  50.6176354 126.3524973 118.7587605  51.4499708
 126.5688588 119.6412243  51.1488536 125.8719040 118.3673818  50.7205350
 121.0924195 121.7173318  58.0270453 120.9468775 122.0313621  58.9194734
 120.6149398 122.3358218  57.4741351 122.9520578 118.7075866  58.0751342
 122.9382146 117.8116959  57.7383640 123.6693006 118.7146530  58.7089628
 124.8046708 119.1413206  60.1204470 124.5464486 120.0630277  60.1188800
 124.2731749 118.7443641  60.8104934 115.5669857 124.2578663  60.9658114
 115.0223325 125.0338470  61.0978388 116.4449207 124.6049467  60.8077235
 122.3557473 117.5890246  53.3438912 122.4773385 116.6606893  53.5429800
 122.0659516 117.6028932  52.4317228 125.2248664 115.2745157  56.4805632
 125.2470361 115.3384490  55.5257612 125.6416723 114.4349665  56.6746138
 116.3535879 123.3848559  63.8588271 115.6117615 123.5331194  64.4452901
 116.0328623 123.6456824  62.9955020 116.7992492 131.2713988  55.8898665
 117.6250512 130.9717759  55.5097309 116.4486544 130.5021610  56.3388454
 121.7674026 130.6240456  57.9596339 121.1454035 129.9611161  57.6598567
 122.4378892 130.6501588  57.2769987 115.0001097 129.1900314  56.8487599
 114.1633006 128.7622488  56.6671600 114.9724743 129.3832757  57.7858390
 121.8398553 119.1022244  67.5528845 121.8886708 119.9784367  67.1706615
 122.3821067 118.5599637  66.9800488 132.4451274 126.4955833  64.1462711
 132.4949279 126.3305841  65.0878233 132.3365197 125.6283092  63.7560591
 121.3287532 129.1744379  51.4354800 121.4775653 129.8579843  50.7821472
 122.1353976 129.1549469  51.9504255 129.7355036 122.4786761  65.4622017
 130.6364899 122.3393226  65.1706015 129.8103011 122.6441216  66.4020195
 124.0697841 119.8553616  64.3075204 123.2001151 120.1487182  64.0357792
 124.3057322 120.4394061  65.0282467 132.1956659 124.0385390  62.8584790
 132.6710780 124.2313036  62.0503642 131.2722224 124.0944575  62.6128174
 119.0840165 125.2009557  52.4415869 118.8386207 124.2971887  52.6396079
 119.2536080 125.2026707  51.4995347 126.7736875 116.0733233  61.8240624
 127.2918819 116.8094260  61.4987113 126.4192008 116.3797226  62.6587383
 118.3535813 120.9337914  49.9402030 117.6605058 121.0082269  49.2842066
 118.1087565 120.1698258  50.4623547 127.0249469 112.4933516  57.3441521
 127.3051223 111.8256705  57.9701947 127.8100076 112.6862611  56.8316185
 130.8958328 120.9151150  61.0913096 131.8475751 121.0149247  61.1125320
 130.7261778 120.1229418  61.6011180 128.9172707 118.0006733  61.2772497
 128.3222639 118.2811746  60.5818985 128.6322404 118.4900634  62.0489238
 133.3746406 124.1357269  60.2055395 133.3422726 123.1973270  60.3915079
 133.9847029 124.2141306  59.4721220 125.2129736 123.0053322  46.2482600
 126.1588841 122.8759530  46.3171018 124.8343981 122.2667984  46.7252028
 133.5240894 120.9268313  60.2513679 133.0079943 120.1426769  60.0643608
 134.4080843 120.5987029  60.4160198 131.1851621 114.6709328  56.2109491
 130.9876442 114.3624416  57.0952823 131.7951327 115.3970967  56.3407421
 125.0968429 127.0571068  67.7083257 126.0171438 127.2349667  67.9023303
 125.0618012 126.1127114  67.5562956 123.3972654 120.9303299  46.1837485
 122.4904109 120.6336411  46.2600198 123.6748635 120.6333117  45.3171771
 114.3150594 122.2509662  56.6336531 113.9953378 121.3974970  56.3410905
 113.7684022 122.4658240  57.3894498 118.0930502 124.9672103  60.3506038
 118.3116511 125.8989211  60.3694071 118.5056275 124.6080077  61.1360842
 125.0134719 115.4740188  52.3381726 124.2035448 115.1287273  52.7136972
 125.7019136 115.1647732  52.9269338 126.9425268 114.5518235  53.9606023
 127.4956306 114.9713689  54.6196046 127.1795354 113.6253983  54.0028979
 122.9658367 120.5405309  69.7408787 122.8655094 121.4899666  69.6720878
 122.7479909 120.2123548  68.8684857 122.1671438 117.7890234  46.3249464
 123.0290602 118.1145132  46.5845281 122.3521782 117.0021730  45.8122530
 114.1838854 125.8712574  58.6029653 113.4902325 125.4566526  58.0899607
 114.9311845 125.9133110  58.0063072 130.3204075 116.6618760  53.4684687
 129.7402744 117.3203564  53.0862739 130.0540007 115.8396105  53.0572104
 128.7707641 116.0623818  55.6706007 129.2707419 116.1740353  54.8620326
 129.4143249 115.7584871  56.3106816 122.8289637 123.9702448  68.5573848
 122.3456719 124.7702808  68.7637737 122.9150576 123.9810393  67.6041292
 116.0975597 125.8030827  56.4795668 116.0746285 125.9018515  55.5277551
 116.4076233 126.6495978  56.8012834 118.7562974 127.8606982  60.5942282
 119.7106228 127.8290925  60.5272214 118.5575498 127.3997606  61.4092508
 119.3462357 126.4308098  63.1613080 120.1655246 126.9252177  63.1847917
 119.6199164 125.5140067  63.1330647 129.1028953 118.8218851  52.5241035
 128.2154808 119.1068501  52.3061230 129.5182942 118.6612614  51.6768312
 132.4543489 118.8465372  56.2395374 133.2303879 119.3361824  56.5119991
 131.7291623 119.2723426  56.6967244 134.8916047 119.5592991  57.2969315
 135.4860538 119.3188727  56.5862623 134.9642631 118.8400121  57.9242851
 117.1113203 133.4026602  57.6112480 116.9767671 132.6427003  57.0450478
 116.6945265 134.1267502  57.1441269 128.2472166 128.5863525  46.6189055
 128.9508016 128.7913528  47.2346711 127.5234815 129.1540287  46.8838139
 129.0769976 124.3373387  52.7391325 129.0205178 124.7941938  51.8998958
 129.6298319 123.5764071  52.5614168 132.8874782 120.1263119  53.5641445
 132.6311717 119.7259754  54.3949653 132.2627650 120.8406912  53.4391584
 137.1987120 122.8659192  56.0712736 136.6386678 122.9352381  56.8444298
 136.5930624 122.6900176  55.3512233 120.2682329 134.2995919  57.8230923
 120.1514713 135.2441351  57.7209613 119.4474775 133.9969480  58.2116722
 129.8104756 125.5278168  50.0343855 129.7553560 125.3622439  49.0932299
 129.1850811 126.2354201  50.1906044 114.5997271 120.7646232  63.8605277
 115.2456134 120.2545186  64.3492502 114.3914422 121.5014914  64.4348702
 127.1250663 127.8327080  69.3597417 127.9941823 128.0067732  68.9984052
 126.6457414 128.6521497  69.2373147 123.1200881 115.0286277  49.6129173
 123.1079551 115.9728117  49.7697444 124.0124303 114.8456422  49.3188634
 126.9353001 111.6229054  53.8675110 126.1685397 111.0687540  54.0131792
 127.3463706 111.6950922  54.7289261 118.9394762 117.9113849  67.9580291
 119.8026223 117.5550654  68.1683616 118.3660172 117.5727744  68.6455695
  52.0693104  -6.0857513  45.4887999  52.7071514  -6.2050766  44.7851339
  51.9513947  -5.1376669  45.5475951  48.8782810  -6.1330085  45.4249523
  48.5401322  -6.2489020  44.5370058  49.7472579  -6.5338920  45.4050529
  44.7369626  -4.2794609  41.4146414  44.1734491  -4.3704672  40.6462702
  44.6222021  -5.0994704  41.8948907  49.3602593  -4.9795233  51.3835729
  49.3491234  -5.3742435  50.5116233  49.5223233  -5.7129161  51.9769500
  42.2834058  -2.7843417  44.2530635  43.0755350  -3.1252592  43.8376934
  42.5230708  -2.6748442  45.1732788  50.3169185  -0.6123641  36.7260879
  49.6657164  -0.0269560  36.3394893  51.1113548  -0.0817446  36.7855917
  46.0809854  -2.1958121  50.3314913  45.7899720  -1.2912491  50.2161579
  46.7166839  -2.1541594  51.0458982  47.0066061  -4.8181273  46.9216272
  47.6029634  -5.0425251  46.2073235  47.0641033  -5.5596527  47.5241720
  51.6234373  -8.3606059  42.5641207  52.4097462  -8.7786636  42.2131624
  51.8873077  -7.4559967  42.7322855  51.7944450  -2.9233209  37.2629863
  51.1590283  -2.8498582  37.9750768  51.4641856  -2.3339610  36.5848943
  48.6418919  -6.0003585  40.6637528  48.2777127  -6.5272964  41.3750449
  49.4986035  -6.3905115  40.4904013  51.0399740  -2.5096706  47.3264707
  50.7400463  -1.6071667  47.2180514  50.6950799  -2.7764523  48.1785859
  44.4912221  -6.0582909  43.3601411  43.5662717  -6.1906695  43.5679103
  44.7396634  -5.2788690  43.8571353  41.8521032  -6.4149636  44.1945200
  41.9813413  -6.1615157  45.1084612  41.1718483  -5.8221928  43.8749855
  46.0220519   4.2547614  40.2935674  45.9444549   5.2055439  40.3724155
  45.4182163   3.9093487  40.9510601  48.5137749  -8.5724520  52.9497041
  47.7371083  -8.0130600  52.9399906  49.1528312  -8.0867737  53.4711911
  53.9598693  -8.0434554  37.4725877  54.8716549  -7.8107167  37.2973575
  53.4508340  -7.4597510  36.9100956  46.7684121  -5.7639067  52.5115008
  47.5098806  -5.2254023  52.2349832  46.0621107  -5.1372778  52.6686560
  52.2439461  -3.6209926  51.1087170  52.6522817  -4.0627516  50.3641802
  51.5216723  -4.1957299  51.3621363  48.5970531  -8.6837320  48.4820727
  49.4431726  -8.2597906  48.6255376  48.5369169  -9.3403695  49.1759290
  52.5668276  -3.0608736  44.8639458  51.9377138  -2.8963022  44.1615526
  52.1793938  -2.6467126  45.6350423  56.4457508  -2.1254298  42.2183822
  55.7608546  -1.7455397  41.6680856  56.5301357  -1.5158971  42.9515770
  53.7008439  -4.4794339  48.8179166  53.9125334  -3.8362579  48.1413547
  53.6538187  -5.3132022  48.3501096  48.1196238  -3.3234328  42.1289544
  48.5834583  -3.0446625  41.3394166  47.8553036  -4.2250883  41.9462634
  45.0120319  -3.7762846  45.0669307  45.5821676  -3.3475578  44.4286791
  45.6028430  -4.0580261  45.7653493  45.5045485  -8.6099419  53.3130318
  44.8744146  -7.9283138  53.5465715  45.3981573  -8.7216337  52.3683456
  54.8154267  -1.6022383  46.9901523  55.6371711  -2.0042196  46.7084205
  54.8116670  -1.7054149  47.9417639  48.5810871  -2.0538340  49.1462234
  48.6455303  -1.5917933  49.9820405  47.8721794  -2.6840975  49.2744543
  62.9060260  -5.2583635  43.3386495  62.1523969  -5.8276237  43.1830499
  63.0407801  -5.2920970  44.2857129  48.2958888  -0.3870233  39.0141214
  48.1604563   0.4581303  39.4426062  48.8368701  -0.1850955  38.2507148
  41.7488286  -2.8694795  39.5869139  42.2612806  -2.0751544  39.7374704
  42.4010998  -3.5668504  39.5202741  43.5583170   0.2470962  41.6691892
  43.7349799   1.1688926  41.4812876  44.3540004  -0.0670619  42.0986272
  42.8435527  -7.7064406  51.5454055  42.7289042  -8.6079149  51.8461154
  41.9880045  -7.4600710  51.1938872  49.9227365   0.2353334  53.1441556
  49.4791219  -0.5510288  52.8262461  50.5844578   0.4232484  52.4785447
  44.6814486   1.7649135  47.6702235  45.2321911   1.6366199  46.8979228
  43.8425962   2.0644024  47.3197127  52.0208603   0.5156134  51.1722957
  52.0027078   1.3365015  50.6803226  52.9428523   0.3910209  51.3973098
  48.4781657  -1.9699737  52.0146466  49.0109994  -2.7311449  51.7845774
  47.9495738  -2.2626085  52.7570620  56.5835909  -4.1198705  37.9865716
  55.8065351  -4.4587546  37.5420878  57.2627390  -4.1146082  37.3120681
  49.8434370  -2.8413744  39.5265278  49.3155731  -3.5760985  39.2138515
  49.3421872  -2.0639068  39.2805246  54.8227216  -4.6464724  44.6432324
  54.1650890  -3.9565462  44.7312453  55.6267615  -4.2568292  44.9866310
  53.6332674  -6.2920351  42.6936266  54.1464556  -5.6590359  43.1957975
  54.2833898  -6.8919156  42.3279626  50.8955049   3.6863973  35.4496937
  50.2216747   3.9895670  36.0581895  51.2820871   4.4893054  35.1002394
  50.1113505  -8.8170896  44.9394606  49.1936067  -8.5955949  44.7816294
  50.5273649  -8.7424585  44.0806314  50.8948553  -7.4179480  40.0697287
  51.6420372  -6.9058083  39.7604409  51.1640143  -7.7395427  40.9301680
  54.3994471  -1.3114350  40.8215408  53.9456798  -2.1523440  40.8780599
  53.7688437  -0.6752951  41.1590189  52.8427410   0.5262147  41.7565227
  53.1350384   1.0867204  41.0377592  53.3526030   0.8190708  42.5118386
  47.7160097  -7.3092319  43.1534036  47.7708707  -8.2618482  43.0776513
  46.9051299  -7.1532879  43.6375335  45.6552457  -8.6915259  40.9124415
  44.8420323  -8.3921088  41.3189607  46.1511451  -9.0859570  41.6298897
  47.8061035   1.3042498  42.8458680  47.7637214   1.5303344  41.9167212
  48.7223734   1.0705873  42.9944481  51.2526669  -8.2273434  49.7439309
  51.6076057  -8.0001961  50.6033775  51.8998800  -7.8955058  49.1216564
  56.9824406  -5.1054998  40.4488638  56.8442304  -4.9153402  39.5209827
  56.6260625  -4.3435616  40.9056689  57.0093785  -3.0378471  45.4599909
  57.4430292  -3.1303182  46.3082963  57.7225366  -3.0620971  44.8219925
  45.9226836  -1.8194473  42.6420642  46.7167434  -2.3144153  42.4403217
  45.2118528  -2.3476610  42.2788348  50.7421680   0.5623623  46.9933010
  50.7958703   1.1314559  47.7610726  49.8736462   0.7325508  46.6287047
  57.8709335  -2.9954771  47.9932795  58.0645225  -2.0908960  48.2392070
  57.7709953  -3.4547352  48.8271380  52.9324444  -2.8448028  53.5673675
  52.7809950  -3.0737476  52.6503759  52.9229123  -1.8877427  53.5805020
  49.7009780  -5.2716115  48.5519942  50.6301840  -5.1204956  48.3788909
  49.2800810  -5.1832094  47.6968588  48.4998112  -1.2465451  46.3218480
  48.3609197  -1.6146666  47.1944418  47.7112708  -0.7317811  46.1502437
  49.0946264   3.8543646  37.6644016  49.2698019   3.3831689  38.4789639
  48.4079052   4.4809412  37.8925277  50.0503327  -1.8683848  43.7107317
  49.7153160  -1.9083078  44.6064967  49.5507273  -2.5339132  43.2377728
  44.0247571  -6.4616218  49.2359898  43.8867369  -7.1935979  49.8371438
  44.9352494  -6.5507318  48.9544086  46.6529872  -6.7496259  48.7243578
  47.3629490  -7.3903067  48.6830197  46.6099180  -6.4983364  49.6469759
  54.6416650   0.1871095  51.6450157  54.5829196  -0.4969685  50.9780740
  55.0436169   0.9290085  51.1930783  45.3658806  -9.7631041  50.5439218
  44.8296163 -10.2140302  51.1960814  44.7775514  -9.6285132  49.8009682
  43.6607349   7.0033008  44.4383876  43.9003947   7.6351533  45.1162895
  42.8176546   6.6521048  44.7249235  54.6434058  -1.8489322  49.8764137
  53.7560836  -2.1863400  49.9990536  55.2132609  -2.5806290  50.1132902
  48.1735211   2.8112131  46.8425380  48.1005382   3.6167102  47.3544685
  47.7312604   3.0104097  46.0173402  47.9624991   2.0483901  40.3528202
  47.1792512   2.5905581  40.4466426  48.6617736   2.5657881  40.7522443
  59.1251398  -6.4381104  44.6380699  59.1141274  -5.5556389  44.2674632
  58.2568777  -6.7909553  44.4435236  50.6333894   2.7098965  48.9983539
  51.3461867   3.3446430  48.9259440  50.1423923   2.8062831  48.1823541
  52.3551421  -3.3849782  40.5700831  51.4207700  -3.2648320  40.4005535
  52.5328090  -4.2877316  40.3060840  47.8556609 -10.0004087  42.7234092
  47.4854397 -10.5533046  43.4114997  48.3515702 -10.6045953  42.1709092
  55.7423973  -7.5432463  41.1050865  56.2084425  -6.7104472  41.0311167
  56.1931473  -8.0087482  41.8096123  45.6845808   0.4593408  49.8189110
  46.3855267   1.0929891  49.9718504  45.2140923   0.8008140  49.0584749
  53.8100204  -1.1988642  38.1037017  54.0860048  -1.3132047  39.0130891
  52.9404703  -1.5971157  38.0649190  53.4847094  -6.9861984  47.6441660
  52.8318544  -6.7386077  46.9894113  53.8627474  -7.7997846  47.3104137
  50.4454268   3.0497709  41.7469830  50.6276662   2.2319365  42.2097583
  51.2687254   3.2665401  41.3094720  50.7796433   1.9765894  39.0084879
  51.3084200   1.4658349  38.3955041  51.0424653   1.6608424  39.8730412
  49.5334667  -6.2442173  54.1307697  48.8575304  -6.3448044  54.8010072
  50.3562301  -6.4002959  54.5943694  41.2813526  -0.0070237  46.7520212
  41.8666963  -0.7526549  46.8848117  41.0838364   0.3033720  47.6356876
  44.1352181   3.0281011  41.7682655  43.4662557   3.5127138  41.2846695
  43.9965051   3.2750231  42.6826033  48.2757450   5.0624754  48.3665313
  48.8275758   5.2256376  49.1314398  48.6163643   5.6529192  47.6945338
  53.1268324  -0.1113988  54.2213968  53.6708228   0.5015970  53.7268922
  52.5455169   0.4465590  54.7380981  51.4125837   3.0106730  45.3528995
  51.2876977   2.2096470  44.8439941  52.0704928   3.5052923  44.8642965
  53.4760745   0.8115750  46.9808545  52.5291081   0.6921101  46.9086872
  53.8243519  -0.0761752  47.0634807  50.4807179   0.6068466  43.1812898
  50.3332141  -0.3214826  43.3620468  51.3060672   0.6288557  42.6969973
  54.0841301   1.4297025  44.2677770  55.0087848   1.2239886  44.1302221
  53.9156604   1.1813426  45.1767112  45.2167914  -8.5807983  44.7515759
  45.0712495  -8.2667680  45.6440041  44.7393118  -7.9623083  44.1986658
  48.9290428 -11.1568095  46.8449776  48.6708206 -10.2351024  46.8434107
  48.3975468 -11.5537660  47.5350241  53.8736617   1.9482692  39.6239862
  54.0473494   1.3829115  38.8713714  54.3665508   2.7483587  39.4419352
  39.6913577  -6.0402639  47.6903421  39.1467045  -5.2642831  47.8223695
  40.5692927  -5.6931834  47.5322542  59.7276008  -5.2880885  41.2430162
  60.1707154  -6.0373560  40.8449285  58.8502518  -5.2970748  40.8603894
  54.8611789   1.2649457  36.7236760  55.5562694   1.8856149  36.9424075
  55.2034939   0.4144808  36.9989138  40.4779599  -6.9132742  50.5833577
  39.7361335  -6.7650107  51.1698208  40.1572343  -6.6524477  49.7200327
  56.7603212  -1.2850838  38.2524091  57.2854537  -0.9463565  37.5273411
  56.6725565  -2.2203822  38.0687225  48.4223261   2.6283236  50.3813967
  48.7310388   2.3832383  51.2536667  49.2198743   2.8329874  49.8932838
  48.4443873   4.7821146  42.6119344  48.0048863   4.2897524  43.3052201
  49.1951990   4.2394113  42.3711419  40.9236212   0.9732686  42.6143972
  41.7494232   0.6736458  42.2342616  40.5730264   0.2040309  43.0633761
  45.8917745   0.3259155  44.6841646  45.2697755  -0.3370140  44.3843874
  46.5622612   0.3520286  44.0015293  39.1244817  -1.1080987  43.5732906
  38.2876726  -1.5358813  43.3916907  39.0968463  -0.9148544  44.5103697
  56.4497119  -0.6517934  53.5575289  55.6592662  -0.6693795  53.0179788
  56.2130473  -0.1129640  54.3124325  56.5694994  -3.8025468  50.8708017
  56.6192999  -3.9675460  51.8123540  56.4608917  -4.6698209  50.4805898
  45.4531252  -1.1236922  38.1600106  45.6019373  -0.4401458  37.5066779
  46.2597696  -1.1431832  38.6749562  53.8598756  -7.8194540  52.1867324
  54.7608619  -7.9588075  51.8951322  53.9346730  -7.6540085  53.1265501
  48.1941561 -10.4427685  51.0320510  47.3244871 -10.1494119  50.7603099
  48.4301042  -9.8587240  51.7527774  58.0713190  -1.3828526  51.1150039
  57.7797999  -1.0198546  51.9513500  57.4585322  -2.0961518  50.9363371
  59.2708873  -3.8175646  43.6352609  60.1055764  -3.3785842  43.7990169
  59.4068002  -4.2936993  42.8160855  56.3200379  -6.2595912  49.5830097
  56.7954500  -6.0668265  48.7748948  55.3965944  -6.2036726  49.3373481
  48.9526658   1.3711208  35.6311854  48.3800625   1.9901396  35.1782326
  49.5259451   1.9210570  36.1651776  52.1723918   1.6548359  36.7620436
  53.1054591   1.5893920  36.9653311  52.0847130   2.4904625  36.3034969
  54.8011934   0.9714229  33.7224384  54.7225566   0.6374092  34.6160141
  55.6221601   1.4635997  33.7215856  57.4990125  -6.1624032  46.9300702
  57.4666446  -7.1008031  47.1160386  58.1090749  -6.0839995  46.1966527
  63.3166675  -5.1008025  46.0706739  64.0470064  -5.3622737  46.6314442
  62.7073621  -5.8379303  46.1108807  61.3981972  -6.9600162  46.6681190
  60.6715136  -7.0944197  46.0597682  60.9829259  -6.6523334  47.4737908
  49.2212149  -3.2410233  54.4328563  50.1415158  -3.0631634  54.6268610
  49.1861732  -4.1854187  54.2808262  42.2174221  -5.3309198  47.0751344
  42.4360231  -4.3992090  47.0939378  42.6299995  -5.6901224  47.8606148
  47.0902087  -9.7575992  56.4654093  46.9898814  -8.8081635  56.3966184
  46.8723629 -10.0857753  55.5930163  38.3082574  -4.4268728  45.3274959
  37.6146045  -4.8414775  44.8144914  39.0555565  -4.3848191  44.7308378
  46.9533357  -6.3278853  55.2819155  46.4700438  -5.5278493  55.4883044
  47.0394296  -6.3170909  54.3286599  40.2219316  -4.4950474  43.2040974
  40.1990004  -4.3962787  42.2522857  40.5319953  -3.6485323  43.5258140
  42.8806694  -2.4374319  47.3187589  43.8349948  -2.4690376  47.2517520
  42.6819218  -2.8983695  48.1337815  43.4706076  -3.8673203  49.8858386
  44.2898965  -3.3729124  49.9093224  43.7442884  -4.7841235  49.8575954
  41.2356923   3.1045301  44.3357787  41.1011391   2.3445702  43.7695785
  40.8188985   3.8286201  43.8686575  53.2013696  -5.9607914  39.4636632
  53.1448898  -5.5039363  38.6244264  53.7542039  -6.7217230  39.2859475
  44.3926049   4.0014618  44.5476229  44.2758433   4.9460050  44.4454919
  43.5718495   3.6988179  44.9362028  54.2802583  -1.2735247  35.3932822
  55.1148187  -1.7054048  35.2110297  54.1186926  -1.4453233  36.3209716
  53.9348476  -4.7703133  36.7589161  53.8797279  -4.9358862  35.8177605
  53.3094531  -4.0627100  36.9151351  51.2494383  -2.4654221  56.0842724
  52.1185542  -2.2913569  55.7229359  50.7701134  -1.6459805  55.9618453
  45.4180563   4.6542880  47.7632158  46.3207810   4.6866490  48.0798653
  45.1917933   3.7243331  47.7778493  47.1734165   3.4073866  44.4242236
  46.2229796   3.4075728  44.3106609  47.4766651   2.6606601  43.9078271
  62.9086859   9.2434405  45.4887999  63.5465268   9.1241152  44.7851339
  62.7907701  10.1915249  45.5475951  59.7176565   9.1961833  45.4249523
  59.3795076   9.0802897  44.5370058  60.5866333   8.7952998  45.4050529
  55.5763380  11.0497309  41.4146414  55.0128246  10.9587246  40.6462702
  55.4615776  10.2297214  41.8948907  60.1996348  10.3496684  51.3835729
  60.1884989   9.9549483  50.5116233  60.3616987   9.6162757  51.9769500
  53.1227812  12.5448501  44.2530635  53.9149104  12.2039325  43.8376934
  53.3624463  12.6543476  45.1732788  61.1562939  14.7168277  36.7260879
  60.5050919  15.3022357  36.3394893  61.9507302  15.2474472  36.7855917
  55.0818566  11.8057414  37.1248014  55.8549442  11.2586401  36.9860889
  55.4343965  12.6701663  37.3362475  56.9203609  13.1333796  50.3314913
  56.6293475  14.0379427  50.2161579  57.5560593  13.1750324  51.0458982
  57.8459816  10.5110645  46.9216272  58.4423388  10.2866667  46.2073235
  57.9034787   9.7695390  47.5241720  57.4184844   7.9650080  34.7566463
  57.6710365   7.4431601  33.9949926  56.4809403   7.8016226  34.8593147
  62.4628127   6.9685858  42.5641207  63.2491216   6.5505282  42.2131624
  62.7266831   7.8731951  42.7322855  62.6338204  12.4058709  37.2629863
  61.9984037  12.4793335  37.9750768  62.3035611  12.9952308  36.5848943
  67.8636554   6.9061092  43.4674185  68.5961726   6.3360308  43.7012015
  67.1075910   6.5182692  43.9080691  57.1381133   9.8678186  36.9590838
  57.0217391   9.1923089  37.6271923  57.2483393   9.3810560  36.1422991
  59.4812674   9.3288333  40.6637528  59.1170881   8.8018954  41.3750449
  60.3379790   8.9386802  40.4904013  65.3861974   0.6182666  47.9268794
  65.0545299   1.4878077  47.7030009  64.7907588   0.3018950  48.6062824
  59.1218161   4.3578233  35.6598876  59.2892563   5.2258469  36.0269347
  58.9315330   4.5205515  34.7360165  61.8793494  12.8195212  47.3264707
  61.5794217  13.7220251  47.2180514  61.5344554  12.5527395  48.1785859
  55.3305975   9.2709009  43.3601411  54.4056472   9.1385223  43.5679103
  55.5790389  10.0503228  43.8571353  65.2790638   5.3377752  45.0062144
  64.3707515   5.2693160  44.7120905  65.2278234   5.8149697  45.8343969
  59.1007382   6.8135890  36.6445543  58.9807007   7.2592941  37.4831023
  58.4059970   7.1621208  36.0859081  52.6914787   8.9142282  44.1945200
  52.8207168   9.1676761  45.1084612  52.0112238   9.5069990  43.8749855
  56.8614274  19.5839532  40.2935674  56.7838304  20.5347357  40.3724155
  56.2575917  19.2385405  40.9510601  59.3531504   6.7567397  52.9497041
  58.5764838   7.3161318  52.9399906  59.9922067   7.2424180  53.4711911
  67.1452284   3.5394190  46.7840018  66.5026664   3.8326723  46.1379812
  66.6407213   3.4247111  47.5893214  64.7992448   7.2857363  37.4725877
  65.7110304   7.5184750  37.2973575  64.2902095   7.8694408  36.9100956
  57.6077876   9.5652851  52.5115008  58.3492560  10.1037895  52.2349832
  56.9014861  10.1919140  52.6686560  63.0833216  11.7081991  51.1087170
  63.4916572  11.2664402  50.3641802  62.3610477  11.1334619  51.3621363
  59.4364286   6.6454598  48.4820727  60.2825481   7.0694012  48.6255376
  59.3762923   5.9888222  49.1759290  63.4062030  12.2683182  44.8639458
  62.7770893  12.4328896  44.1615526  63.0187692  12.6824792  45.6350423
  67.2851262  13.2037620  42.2183822  66.6002300  13.5836521  41.6680856
  67.3695111  13.8132946  42.9515770  62.5863731   4.3058966  50.1401900
  62.3424663   5.0601027  49.6036176  62.8623661   4.6844314  50.9749147
  64.5402194  10.8497579  48.8179166  64.7519089  11.4929339  48.1413547
  64.4931942  10.0159895  48.3501096  62.1428423   3.4615399  45.7215738
  61.2812902   3.7596653  46.0132475  62.1690857   3.6785798  44.7896771
  58.9589992  12.0057590  42.1289544  59.4228338  12.2845293  41.3394166
  58.6946790  11.1041035  41.9462634  55.8514073  11.5529072  45.0669307
  56.4215430  11.9816340  44.4286791  56.4422185  11.2711656  45.7653493
  57.8958878   8.1280742  38.9379109  58.5982921   8.5801786  39.4053035
  57.5639507   7.4864561  39.5659002  56.3439240   6.7192499  53.3130318
  55.7137900   7.4008780  53.5465715  56.2375328   6.6075581  52.3683456
  51.6384212   6.3864295  44.2396242  50.8483266   6.6421824  43.7636353
  52.1295459   7.2012633  44.3448283  65.6548022  13.7269534  46.9901523
  66.4765465  13.3249722  46.7084205  65.6510425  13.6237768  47.9417639
  53.5898957   6.7508874  41.1979719  52.7930121   6.8627569  41.7163215
  53.3624550   7.0895527  40.3320610  59.4204625  13.2753578  49.1462234
  59.4849058  13.7373985  49.9820405  58.7115549  12.6450942  49.2744543
  49.9221915   6.6394786  46.6711233  50.1729953   7.5241795  46.9368809
  50.4581463   6.4599387  45.8986325  73.7454015  10.0708283  43.3386495
  72.9917723   9.5015681  43.1830499  73.8801556  10.0370947  44.2857129
  59.1352643  14.9421685  39.0141214  58.9998318  15.7873221  39.4426062
  59.6762455  15.1440963  38.2507148  55.6219982   1.0213265  55.6755569
  55.2286928   0.4679463  56.3503213  56.4386123   1.3323843  56.0662087
  52.5882040  12.4597123  39.5869139  53.1006561  13.2540373  39.7374704
  53.2404753  11.7623414  39.5202741  54.3976925  15.5762879  41.6691892
  54.5743553  16.4980844  41.4812876  55.1933758  15.2621299  42.0986272
  58.5387943   2.4371144  53.2675826  59.2797657   3.0378297  53.1880288
  58.7705866   1.6948782  52.7093868  53.6829281   7.6227511  51.5454055
  53.5682797   6.7212768  51.8461154  52.8273799   7.8691208  51.1938872
  60.7621119  15.5645252  53.1441556  60.3184973  14.7781630  52.8262461
  61.4238333  15.7524402  52.4785447  55.5208240  17.0941053  47.6702235
  56.0715665  16.9658116  46.8979228  54.6819716  17.3935942  47.3197127
  62.8602357  15.8448051  51.1722957  62.8420833  16.6656933  50.6803226
  63.7822277  15.7202127  51.3973098  59.3175411  13.3592181  52.0146466
  59.8503748  12.5980469  51.7845774  58.7889492  13.0665833  52.7570620
  62.4845106  -1.5347753  47.5440107  62.1409376  -0.6446111  47.4679218
  62.8524069  -1.7246095  46.6809692  50.5530957  10.7885777  40.3628710
  51.3906179  11.1982786  40.1462417  50.7309225   9.8485220  40.3328903
  62.4495389   8.4560858  36.0512543  61.9342012   9.2265463  36.2900930
  62.1772697   7.7825994  36.6745604  60.0342500   3.3010559  41.1097781
  59.1784096   2.9117409  40.9303420  60.4469452   3.3802520  40.2497566
  61.5641647   0.8356902  45.5089341  61.0606442   0.7987037  44.6957146
  61.8572254   1.7449645  45.5685997  57.8084533   0.9195632  44.5155522
  58.6737529   0.7238440  44.1561412  57.8762041   0.6905984  45.4424879
  67.4229663  11.2093213  37.9865716  66.6459106  10.8704372  37.5420878
  68.1021144  11.2145836  37.3120681  62.2381692   6.3287950  37.8772324
  61.9331828   6.6434099  38.7282467  63.1912134   6.4069370  37.9199657
  60.6828124  12.4878173  39.5265278  60.1549486  11.7530933  39.2138515
  60.1815627  13.2652850  39.2805246  65.6620970  10.6827194  44.6432324
  65.0044644  11.3726455  44.7312453  66.4661369  11.0723626  44.9866310
  55.4146852   3.1497840  41.8871889  55.9890604   2.9273021  41.1545082
  56.0017834   3.2186534  42.6400491  64.4726429   9.0371567  42.6936266
  64.9858311   9.6701558  43.1957975  65.1227653   8.4372762  42.3279626
  55.7416439   5.1802301  35.9067774  54.9053751   5.5176987  36.2277049
  55.6021208   5.0451281  34.9694911  57.7169519   0.0239089  40.6146959
  57.0633932  -0.2911894  39.9903573  57.6749994  -0.5985171  41.3406782
  58.8280724  10.3058384  32.5300251  57.9207786  10.0747637  32.7291400
  59.3251756   9.5096003  32.7174232  61.7348803  19.0155891  35.4496937
  61.0610502  19.3187588  36.0581895  62.1214625  19.8184971  35.1002394
  60.9507260   6.5121022  44.9394606  60.0329821   6.7335969  44.7816294
  61.3667403   6.5867333  44.0806314  61.7342307   7.9112438  40.0697287
  62.4814126   8.4233835  39.7604409  62.0033897   7.5896491  40.9301680
  60.0068958  10.4070979  37.0524241  59.0980177  10.1230011  37.1496711
  60.0364041  10.8270057  36.1927548  65.2388225  14.0177568  40.8215408
  64.7850552  13.1768478  40.8780599  64.6082192  14.6538966  41.1590189
  64.1821145   4.9469554  42.0516076  63.4443901   4.4346940  42.3826318
  64.4347918   4.5069936  41.2399353  63.6821164  15.8554065  41.7565227
  63.9744139  16.4159122  41.0377592  64.1919785  16.1482626  42.5118386
  64.2832772  -2.2754194  42.6457845  64.5891649  -3.1356830  42.3583760
  65.0085377  -1.6836574  42.4456839  50.5757128   8.1276493  41.0339443
  50.3781528   7.5345853  40.3090510  50.0203792   7.8228703  41.7515382
  58.5553852   8.0199599  43.1534036  58.6102461   7.0673436  43.0776513
  57.7445054   8.1759038  43.6375335  59.7045045  11.9479722  34.3912319
  59.2664475  11.2315581  33.9317957  60.4455486  12.1755837  33.8297411
  56.4946212   6.6376659  40.9124415  55.6814077   6.9370829  41.3189607
  56.9905206   6.2432348  41.6298897  58.6454790  16.6334416  42.8458680
  58.6030968  16.8595262  41.9167212  59.5617488  16.3997790  42.9944481
  62.0920423   7.1018483  49.7439309  62.4469811   7.3289957  50.6033775
  62.7392555   7.4336860  49.1216564  67.8218160  10.2236919  40.4488638
  67.6836059  10.4138515  39.5209827  67.4654379  10.9856302  40.9056689
  55.9860286   4.2095014  46.5285650  56.6259666   4.0683774  45.8308613
  55.1537817   3.9229528  46.1524252  67.8487540  12.2913446  45.4599909
  68.2824047  12.1988735  46.3082963  68.5619121  12.2670947  44.8219925
  56.7620590  13.5097445  42.6420642  57.5561189  13.0147765  42.4403217
  56.0512283  12.9815308  42.2788348  61.5815435  15.8915540  46.9933010
  61.6352457  16.4606477  47.7610726  60.7130216  16.0617425  46.6287047
  53.0703354   7.6540527  38.7180395  52.1400942   7.5924982  38.9350357
  53.1660826   7.1316479  37.9217036  52.9888903   4.1795339  41.3058637
  53.2495720   5.0940673  41.1967797  53.8106075   3.7119782  41.4555250
  54.4613828   5.5933097  48.4757461  55.1336882   5.3850459  47.8270110
  53.6343615   5.3955183  48.0362694  68.7103089  12.3337147  47.9932795
  68.9038979  13.2382957  48.2392070  68.6103708  11.8744566  48.8271380
  60.3639400   2.2195038  50.4923122  59.7167315   2.9184987  50.3987599
  61.1340416   2.6531181  50.8599370  63.7718198  12.4843890  53.5673675
  63.6203705  12.2554441  52.6503759  63.7622878  13.4414491  53.5805020
  60.5403534  10.0575802  48.5519942  61.4695595  10.2086962  48.3788909
  60.1194565  10.1459823  47.6968588  59.3391866  14.0826467  46.3218480
  59.2002952  13.7145251  47.1944418  58.5506463  14.5974106  46.1502437
  59.9340018  19.1835563  37.6644016  60.1091774  18.7123606  38.4789639
  59.2472806  19.8101330  37.8925277  60.8897081  13.4608070  43.7107317
  60.5546914  13.4208840  44.6064967  60.3901027  12.7952785  43.2377728
  54.8641325   8.8675700  49.2359898  54.7261123   8.1355938  49.8371438
  55.7746249   8.7784600  48.9544086  63.8256273  10.8064104  33.9844377
  63.2085444  10.0810932  33.8877430  63.3572762  11.5673464  33.6411451
  57.4923626   8.5795659  48.7243578  58.2023245   7.9388851  48.6830197
  57.4492934   8.8308554  49.6469759  65.4810405  15.5163012  51.6450157
  65.4222951  14.8322232  50.9780740  65.8829923  16.2582002  51.1930783
  56.2052560   5.5660877  50.5439218  55.6689917   5.1151615  51.1960814
  55.6169268   5.7006786  49.8009682  54.5001104  22.3324926  44.4383876
  54.7397702  22.9643450  45.1162895  53.6570300  21.9812966  44.7249235
  55.6154819   5.0249528  33.1065681  54.7384285   4.9038329  32.7427928
  56.0912572   4.2335606  32.8544570  65.4827812  13.4802596  49.8764137
  64.5954591  13.1428518  49.9990536  66.0526363  12.7485627  50.1132902
  47.1356959   9.8126688  43.2007188  47.8227999   9.4988418  42.6128204
  46.9805088  10.7168053  42.9274440  51.9391681   4.7016884  47.6292212
  51.8549870   4.0942554  46.8942622  51.1174388   5.1925903  47.6301708
  59.0128965  18.1404049  46.8425380  58.9399137  18.9459020  47.3544685
  58.5706359  18.3396014  46.0173402  58.8018745  17.3775819  40.3528202
  58.0186267  17.9197499  40.4466426  59.5011490  17.8949798  40.7522443
  62.1115395   3.1870448  42.9962407  62.6084095   2.4340410  42.6763477
  61.3402377   3.2234765  42.4305616  69.9645153   8.8910814  44.6380699
  69.9535029   9.7735529  44.2674632  69.0962532   8.5382364  44.4435236
  61.4727649  18.0390883  48.9983539  62.1855621  18.6738347  48.9259440
  60.9817678  18.1354749  48.1823541  63.1945176  11.9442135  40.5700831
  62.2601455  12.0643598  40.4005535  63.3721844  11.0414602  40.3060840
  58.6950364   5.3287831  42.7234092  58.3248151   4.7758871  43.4114997
  59.1909456   4.7245964  42.1709092  66.5817727   7.7859454  41.1050865
  67.0478179   8.6187446  41.0311167  67.0325228   7.3204436  41.8096123
  56.5239562  15.7885326  49.8189110  57.2249022  16.4221809  49.9718504
  56.0534677  16.1300058  49.0584749  64.6493958  14.1303276  38.1037017
  64.9253802  14.0159870  39.0130891  63.7798457  13.7320761  38.0649190
  64.5534390   0.1540041  45.1441766  63.6397470   0.3844268  45.3123973
  64.9827491   0.2378486  45.9955798  64.3240848   8.3429933  47.6441660
  63.6712299   8.5905841  46.9894113  64.7021228   7.5294072  47.3104137
  61.2848022  18.3789627  41.7469830  61.4670417  17.5611283  42.2097583
  62.1081008  18.5957319  41.3094720  61.6190188  17.3057812  39.0084879
  62.1477954  16.7950266  38.3955041  61.8818407  16.9900342  39.8730412
  60.3728421   9.0849745  54.1307697  59.6969058   8.9843874  54.8010072
  61.1956055   8.9288958  54.5943694  52.1207281  15.3221681  46.7520212
  52.7060717  14.5765369  46.8848117  51.9232119  15.6325638  47.6356876
  54.9745936  18.3572928  41.7682655  54.3056311  18.8419056  41.2846695
  54.8358805  18.6042149  42.6826033  46.7124935   7.8927281  45.4724656
  46.7509035   7.3590872  46.2661774  46.2065228   7.3662487  44.8535633
  59.1151204  20.3916672  48.3665313  59.6669512  20.5548293  49.1314398
  59.4557398  20.9821110  47.6945338  54.0915698   2.7391822  48.9687198
  54.1557024   3.6006653  48.5564596  54.0282818   2.1265823  48.2359556
  53.5667970   4.8114954  52.6160232  54.1940009   4.4292032  53.2297756
  52.7095889   4.5929156  52.9815925  63.9662079  15.2177929  54.2213968
  64.5101983  15.8307888  53.7268922  63.3848923  15.7757508  54.7380981
  50.3433513   6.6191383  38.5478587  50.6386954   5.7102062  38.4945641
  49.4421549   6.5979123  38.2259589  62.2519592  18.3398647  45.3528995
  62.1270731  17.5388387  44.8439941  62.9098683  18.8344841  44.8642965
  53.8727760   4.6947380  44.5306136  53.1514346   5.3083348  44.3913609
  54.6621016   5.2305145  44.4522781  64.3154500  16.1407668  46.9808545
  63.3684836  16.0213019  46.9086872  64.6637273  15.2530166  47.0634807
  56.6754073   2.0301806  50.8046787  57.1988475   2.2764103  51.5673097
  56.4566407   2.8621841  50.3849925  52.0721354   4.3005481  38.6717912
  51.7434061   3.4202860  38.4893018  52.4260725   4.2453150  39.5594301
  61.3200933  15.9360384  43.1812898  61.1725896  15.0077091  43.3620468
  62.1454427  15.9580474  42.6969973  55.1863178   4.5878451  39.0393390
  55.5259250   5.1164372  38.3171998  55.6335298   4.9258857  39.8151956
  64.9235055  16.7588943  44.2677770  65.8481603  16.5531804  44.1302221
  64.7550359  16.5105344  45.1767112  57.8806618   2.9715502  48.4896458
  57.5403439   2.1723315  48.8917138  57.1745625   3.2717212  47.9173291
  58.5323090   0.0564814  46.9423781  59.3549160  -0.4174708  46.8202671
  58.7761154   0.8355298  47.4422467  57.1731325   3.0853072  37.2386683
  57.8939687   3.4634325  36.7350399  56.5496629   3.8041949  37.3421660
  61.3162448   3.7898221  38.1745015  61.5326062   4.6722859  37.8733843
  60.8356515   3.3984435  37.4450657  56.0561669   6.7483935  44.7515759
  55.9106250   7.0624238  45.6440041  55.5786873   7.3668835  44.1986658
  57.9158052   3.7386483  44.7996649  57.9019621   2.8427576  44.4628947
  58.6330480   3.7457146  45.4334935  59.7684183   4.1723823  46.8449776
  59.5101960   5.0940893  46.8434107  59.2369223   3.7754257  47.5350241
  64.7130371  17.2774610  39.6239862  64.8867249  16.7121032  38.8713714
  65.2059263  18.0775505  39.4419352  50.5307331   9.2889279  47.6903421
  49.9860799  10.0649087  47.8223695  51.4086681   9.6360084  47.5322542
  57.3194948   2.6200863  40.0684219  57.4410859   1.6917509  40.2675107
  57.0296990   2.6339549  39.1562535  60.1886138   0.3055773  43.2050939
  60.2107835   0.3695106  42.2502919  60.6054197  -0.5339718  43.3991445
  70.5669763  10.0411033  41.2430162  71.0100909   9.2918358  40.8449285
  69.6896273  10.0321169  40.8603894  65.7005544  16.5941374  36.7236760
  66.3956448  17.2148067  36.9424075  66.0428694  15.7436726  36.9989138
  51.3173353   8.4159175  50.5833577  50.5755089   8.5641811  51.1698208
  50.9966097   8.6767441  49.7200327  67.5996967  14.0441080  38.2524091
  68.1248291  14.3828353  37.5273411  67.5119320  13.1088095  38.0687225
  59.2617016  17.9575154  50.3813967  59.5704142  17.7124300  51.2536667
  60.0592498  18.1621792  49.8932838  59.2837628  20.1113063  42.6119344
  58.8442618  19.6189442  43.3052201  60.0345745  19.5686031  42.3711419
  51.7629967  16.3024604  42.6143972  52.5887987  16.0028376  42.2342616
  51.4124019  15.5332226  43.0633761  56.7311500  15.6551072  44.6841646
  56.1091509  14.9921777  44.3843874  57.4016367  15.6812204  44.0015293
  49.9638572  14.2210931  43.5732906  49.1270480  13.7933105  43.3916907
  49.9362217  14.4143374  44.5103697  56.8036027   4.1332860  54.2774152
  56.8524183   5.0094983  53.8951921  57.3458542   3.5910253  53.7045795
  67.2890873  14.6773984  53.5575289  66.4986417  14.6598122  53.0179788
  67.0524228  15.2162277  54.3124325  67.4088748  11.5266450  50.8708017
  67.4586753  11.3616457  51.8123540  67.3002671  10.6593709  50.4805898
  56.2925007  14.2054996  38.1600106  56.4413127  14.8890460  37.5066779
  57.0991450  14.1860086  38.6749562  64.6992510   7.5097378  52.1867324
  65.6002373   7.3703843  51.8951322  64.7740485   7.6751833  53.1265501
  59.0335316   4.8864233  51.0320510  58.1638625   5.1797799  50.7603099
  59.2694796   5.4704678  51.7527774  68.9106945  13.9463391  51.1150039
  68.6191753  14.3093372  51.9513500  68.2979076  13.2330400  50.9363371
  70.1102627  11.5116271  43.6352609  70.9449519  11.9506075  43.7990169
  70.2461756  11.0354924  42.8160855  67.1594133   9.0696006  49.5830097
  67.6348255   9.2623652  48.7748948  66.2359699   9.1255192  49.3373481
  54.0477640  10.2320173  39.1661175  53.8023682   9.3282503  39.3641385
  54.2173554  10.2337324  38.2240653  61.7374350   1.1043850  48.5485931
  62.2556293   1.8404877  48.2232419  61.3829482   1.4107843  49.3832690
  53.3173287   5.9648531  36.6647337  52.6242532   6.0392886  36.0087373
  53.0725039   5.2008874  37.1868854  61.9886944  -2.4755868  44.0686827
  62.2688698  -3.1432679  44.6947254  62.7737551  -2.2826772  43.5561491
  59.7920412  16.7003126  35.6311854  59.2194379  17.3193313  35.1782326
  60.3653206  17.2502488  36.1651776  65.8595802   5.9461766  47.8158402
  66.8113225   6.0459864  47.8370627  65.6899253   5.1540035  48.3256487
  63.8810182   3.0317349  48.0017803  63.2860114   3.3122362  47.3064292
  63.5959878   3.5211250  48.7734545  63.0117672  16.9840276  36.7620436
  63.9448345  16.9185838  36.9653311  62.9240885  17.8196543  36.3034969
  65.6405689  16.3006147  33.7224384  65.5619320  15.9666010  34.6160141
  66.4615356  16.7927914  33.7215856  68.3383880   9.1667886  46.9300702
  68.3060200   8.2283887  47.1160386  68.9484504   9.2451923  46.1966527
  60.1767211   8.0363939  32.9727906  61.1226316   7.9070147  33.0416324
  59.7981456   7.2978601  33.4497334  68.4878368   5.9578929  46.9758985
  67.9717417   5.1737386  46.7888914  69.3718317   5.6297646  47.1405505
  66.1489095  -0.2980055  42.9354798  65.9513916  -0.6064967  43.8198130
  66.7588801   0.4281584  43.0652728  74.1560430  10.2283893  46.0706739
  74.8863818   9.9669181  46.6314442  73.5467375   9.4912615  46.1108807
  72.2375727   8.3691755  46.6681190  71.5108890   8.2347720  46.0597682
  71.8223014   8.6768584  47.4737908  60.0605903  12.0881685  54.4328563
  60.9808913  12.2660284  54.6268610  60.0255486  11.1437730  54.2808262
  58.3610128   5.9613915  32.9082791  57.4541583   5.6647028  32.9845505
  58.6386109   5.6643733  32.0417078  49.2788068   7.2820279  43.3581838
  48.9590853   6.4285587  43.0656212  48.7321497   7.4968857  44.1139805
  53.0567976   9.9982720  47.0751344  53.2753986  10.9299827  47.0939378
  53.4693750   9.6390694  47.8606148  59.9772194   0.5050805  39.0627033
  59.1672922   0.1597890  39.4382279  60.6656611   0.1958349  39.6514644
  61.9062742  -0.4171148  40.6851329  62.4593781   0.0024305  41.3441352
  62.1432828  -1.3435400  40.7274285  57.9295841   5.5715925  56.4654093
  57.8292568   6.5210282  56.3966184  57.7117383   5.2434164  55.5930163
  57.1308913   2.8200850  33.0494771  57.9928077   3.1455749  33.3090588
  57.3159257   2.0332346  32.5367836  49.1476328  10.9023190  45.3274959
  48.4539800  10.4877143  44.8144914  49.8949319  10.9443727  44.7308378
  65.2841549   1.6929377  40.1929994  64.7040218   2.3514181  39.8108046
  65.0177482   0.8706721  39.7817411  63.7345115   1.0934435  42.3951314
  64.2344894   1.2050969  41.5865633  64.3780723   0.7895487  43.0352122
  57.7927111   9.0013064  55.2819155  57.3094193   9.8013424  55.4883044
  57.8788050   9.0121009  54.3286599  51.0613071  10.8341444  43.2040974
  51.0383759  10.9329131  42.2522857  51.3713707  11.6806595  43.5258140
  53.7200449  12.8917599  47.3187589  54.6743702  12.8601541  47.2517520
  53.5212972  12.4308223  48.1337815  54.3099831  11.4618715  49.8858386
  55.1292720  11.9562794  49.9093224  54.5836639  10.5450683  49.8575954
  64.0666427   3.8529467  39.2486342  63.1792282   4.1379118  39.0306537
  64.4820416   3.6923231  38.4013619  67.4180963   3.8775988  42.9640681
  68.1941353   4.3672441  43.2365298  66.6929097   4.3034042  43.4212551
  69.8553522   4.5903607  44.0214622  70.4498013   4.3499343  43.3107930
  69.9280106   3.8710738  44.6488158  52.0750678  18.4337218  44.3357787
  51.9405145  17.6737619  43.7695785  51.6582740  19.1578118  43.8686575
  63.2109641  13.6174142  33.3434362  63.9145491  13.8224144  33.9592017
  62.4872289  14.1850904  33.6083445  64.0407451   9.3684003  39.4636632
  63.9842652   9.8252555  38.6244264  64.5935793   8.6074688  39.2859475
  67.8512257   5.1573735  40.2886752  67.5949191   4.7570371  41.1194959
  67.2265125   5.8717529  40.1636891  72.1624595   7.8969808  42.7958043
  71.6024153   7.9662998  43.5689605  71.5568098   7.7210793  42.0757539
  55.2319803  19.3306535  44.5476229  55.1152188  20.2751968  44.4454919
  54.4112250  19.0280097  44.9362028  65.1196338  14.0556671  35.3932822
  65.9541942  13.6237870  35.2110297  64.9580681  13.8838685  36.3209716
  64.7742230  10.5588784  36.7589161  64.7191034  10.3933056  35.8177605
  64.1488285  11.2664817  36.9151351  49.5634745   5.7956849  50.5850583
  50.2093609   5.2855803  51.0737809  49.3551896   6.5325530  51.1594009
  62.0888137  12.8637696  56.0842724  62.9579297  13.0378349  55.7229359
  61.6094889  13.6832113  55.9618453  58.0838356   0.0596893  36.3374480
  58.0717025   1.0038733  36.4942750  58.9761777  -0.1232961  36.0433941
  56.2574318  19.9834797  47.7632158  57.1601564  20.0158408  48.0798653
  56.0311688  19.0535248  47.7778493  58.0127920  18.7365784  44.4242236
  57.0623551  18.7367645  44.3106609  58.3160406  17.9898518  43.9078271
  61.8990475  -3.3460330  40.5920416  61.1322871  -3.9001843  40.7377099
  62.3101180  -3.2738461  41.4534568  53.9032236   2.9424466  54.6825598
  54.7663698   2.5861271  54.8928922  53.3297647   2.6038361  55.3701002
  73.7480613  24.5726322  45.4887999  74.3859023  24.4533070  44.7851339
  73.6301456  25.5207166  45.5475951  70.5570319  24.5253750  45.4249523
  70.2188831  24.4094815  44.5370058  71.4260087  24.1244915  45.4050529
  66.4157135  26.3789227  41.4146414  65.8522000  26.2879164  40.6462702
  66.3009530  25.5589131  41.8948907  63.9621567  27.8740418  44.2530635
  64.7542859  27.5331243  43.8376934  64.2018217  27.9835393  45.1732788
  71.9956694  30.0460194  36.7260879  71.3444673  30.6314275  36.3394893
  72.7901057  30.5766389  36.7855917  65.9212321  27.1349332  37.1248014
  66.6943197  26.5878319  36.9860889  66.2737720  27.9993581  37.3362475
  67.7597363  28.4625714  50.3314913  67.4687229  29.3671345  50.2161579
  68.3954348  28.5042241  51.0458982  68.6853570  25.8402562  46.9216272
  69.2817143  25.6158585  46.2073235  68.7428542  25.0987308  47.5241720
  68.2578599  23.2941998  34.7566463  68.5104119  22.7723519  33.9949926
  67.3203158  23.1308143  34.8593147  73.3021881  22.2977776  42.5641207
  74.0884971  21.8797199  42.2131624  73.5660586  23.2023868  42.7322855
  73.4731959  27.7350626  37.2629863  72.8377792  27.8085253  37.9750768
  73.1429365  28.3244225  36.5848943  78.7030309  22.2353009  43.4674185
  79.4355481  21.6652226  43.7012015  77.9469664  21.8474610  43.9080691
  67.9774887  25.1970104  36.9590838  67.8611146  24.5215007  37.6271923
  68.0877147  24.7102478  36.1422991  70.3206428  24.6580251  40.6637528
  69.9564636  24.1310872  41.3750449  71.1773544  24.2678720  40.4904013
  76.2255729  15.9474583  47.9268794  75.8939054  16.8169994  47.7030009
  75.6301342  15.6310867  48.6062824  69.9611915  19.6870150  35.6598876
  70.1286318  20.5550387  36.0269347  69.7709084  19.8497432  34.7360165
  72.7187249  28.1487129  47.3264707  72.4187972  29.0512168  47.2180514
  72.3738308  27.8819313  48.1785859  66.1699730  24.6000926  43.3601411
  65.2450226  24.4677140  43.5679103  66.4184143  25.3795145  43.8571353
  76.1184392  20.6669670  45.0062144  75.2101270  20.5985078  44.7120905
  76.0671988  21.1441615  45.8343969  69.9401136  22.1427808  36.6445543
  69.8200761  22.5884859  37.4831023  69.2453725  22.4913126  36.0859081
  63.5308541  24.2434200  44.1945200  63.6600922  24.4968679  45.1084612
  62.8505992  24.8361908  43.8749855  67.7008028  34.9131450  40.2935674
  67.6232058  35.8639275  40.3724155  67.0969672  34.5677322  40.9510601
  70.1925258  22.0859315  52.9497041  69.4158592  22.6453235  52.9399906
  70.8315821  22.5716098  53.4711911  77.9846039  18.8686108  46.7840018
  77.3420419  19.1618641  46.1379812  77.4800967  18.7539028  47.5893214
  75.6386202  22.6149281  37.4725877  76.5504058  22.8476668  37.2973575
  75.1295849  23.1986325  36.9100956  68.4471630  24.8944769  52.5115008
  69.1886315  25.4329812  52.2349832  67.7408616  25.5211057  52.6686560
  70.2758040  21.9746516  48.4820727  71.1219235  22.3985929  48.6255376
  70.2156678  21.3180140  49.1759290  74.2455785  27.5975100  44.8639458
  73.6164647  27.7620814  44.1615526  73.8581447  28.0116709  45.6350423
  78.1245017  28.5329537  42.2183822  77.4396055  28.9128439  41.6680856
  78.2088866  29.1424864  42.9515770  73.4257485  19.6350884  50.1401900
  73.1818417  20.3892945  49.6036176  73.7017416  20.0136232  50.9749147
  72.9822177  18.7907317  45.7215738  72.1206656  19.0888571  46.0132475
  73.0084612  19.0077716  44.7896771  69.7983747  27.3349508  42.1289544
  70.2622092  27.6137211  41.3394166  69.5340545  26.4332952  41.9462634
  66.6907828  26.8820989  45.0669307  67.2609185  27.3108258  44.4286791
  67.2815939  26.6003574  45.7653493  68.7352633  23.4572660  38.9379109
  69.4376676  23.9093704  39.4053035  68.4033261  22.8156479  39.5659002
  67.1832994  22.0484417  53.3130318  66.5531655  22.7300698  53.5465715
  67.0769082  21.9367498  52.3683456  62.4777967  21.7156213  44.2396242
  61.6877021  21.9713741  43.7636353  62.9689214  22.5304551  44.3448283
  64.4292712  22.0800792  41.1979719  63.6323875  22.1919486  41.7163215
  64.2018304  22.4187444  40.3320610  70.2598380  28.6045495  49.1462234
  70.3242812  29.0665902  49.9820405  69.5509303  27.9742860  49.2744543
  60.7615670  21.9686703  46.6711233  61.0123708  22.8533713  46.9368809
  61.2975218  21.7891305  45.8986325  84.5847769  25.4000200  43.3386495
  83.8311478  24.8307598  43.1830499  84.7195310  25.3662865  44.2857129
  69.9746397  30.2713603  39.0141214  69.8392072  31.1165138  39.4426062
  70.5156210  30.4732880  38.2507148  66.4613737  16.3505183  55.6755569
  66.0680682  15.7971381  56.3503213  67.2779877  16.6615761  56.0662087
  63.4275795  27.7889041  39.5869139  63.9400315  28.5832291  39.7374704
  64.0798507  27.0915331  39.5202741  65.2370679  30.9054797  41.6691892
  65.4137308  31.8272762  41.4812876  66.0327513  30.5913216  42.0986272
  69.3781698  17.7663062  53.2675826  70.1191411  18.3670215  53.1880288
  69.6099621  17.0240699  52.7093868  64.5223036  22.9519429  51.5454055
  64.4076551  22.0504686  51.8461154  63.6667554  23.1983126  51.1938872
  66.3601995  32.4232971  47.6702235  66.9109420  32.2950034  46.8979228
  65.5213471  32.7227860  47.3197127  73.3238861  13.7944165  47.5440107
  72.9803130  14.6845806  47.4679218  73.6917823  13.6045822  46.6809692
  61.3924711  26.1177695  40.3628710  62.2299933  26.5274703  40.1462417
  61.5702979  25.1777137  40.3328903  73.2889144  23.7852776  36.0512543
  72.7735767  24.5557380  36.2900930  73.0166452  23.1117912  36.6745604
  70.8736255  18.6302476  41.1097781  70.0177851  18.2409327  40.9303420
  71.2863206  18.7094437  40.2497566  72.4035401  16.1648820  45.5089341
  71.9000197  16.1278955  44.6957146  72.6966008  17.0741562  45.5685997
  68.6478287  16.2487549  44.5155522  69.5131284  16.0530358  44.1561412
  68.7155796  16.0197901  45.4424879  78.2623418  26.5385130  37.9865716
  77.4852860  26.1996290  37.5420878  78.9414899  26.5437754  37.3120681
  73.0775447  21.6579868  37.8772324  72.7725582  21.9726017  38.7282467
  74.0305889  21.7361288  37.9199657  71.5221879  27.8170091  39.5265278
  70.9943240  27.0822851  39.2138515  71.0209381  28.5944767  39.2805246
  76.5014725  26.0119112  44.6432324  75.8438399  26.7018373  44.7312453
  77.3055124  26.4015544  44.9866310  66.2540606  18.4789757  41.8871889
  66.8284358  18.2564939  41.1545082  66.8411589  18.5478452  42.6400491
  75.3120183  24.3663484  42.6936266  75.8252065  24.9993476  43.1957975
  75.9621407  23.7664680  42.3279626  66.5810193  20.5094218  35.9067774
  65.7447506  20.8468905  36.2277049  66.4414963  20.3743198  34.9694911
  68.5563274  15.3531006  40.6146959  67.9027686  15.0380023  39.9903573
  68.5143748  14.7306747  41.3406782  69.6674479  25.6350301  32.5300251
  68.7601540  25.4039555  32.7291400  70.1645511  24.8387921  32.7174232
  72.5742558  34.3447809  35.4496937  71.9004256  34.6479505  36.0581895
  72.9608380  35.1476889  35.1002394  71.7901014  21.8412940  44.9394606
  70.8723576  22.0627887  44.7816294  72.2061158  21.9159250  44.0806314
  72.5736062  23.2404356  40.0697287  73.3207881  23.7525753  39.7604409
  72.8427652  22.9188408  40.9301680  70.8462712  25.7362896  37.0524241
  69.9373931  25.4521929  37.1496711  70.8757796  26.1561975  36.1927548
  76.0781980  29.3469486  40.8215408  75.6244307  28.5060396  40.8780599
  75.4475946  29.9830884  41.1590189  75.0214899  20.2761472  42.0516076
  74.2837656  19.7638858  42.3826318  75.2741673  19.8361853  41.2399353
  74.5214919  31.1845982  41.7565227  74.8137893  31.7451040  41.0377592
  75.0313539  31.4774543  42.5118386  75.1226526  13.0537724  42.6457845
  75.4285403  12.1935087  42.3583760  75.8479131  13.6455344  42.4456839
  61.4150883  23.4568410  41.0339443  61.2175282  22.8637771  40.3090510
  60.8597547  23.1520621  41.7515382  69.3947606  23.3491517  43.1534036
  69.4496216  22.3965353  43.0776513  68.5838808  23.5050956  43.6375335
  70.5438800  27.2771640  34.3912319  70.1058230  26.5607499  33.9317957
  71.2849241  27.5047755  33.8297411  67.3339966  21.9668577  40.9124415
  66.5207832  22.2662747  41.3189607  67.8298960  21.5724265  41.6298897
  69.4848544  31.9626334  42.8458680  69.4424723  32.1887180  41.9167212
  70.4011243  31.7289708  42.9944481  72.9314178  22.4310401  49.7439309
  73.2863566  22.6581874  50.6033775  73.5786309  22.7628778  49.1216564
  78.6611915  25.5528837  40.4488638  78.5229813  25.7430433  39.5209827
  78.3048134  26.3148220  40.9056689  66.8254041  19.5386932  46.5285650
  67.4653420  19.3975691  45.8308613  65.9931571  19.2521445  46.1524252
  67.6014345  28.8389363  42.6420642  68.3954943  28.3439683  42.4403217
  66.8906037  28.3107226  42.2788348  63.9097108  22.9832444  38.7180395
  62.9794696  22.9216900  38.9350357  64.0054580  22.4608397  37.9217036
  63.8282657  19.5087257  41.3058637  64.0889475  20.4232590  41.1967797
  64.6499830  19.0411700  41.4555250  65.3007583  20.9225014  48.4757461
  65.9730636  20.7142376  47.8270110  64.4737369  20.7247100  48.0362694
  71.2033155  17.5486955  50.4923122  70.5561070  18.2476905  50.3987599
  71.9734170  17.9823099  50.8599370  71.3797289  25.3867720  48.5519942
  72.3089349  25.5378880  48.3788909  70.9588319  25.4751741  47.6968588
  70.1785621  29.4118385  46.3218480  70.0396706  29.0437169  47.1944418
  69.3900217  29.9266024  46.1502437  70.7733773  34.5127481  37.6644016
  70.9485528  34.0415524  38.4789639  70.0866561  35.1393247  37.8925277
  71.7290836  28.7899987  43.7107317  71.3940669  28.7500757  44.6064967
  71.2294782  28.1244703  43.2377728  65.7035080  24.1967617  49.2359898
  65.5654878  23.4647856  49.8371438  66.6140003  24.1076517  48.9544086
  74.6650028  26.1356022  33.9844377  74.0479198  25.4102850  33.8877430
  74.1966516  26.8965382  33.6411451  68.3317381  23.9087577  48.7243578
  69.0416999  23.2680769  48.6830197  68.2886689  24.1600471  49.6469759
  67.0446315  20.8952794  50.5439218  66.5083672  20.4443533  51.1960814
  66.4563023  21.0298703  49.8009682  65.3394858  37.6616844  44.4383876
  65.5791456  38.2935368  45.1162895  64.4964055  37.3104884  44.7249235
  66.4548573  20.3541446  33.1065681  65.5778040  20.2330247  32.7427928
  66.9306327  19.5627524  32.8544570  57.9750714  25.1418606  43.2007188
  58.6621753  24.8280336  42.6128204  57.8198842  26.0459970  42.9274440
  62.7785436  20.0308802  47.6292212  62.6943624  19.4234472  46.8942622
  61.9568142  20.5217820  47.6301708  69.6412500  32.7067736  40.3528202
  68.8580021  33.2489416  40.4466426  70.3405245  33.2241716  40.7522443
  72.9509150  18.5162366  42.9962407  73.4477849  17.7632328  42.6763477
  72.1796131  18.5526682  42.4305616  80.8038907  24.2202731  44.6380699
  80.7928783  25.1027447  44.2674632  79.9356286  23.8674282  44.4435236
  74.0338930  27.2734053  40.5700831  73.0995209  27.3935515  40.4005535
  74.2115599  26.3706520  40.3060840  69.5344118  20.6579749  42.7234092
  69.1641906  20.1050789  43.4114997  70.0303211  20.0537882  42.1709092
  77.4211482  23.1151372  41.1050865  77.8871934  23.9479364  41.0311167
  77.8718982  22.6496354  41.8096123  67.3633317  31.1177244  49.8189110
  68.0642776  31.7513727  49.9718504  66.8928432  31.4591975  49.0584749
  75.4887713  29.4595193  38.1037017  75.7647557  29.3451788  39.0130891
  74.6192212  29.0612678  38.0649190  75.3928144  15.4831959  45.1441766
  74.4791224  15.7136186  45.3123973  75.8221246  15.5670403  45.9955798
  75.1634603  23.6721851  47.6441660  74.5106053  23.9197759  46.9894113
  75.5414983  22.8585989  47.3104137  72.1241777  33.7081544  41.7469830
  72.3064171  32.8903200  42.2097583  72.9474763  33.9249237  41.3094720
  72.4583942  32.6349729  39.0084879  72.9871709  32.1242184  38.3955041
  72.7212162  32.3192260  39.8730412  71.2122176  24.4141662  54.1307697
  70.5362813  24.3135792  54.8010072  72.0349810  24.2580876  54.5943694
  62.9601035  30.6513599  46.7520212  63.5454472  29.9057287  46.8848117
  62.7625873  30.9617555  47.6356876  65.8139690  33.6864846  41.7682655
  65.1450065  34.1710974  41.2846695  65.6752560  33.9334067  42.6826033
  57.5518690  23.2219199  45.4724656  57.5902789  22.6882790  46.2661774
  57.0458983  22.6954404  44.8535633  64.9309452  18.0683739  48.9687198
  64.9950779  18.9298570  48.5564596  64.8676572  17.4557741  48.2359556
  64.4061725  20.1406872  52.6160232  65.0333763  19.7583949  53.2297756
  63.5489643  19.9221074  52.9815925  61.1827267  21.9483301  38.5478587
  61.4780708  21.0393980  38.4945641  60.2815303  21.9271041  38.2259589
  64.7121514  20.0239298  44.5306136  63.9908100  20.6375265  44.3913609
  65.5014770  20.5597062  44.4522781  67.5147828  17.3593724  50.8046787
  68.0382230  17.6056021  51.5673097  67.2960161  18.1913759  50.3849925
  62.9115109  19.6297399  38.6717912  62.5827815  18.7494778  38.4893018
  63.2654480  19.5745067  39.5594301  66.0256932  19.9170369  39.0393390
  66.3653005  20.4456290  38.3171998  66.4729053  20.2550775  39.8151956
  68.7200373  18.3007419  48.4896458  68.3797193  17.5015232  48.8917138
  68.0139379  18.6009130  47.9173291  69.3716845  15.3856732  46.9423781
  70.1942914  14.9117210  46.8202671  69.6154908  16.1647215  47.4422467
  68.0125079  18.4144990  37.2386683  68.7333442  18.7926243  36.7350399
  67.3890383  19.1333867  37.3421660  72.1556202  19.1190139  38.1745015
  72.3719816  20.0014777  37.8733843  71.6750269  18.7276353  37.4450657
  66.8955423  22.0775852  44.7515759  66.7500004  22.3916155  45.6440041
  66.4180627  22.6960753  44.1986658  68.7551806  19.0678400  44.7996649
  68.7413375  18.1719494  44.4628947  69.4724234  19.0749064  45.4334935
  70.6077937  19.5015741  46.8449776  70.3495715  20.4232811  46.8434107
  70.0762977  19.1046175  47.5350241  75.5524126  32.6066528  39.6239862
  75.7261003  32.0412950  38.8713714  76.0453017  33.4067423  39.4419352
  61.3701086  24.6181197  47.6903421  60.8254554  25.3941005  47.8223695
  62.2480435  24.9652001  47.5322542  68.1588702  17.9492781  40.0684219
  68.2804613  17.0209427  40.2675107  67.8690745  17.9631467  39.1562535
  71.0279893  15.6347691  43.2050939  71.0501589  15.6987024  42.2502919
  71.4447952  14.7952200  43.3991445  81.4063517  25.3702951  41.2430162
  81.8494663  24.6210276  40.8449285  80.5290027  25.3613087  40.8603894
  76.5399298  31.9233292  36.7236760  77.2350203  32.5439985  36.9424075
  76.8822448  31.0728643  36.9989138  62.1567107  23.7451093  50.5833577
  61.4148844  23.8933728  51.1698208  61.8359852  24.0059359  49.7200327
  78.4390721  29.3732998  38.2524091  78.9642046  29.7120270  37.5273411
  78.3513074  28.4380013  38.0687225  62.6023721  31.6316522  42.6143972
  63.4281741  31.3320294  42.2342616  62.2517773  30.8624144  43.0633761
  67.5705254  30.9842990  44.6841646  66.9485264  30.3213695  44.3843874
  68.2410121  31.0104122  44.0015293  60.8032326  29.5502848  43.5732906
  59.9664235  29.1225023  43.3916907  60.7755972  29.7435292  44.5103697
  67.6429782  19.4624778  54.2774152  67.6917937  20.3386901  53.8951921
  68.1852296  18.9202171  53.7045795  67.1318761  29.5346913  38.1600106
  67.2806882  30.2182378  37.5066779  67.9385205  29.5152003  38.6749562
  75.5386265  22.8389296  52.1867324  76.4396128  22.6995760  51.8951322
  75.6134239  23.0043750  53.1265501  69.8729070  20.2156150  51.0320510
  69.0032380  20.5089716  50.7603099  70.1088551  20.7996595  51.7527774
  80.9496382  26.8408189  43.6352609  81.7843273  27.2797993  43.7990169
  81.0855510  26.3646842  42.8160855  77.9987888  24.3987924  49.5830097
  78.4742009  24.5915570  48.7748948  77.0753453  24.4547110  49.3373481
  64.8871394  25.5612091  39.1661175  64.6417436  24.6574421  39.3641385
  65.0567309  25.5629241  38.2240653  72.5768104  16.4335767  48.5485931
  73.0950048  17.1696794  48.2232419  72.2223237  16.7399761  49.3832690
  64.1567042  21.2940449  36.6647337  63.4636287  21.3684803  36.0087373
  63.9118794  20.5300792  37.1868854  72.8280698  12.8536050  44.0686827
  73.1082452  12.1859239  44.6947254  73.6131305  13.0465145  43.5561491
  70.6314167  32.0295044  35.6311854  70.0588134  32.6485231  35.1782326
  71.2046960  32.5794405  36.1651776  76.6989557  21.2753684  47.8158402
  77.6506980  21.3751781  47.8370627  76.5293007  20.4831952  48.3256487
  74.7203936  18.3609267  48.0017803  74.1253868  18.6414280  47.3064292
  74.4353633  18.8503168  48.7734545  73.8511427  32.3132194  36.7620436
  74.7842100  32.2477756  36.9653311  73.7634639  33.1488461  36.3034969
  76.4799443  31.6298064  33.7224384  76.4013075  31.2957928  34.6160141
  77.3009110  32.1219832  33.7215856  79.1777634  24.4959804  46.9300702
  79.1453955  23.5575804  47.1160386  79.7878258  24.5743840  46.1966527
  71.0160965  23.3655857  32.9727906  71.9620070  23.2362065  33.0416324
  70.6375210  22.6270518  33.4497334  79.3272123  21.2870847  46.9758985
  78.8111172  20.5029304  46.7888914  80.2112071  20.9589564  47.1405505
  76.9882850  15.0311863  42.9354798  76.7907671  14.7226951  43.8198130
  77.5982555  15.7573501  43.0652728  84.9954184  25.5575810  46.0706739
  85.7257573  25.2961098  46.6314442  84.3861130  24.8204532  46.1108807
  83.0769481  23.6983673  46.6681190  82.3502645  23.5639638  46.0597682
  82.6616768  24.0060502  47.4737908  69.2003882  21.2905833  32.9082791
  68.2935338  20.9938946  32.9845505  69.4779863  20.9935651  32.0417078
  60.1181823  22.6112196  43.3581838  59.7984607  21.7577504  43.0656212
  59.5715251  22.8260774  44.1139805  63.8961730  25.3274637  47.0751344
  64.1147740  26.2591745  47.0939378  64.3087504  24.9682612  47.8606148
  70.8165948  15.8342723  39.0627033  70.0066676  15.4889808  39.4382279
  71.5050365  15.5250266  39.6514644  72.7456496  14.9120769  40.6851329
  73.2987535  15.3316223  41.3441352  72.9826583  13.9856518  40.7274285
  68.7689596  20.9007843  56.4654093  68.6686323  21.8502200  56.3966184
  68.5511138  20.5726082  55.5930163  67.9702667  18.1492768  33.0494771
  68.8321831  18.4747666  33.3090588  68.1553011  17.3624264  32.5367836
  59.9870083  26.2315108  45.3274959  59.2933554  25.8169061  44.8144914
  60.7343074  26.2735644  44.7308378  76.1235304  17.0221295  40.1929994
  75.5433973  17.6806099  39.8108046  75.8571236  16.1998639  39.7817411
  74.5738870  16.4226352  42.3951314  75.0738648  16.5342887  41.5865633
  75.2174478  16.1187405  43.0352122  68.6320866  24.3304982  55.2819155
  68.1487947  25.1305342  55.4883044  68.7181805  24.3412927  54.3286599
  61.9006825  26.1633362  43.2040974  61.8777513  26.2621049  42.2522857
  62.2107462  27.0098512  43.5258140  64.5594203  28.2209517  47.3187589
  65.5137457  28.1893459  47.2517520  64.3606727  27.7600140  48.1337815
  65.1493585  26.7910633  49.8858386  65.9686474  27.2854711  49.9093224
  65.4230393  25.8742601  49.8575954  74.9060182  19.1821385  39.2486342
  74.0186037  19.4671036  39.0306537  75.3214171  19.0215148  38.4013619
  78.2574718  19.2067906  42.9640681  79.0335108  19.6964358  43.2365298
  77.5322852  19.6325960  43.4212551  80.6947276  19.9195525  44.0214622
  81.2891767  19.6791261  43.3107930  80.7673860  19.2002656  44.6488158
  62.9144432  33.7629136  44.3357787  62.7798900  33.0029537  43.7695785
  62.4976494  34.4870036  43.8686575  74.0503395  28.9466060  33.3434362
  74.7539245  29.1516062  33.9592017  73.3266044  29.5142822  33.6083445
  74.8801205  24.6975921  39.4636632  74.8236407  25.1544472  38.6244264
  75.4329548  23.9366605  39.2859475  78.6906011  20.4865653  40.2886752
  78.4342945  20.0862288  41.1194959  78.0658879  21.2009447  40.1636891
  83.0018349  23.2261726  42.7958043  82.4417907  23.2954915  43.5689605
  82.3961852  23.0502711  42.0757539  66.0713558  34.6598453  44.5476229
  65.9545942  35.6043886  44.4454919  65.2506004  34.3572015  44.9362028
  75.9590092  29.3848589  35.3932822  76.7935696  28.9529787  35.2110297
  75.7974435  29.2130603  36.3209716  75.6135985  25.8880702  36.7589161
  75.5584788  25.7224974  35.8177605  74.9882040  26.5956735  36.9151351
  60.4028500  21.1248767  50.5850583  61.0487363  20.6147720  51.0737809
  60.1945651  21.8617448  51.1594009  68.9232110  15.3888811  36.3374480
  68.9110780  16.3330651  36.4942750  69.8155532  15.2058957  36.0433941
  67.0968072  35.3126715  47.7632158  67.9995319  35.3450325  48.0798653
  66.8705442  34.3827166  47.7778493  68.8521674  34.0657702  44.4242236
  67.9017305  34.0659563  44.3106609  69.1554160  33.3190436  43.9078271
  72.7384230  11.9831588  40.5920416  71.9716625  11.4290074  40.7377099
  73.1494934  12.0553457  41.4534568  64.7425991  18.2716384  54.6825598
  65.6057452  17.9153188  54.8928922  64.1691401  17.9330278  55.3701002
  76.7606075  42.4641249  37.1248014  77.5336951  41.9170236  36.9860889
  77.1131474  43.3285499  37.3362475  79.0972353  38.6233915  34.7566463
  79.3497874  38.1015437  33.9949926  78.1596912  38.4600061  34.8593147
  78.8168642  40.5262021  36.9590838  78.7004900  39.8506925  37.6271923
  78.9270902  40.0394395  36.1422991  87.0649483  31.2766501  47.9268794
  86.7332808  32.1461912  47.7030009  86.4695097  30.9602785  48.6062824
  80.8005670  35.0162068  35.6598876  80.9680072  35.8842305  36.0269347
  80.6102839  35.1789350  34.7360165  77.4203948  35.8386136  35.9067774
  76.5841260  36.1760823  36.2277049  77.2808717  35.7035116  34.9694911
  79.3957028  30.6822924  40.6146959  78.7421441  30.3671941  39.9903573
  79.3537502  30.0598664  41.3406782  80.5068233  40.9642219  32.5300251
  79.5995295  40.7331472  32.7291400  81.0039265  40.1679838  32.7174232
  85.9620281  28.3829641  42.6457845  86.2679158  27.5227005  42.3583760
  86.6872886  28.9747262  42.4456839  72.2544637  38.7860328  41.0339443
  72.0569037  38.1929689  40.3090510  71.6991301  38.4812538  41.7515382
  81.3832554  42.6063558  34.3912319  80.9451984  41.8899417  33.9317957
  82.1242995  42.8339672  33.8297411  74.7490863  38.3124362  38.7180395
  73.8188451  38.2508817  38.9350357  74.8448335  37.7900315  37.9217036
  74.6676412  34.8379175  41.3058637  74.9283229  35.7524508  41.1967797
  75.4893584  34.3703617  41.4555250  77.2942328  35.6833364  33.1065681
  76.4171794  35.5622164  32.7427928  77.7700081  34.8919442  32.8544570
  68.8144468  40.4710523  43.2007188  69.5015508  40.1572253  42.6128204
  68.6592597  41.3751888  42.9274440  72.0221022  37.2775219  38.5478587
  72.3174463  36.3685897  38.4945641  71.1209058  37.2562958  38.2259589
  73.7508863  34.9589316  38.6717912  73.4221570  34.0786695  38.4893018
  74.1048234  34.9036985  39.5594301  78.8518834  33.7436908  37.2386683
  79.5727196  34.1218161  36.7350399  78.2284138  34.4625785  37.3421660
  82.9949957  34.4482057  38.1745015  83.2113571  35.3306695  37.8733843
  82.5144024  34.0568270  37.4450657  78.9982457  33.2784698  40.0684219
  79.1198368  32.3501344  40.2675107  78.7084499  33.2923384  39.1562535
  74.9960796  36.6232366  36.6647337  74.3030041  36.6976721  36.0087373
  74.7512548  35.8592710  37.1868854  83.6674453  28.1827968  44.0686827
  83.9476207  27.5151157  44.6947254  84.4525060  28.3757063  43.5561491
  81.8554720  38.6947774  32.9727906  82.8013824  38.5653982  33.0416324
  81.4768965  37.9562436  33.4497334  80.0397637  36.6197751  32.9082791
  79.1329092  36.3230863  32.9845505  80.3173618  36.3227569  32.0417078
  81.6559703  31.1634640  39.0627033  80.8460431  30.8181725  39.4382279
  82.3444120  30.8542184  39.6514644  83.5850251  30.2412687  40.6851329
  84.1381290  30.6608141  41.3441352  83.8220337  29.3148435  40.7274285
  78.8096422  33.4784686  33.0494771  79.6715586  33.8039584  33.3090588
  78.9946766  32.6916182  32.5367836  79.7625865  30.7180729  36.3374480
  79.7504534  31.6622569  36.4942750  80.6549286  30.5350874  36.0433941
  83.5777984  27.3123505  40.5920416  82.8110380  26.7581992  40.7377099
  83.9888689  27.3845374  41.4534568  93.6744203  60.7044030  36.7260879
  93.0232182  61.2898110  36.3394893  94.4688565  61.2350225  36.7855917
  95.1519468  58.3934462  37.2629863  94.5165301  58.4669088  37.9750768
  94.8216874  58.9828061  36.5848943 100.3817818  52.8936845  43.4674185
 101.1142990  52.3236061  43.7012015  99.6257173  52.5058445  43.9080691
  89.6562396  55.8553939  36.9590838  89.5398655  55.1798842  37.6271923
  89.7664656  55.3686313  36.1422991  97.3173711  53.2733117  37.4725877
  98.2291567  53.5060503  37.2973575  96.8083358  53.8570161  36.9100956
  99.8032526  59.1913373  42.2183822  99.1183564  59.5712274  41.6680856
  99.8876375  59.8008699  42.9515770  98.1729285  59.7145287  46.9901523
  98.9946729  59.3125475  46.7084205  98.1691688  59.6113521  47.9417639
 106.2635278  56.0584036  43.3386495 105.5098987  55.4891434  43.1830499
 106.3982819  56.0246700  44.2857129  91.6533906  60.9297438  39.0141214
  91.5179581  61.7748974  39.4426062  92.1943719  61.1316716  38.2507148
  93.2802383  61.5521005  53.1441556  92.8366237  60.7657383  52.8262461
  93.9419596  61.7400155  52.4785447  95.3783621  61.8323804  51.1722957
  95.3602096  62.6532686  50.6803226  96.3003541  61.7077880  51.3973098
  99.9410927  57.1968966  37.9865716  99.1640369  56.8580125  37.5420878
 100.6202408  57.2021589  37.3120681  98.1802234  56.6702947  44.6432324
  97.5225908  57.3602208  44.7312453  98.9842633  57.0599379  44.9866310
  91.3461988  56.2934137  32.5300251  90.4389049  56.0623390  32.7291400
  91.8433020  55.4971756  32.7174232  97.7569489  60.0053321  40.8215408
  97.3031816  59.1644231  40.8780599  97.1263455  60.6414719  41.1590189
  96.2002428  61.8429818  41.7565227  96.4925402  62.4034875  41.0377592
  96.7101048  62.1358379  42.5118386  92.2226309  57.9355475  34.3912319
  91.7845739  57.2191334  33.9317957  92.9636750  58.1631590  33.8297411
 100.3399424  56.2112672  40.4488638 100.2017322  56.4014268  39.5209827
  99.9835643  56.9732055  40.9056689 100.3668803  58.2789199  45.4599909
 100.8005310  58.1864488  46.3082963 101.0800384  58.2546700  44.8219925
 101.2284353  58.3212900  47.9932795 101.4220243  59.2258710  48.2392070
 101.1284971  57.8620319  48.8271380  96.3437537  56.7939857  33.9844377
  95.7266707  56.0686685  33.8877430  95.8754025  57.5549217  33.6411451
  97.9991668  61.5038765  51.6450157  97.9404214  60.8197985  50.9780740
  98.4011187  62.2457755  51.1930783  98.0009075  59.4678349  49.8764137
  97.1135854  59.1304271  49.9990536  98.5707627  58.7361380  50.1132902
 102.4826416  54.8786567  44.6380699 102.4716292  55.7611282  44.2674632
 101.6143795  54.5258117  44.4435236  99.0998991  53.7735208  41.1050865
  99.5659443  54.6063199  41.0311167  99.5506491  53.3080189  41.8096123
  97.1675222  60.1179029  38.1037017  97.4435066  60.0035623  39.0130891
  96.2979720  59.7196514  38.0649190  93.8029286  64.3665380  41.7469830
  93.9851680  63.5487036  42.2097583  94.6262272  64.5833072  41.3094720
  94.1371451  63.2933565  39.0084879  94.6659218  62.7826019  38.3955041
  94.3999671  62.9776095  39.8730412  96.4843342  61.2053683  54.2213968
  97.0283246  61.8183641  53.7268922  95.9030187  61.7633261  54.7380981
  96.8335763  62.1283421  46.9808545  95.8866099  62.0088772  46.9086872
  97.1818537  61.2405919  47.0634807  93.8382197  61.9236137  43.1812898
  93.6907159  60.9952844  43.3620468  94.6635690  61.9456228  42.6969973
  97.4416319  62.7464696  44.2677770  98.3662866  62.5407557  44.1302221
  97.2731622  62.4981097  45.1767112  97.2311635  63.2650363  39.6239862
  97.4048512  62.6996785  38.8713714  97.7240526  64.0651258  39.4419352
 103.0851026  56.0286786  41.2430162 103.5282172  55.2794111  40.8449285
 102.2077536  56.0196922  40.8603894  98.2186807  62.5817127  36.7236760
  98.9137712  63.2023820  36.9424075  98.5609957  61.7312479  36.9989138
 100.1178230  60.0316833  38.2524091 100.6429555  60.3704106  37.5273411
 100.0300583  59.0963848  38.0687225  99.8072136  60.6649737  53.5575289
  99.0167680  60.6473875  53.0179788  99.5705491  61.2038030  54.3124325
  99.9270012  57.5142203  50.8708017  99.9768016  57.3492210  51.8123540
  99.8183935  56.6469462  50.4805898  97.2173774  53.4973131  52.1867324
  98.1183637  53.3579596  51.8951322  97.2921748  53.6627586  53.1265501
 101.4288208  59.9339144  51.1150039 101.1373017  60.2969125  51.9513500
 100.8160340  59.2206153  50.9363371 102.6283891  57.4992024  43.6352609
 103.4630782  57.9381828  43.7990169 102.7643019  57.0230677  42.8160855
  99.6775397  55.0571759  49.5830097 100.1529518  55.2499405  48.7748948
  98.7540962  55.1130945  49.3373481  92.3101676  62.6878879  35.6311854
  91.7375643  63.3069066  35.1782326  92.8834469  63.2378241  36.1651776
  95.5298936  62.9716029  36.7620436  96.4629609  62.9061591  36.9653311
  95.4422148  63.8072296  36.3034969  98.1586952  62.2881900  33.7224384
  98.0800584  61.9541763  34.6160141  98.9796619  62.7803667  33.7215856
 100.8565143  55.1543639  46.9300702 100.8241463  54.2159640  47.1160386
 101.4665767  55.2327676  46.1966527  92.6948474  54.0239692  32.9727906
  93.6407579  53.8945900  33.0416324  92.3162719  53.2854354  33.4497334
 106.6741693  56.2159646  46.0706739 107.4045082  55.9544934  46.6314442
 106.0648639  55.4788368  46.1108807 104.7556990  54.3567508  46.6681190
 104.0290154  54.2223473  46.0597682 104.3404277  54.6644337  47.4737908
 102.3734785  50.5779360  44.0214622 102.9679276  50.3375096  43.3107930
 102.4461369  49.8586491  44.6488158  95.7290904  59.6049895  33.3434362
  96.4326754  59.8099897  33.9592017  95.0053553  60.1726657  33.6083445
 100.3693520  51.1449488  40.2886752 100.1130454  50.7446124  41.1194959
  99.7446388  51.8593282  40.1636891 104.6805858  53.8845561  42.7958043
 104.1205416  53.9538751  43.5689605 104.0749361  53.7086546  42.0757539
  97.6377601  60.0432424  35.3932822  98.4723205  59.6113623  35.2110297
  97.4761944  59.8714438  36.3209716  97.2923494  56.5464537  36.7589161
  97.2372297  56.3808809  35.8177605  96.6669549  57.2540570  36.9151351
  94.6069401  58.8513449  56.0842724  95.4760560  59.0254102  55.7229359
  94.1276152  59.6707866  55.9618453 106.2661876  70.5602075  45.4887999
 106.9040286  70.4408823  44.7851339 106.1482719  71.5082919  45.5475951
 103.0751583  70.5129503  45.4249523 102.7370094  70.3970568  44.5370058
 103.9441351  70.1120668  45.4050529  98.9338398  72.3664980  41.4146414
  98.3703264  72.2754917  40.6462702  98.8190794  71.5464884  41.8948907
 103.5571366  71.6664355  51.3835729 103.5460007  71.2717153  50.5116233
 103.7192005  70.9330428  51.9769500  96.4802830  73.8616171  44.2530635
  97.2724122  73.5206996  43.8376934  96.7199481  73.9711146  45.1732788
 104.5137957  76.0335947  36.7260879 103.8625937  76.6190028  36.3394893
 105.3082320  76.5642142  36.7855917 100.2778627  74.4501467  50.3314913
  99.9868493  75.3547098  50.2161579 100.9135611  74.4917995  51.0458982
 101.2034834  71.8278315  46.9216272 101.7998406  71.6034338  46.2073235
 101.2609805  71.0863061  47.5241720 100.7759862  69.2817751  34.7566463
 101.0285383  68.7599272  33.9949926  99.8384421  69.1183896  34.8593147
 105.8203145  68.2853529  42.5641207 106.6066234  67.8672952  42.2131624
 106.0841849  69.1899621  42.7322855 105.9913222  73.7226379  37.2629863
 105.3559055  73.7961006  37.9750768 105.6610629  74.3119978  36.5848943
 111.2211572  68.2228762  43.4674185 111.9536744  67.6527979  43.7012015
 110.4650928  67.8350363  43.9080691 100.4956151  71.1845857  36.9590838
 100.3792409  70.5090760  37.6271923 100.6058411  70.6978231  36.1422991
 102.8387692  70.6456004  40.6637528 102.4745899  70.1186625  41.3750449
 103.6954808  70.2554473  40.4904013 108.7436992  61.9350336  47.9268794
 108.4120317  62.8045747  47.7030009 108.1482606  61.6186620  48.6062824
 102.4793179  65.6745904  35.6598876 102.6467581  66.5426140  36.0269347
 102.2890348  65.8373185  34.7360165 105.2368512  74.1362882  47.3264707
 104.9369235  75.0387921  47.2180514 104.8919572  73.8695066  48.1785859
  98.6880993  70.5876679  43.3601411  97.7631490  70.4552893  43.5679103
  98.9365407  71.3670899  43.8571353 108.6365656  66.6545423  45.0062144
 107.7282533  66.5860831  44.7120905 108.5853252  67.1317368  45.8343969
 102.4582400  68.1303561  36.6445543 102.3382025  68.5760612  37.4831023
 101.7634988  68.4788879  36.0859081  96.0489805  70.2309953  44.1945200
  96.1782186  70.4844432  45.1084612  95.3687256  70.8237661  43.8749855
 100.2189292  80.9007203  40.2935674 100.1413321  81.8515028  40.3724155
  99.6150935  80.5553075  40.9510601 102.7106522  68.0735068  52.9497041
 101.9339856  68.6328988  52.9399906 103.3497085  68.5591851  53.4711911
 110.5027302  64.8561861  46.7840018 109.8601682  65.1494394  46.1379812
 109.9982231  64.7414781  47.5893214 108.1567466  68.6025034  37.4725877
 109.0685322  68.8352421  37.2973575 107.6477113  69.1862078  36.9100956
 100.9652894  70.8820522  52.5115008 101.7067578  71.4205566  52.2349832
 100.2589879  71.5086810  52.6686560 106.4408233  73.0249662  51.1087170
 106.8491590  72.5832073  50.3641802 105.7185495  72.4502290  51.3621363
 102.7939304  67.9622269  48.4820727 103.6400499  68.3861682  48.6255376
 102.7337941  67.3055893  49.1759290 106.7637048  73.5850853  44.8639458
 106.1345911  73.7496567  44.1615526 106.3762710  73.9992462  45.6350423
 110.6426280  74.5205291  42.2183822 109.9577318  74.9004192  41.6680856
 110.7270129  75.1300617  42.9515770 105.9438749  65.6226637  50.1401900
 105.6999681  66.3768698  49.6036176 106.2198679  66.0011985  50.9749147
 107.8977212  72.1665250  48.8179166 108.1094107  72.8097009  48.1413547
 107.8506960  71.3327566  48.3501096 105.5003441  64.7783070  45.7215738
 104.6387920  65.0764324  46.0132475 105.5265875  64.9953469  44.7896771
 102.3165010  73.3225261  42.1289544 102.7803356  73.6012964  41.3394166
 102.0521808  72.4208705  41.9462634  99.2089091  72.8696742  45.0669307
  99.7790448  73.2984011  44.4286791  99.7997203  72.5879327  45.7653493
 101.2533896  69.4448413  38.9379109 101.9557939  69.8969457  39.4053035
 100.9214525  68.8032232  39.5659002  99.7014258  68.0360170  53.3130318
  99.0712918  68.7176451  53.5465715  99.5950345  67.9243251  52.3683456
 109.0123040  75.0437205  46.9901523 109.8340483  74.6417392  46.7084205
 109.0085442  74.9405439  47.9417639  96.9473975  68.0676545  41.1979719
  96.1505139  68.1795239  41.7163215  96.7199568  68.4063197  40.3320610
 102.7779643  74.5921248  49.1462234 102.8424076  75.0541655  49.9820405
 102.0690567  73.9618613  49.2744543 117.1029033  71.3875953  43.3386495
 116.3492741  70.8183352  43.1830499 117.2376574  71.3538618  44.2857129
 102.4927661  76.2589356  39.0141214 102.3573335  77.1040891  39.4426062
 103.0337473  76.4608633  38.2507148  98.9795000  62.3380936  55.6755569
  98.5861946  61.7847134  56.3503213  99.7961141  62.6491514  56.0662087
  97.7551943  76.8930550  41.6691892  97.9318571  77.8148515  41.4812876
  98.5508776  76.5788969  42.0986272 101.8962961  63.7538815  53.2675826
 102.6372675  64.3545968  53.1880288 102.1280884  63.0116452  52.7093868
  97.0404299  68.9395182  51.5454055  96.9257814  68.0380439  51.8461154
  96.1848817  69.1858879  51.1938872 104.1196137  76.8812922  53.1441556
 103.6759991  76.0949301  52.8262461 104.7813351  77.0692073  52.4785447
  98.8783258  78.4108724  47.6702235  99.4290683  78.2825787  46.8979228
  98.0394734  78.7103613  47.3197127 106.2177375  77.1615722  51.1722957
 106.1995850  77.9824603  50.6803226 107.1397295  77.0369797  51.3973098
 102.6750429  74.6759852  52.0146466 103.2078766  73.9148140  51.7845774
 102.1464510  74.3833503  52.7570620 105.8420124  59.7819918  47.5440107
 105.4984394  60.6721559  47.4679218 106.2099087  59.5921575  46.6809692
 105.8070407  69.7728529  36.0512543 105.2917030  70.5433133  36.2900930
 105.5347715  69.0993665  36.6745604 103.3917518  64.6178230  41.1097781
 102.5359114  64.2285080  40.9303420 103.8044470  64.6970190  40.2497566
 104.9216665  62.1524573  45.5089341 104.4181460  62.1154708  44.6957146
 105.2147272  63.0617315  45.5685997 101.1659551  62.2363302  44.5155522
 102.0312547  62.0406111  44.1561412 101.2337059  62.0073654  45.4424879
 110.7804681  72.5260883  37.9865716 110.0034124  72.1872043  37.5420878
 111.4596162  72.5313507  37.3120681 105.5956710  67.6455621  37.8772324
 105.2906846  67.9601770  38.7282467 106.5487152  67.7237041  37.9199657
 104.0403142  73.8045844  39.5265278 103.5124504  73.0698604  39.2138515
 103.5390645  74.5820520  39.2805246 109.0195988  71.9994865  44.6432324
 108.3619662  72.6894126  44.7312453 109.8236387  72.3891297  44.9866310
  98.7721870  64.4665510  41.8871889  99.3465622  64.2440692  41.1545082
  99.3592852  64.5354205  42.6400491 107.8301447  70.3539237  42.6936266
 108.3433329  70.9869229  43.1957975 108.4802671  69.7540433  42.3279626
  99.0991457  66.4969971  35.9067774  98.2628769  66.8344658  36.2277049
  98.9596226  66.3618951  34.9694911 101.0744537  61.3406759  40.6146959
 100.4208950  61.0255776  39.9903573 101.0325011  60.7182500  41.3406782
 102.1855742  71.6226054  32.5300251 101.2782804  71.3915308  32.7291400
 102.6826774  70.8263674  32.7174232 105.0923821  80.3323562  35.4496937
 104.4185520  80.6355258  36.0581895 105.4789643  81.1352642  35.1002394
 104.3082278  67.8288693  44.9394606 103.3904839  68.0503640  44.7816294
 104.7242421  67.9035003  44.0806314 105.0917325  69.2280109  40.0697287
 105.8389144  69.7401506  39.7604409 105.3608915  68.9064161  40.9301680
 103.3643976  71.7238649  37.0524241 102.4555195  71.4397682  37.1496711
 103.3939059  72.1437728  36.1927548 108.5963243  75.3345239  40.8215408
 108.1425570  74.4936149  40.8780599 107.9657210  75.9706637  41.1590189
 107.5396163  66.2637225  42.0516076 106.8018919  65.7514611  42.3826318
 107.7922936  65.8237606  41.2399353 107.0396182  77.1721735  41.7565227
 107.3319157  77.7326793  41.0377592 107.5494803  77.4650296  42.5118386
 107.6407790  59.0413477  42.6457845 107.9466667  58.1810840  42.3583760
 108.3660395  59.6331097  42.4456839 101.9128870  69.3367270  43.1534036
 101.9677479  68.3841106  43.0776513 101.1020072  69.4926709  43.6375335
 103.0620063  73.2647393  34.3912319 102.6239493  72.5483252  33.9317957
 103.8030504  73.4923508  33.8297411  99.8521230  67.9544330  40.9124415
  99.0389095  68.2538500  41.3189607 100.3480224  67.5600018  41.6298897
 102.0029807  77.9502087  42.8458680 101.9605986  78.1762933  41.9167212
 102.9192506  77.7165461  42.9944481 105.4495441  68.4186154  49.7439309
 105.8044829  68.6457627  50.6033775 106.0967572  68.7504531  49.1216564
 111.1793178  71.5404590  40.4488638 111.0411077  71.7306186  39.5209827
 110.8229397  72.3023973  40.9056689  99.3435304  65.5262685  46.5285650
  99.9834684  65.3851444  45.8308613  98.5112835  65.2397199  46.1524252
 111.2062558  73.6081117  45.4599909 111.6399064  73.5156406  46.3082963
 111.9194139  73.5838617  44.8219925 100.1195608  74.8265116  42.6420642
 100.9136207  74.3315436  42.4403217  99.4087301  74.2982979  42.2788348
 104.9390453  77.2083211  46.9933010 104.9927475  77.7774147  47.7610726
 104.0705234  77.3785096  46.6287047  96.3463921  65.4963010  41.3058637
  96.6070738  66.4108343  41.1967797  97.1681093  65.0287453  41.4555250
  97.8188846  66.9100767  48.4757461  98.4911900  66.7018129  47.8270110
  96.9918633  66.7122853  48.0362694 112.0678107  73.6504818  47.9932795
 112.2613997  74.5550628  48.2392070 111.9678726  73.1912237  48.8271380
 103.7214418  63.5362708  50.4923122 103.0742333  64.2352658  50.3987599
 104.4915434  63.9698852  50.8599370 107.1293216  73.8011560  53.5673675
 106.9778722  73.5722112  52.6503759 107.1197896  74.7582162  53.5805020
 103.8978552  71.3743473  48.5519942 104.8270612  71.5254633  48.3788909
 103.4769582  71.4627494  47.6968588 102.6966884  75.3994138  46.3218480
 102.5577970  75.0312922  47.1944418 101.9081480  75.9141777  46.1502437
 103.2915036  80.5003234  37.6644016 103.4666792  80.0291277  38.4789639
 102.6047824  81.1269000  37.8925277 104.2472099  74.7775740  43.7107317
 103.9121932  74.7376510  44.6064967 103.7476045  74.1120456  43.2377728
  98.2216343  70.1843370  49.2359898  98.0836141  69.4523609  49.8371438
  99.1321267  70.0952270  48.9544086 107.1831291  72.1231775  33.9844377
 106.5660462  71.3978603  33.8877430 106.7147780  72.8841135  33.6411451
 100.8498644  69.8963330  48.7243578 101.5598263  69.2556522  48.6830197
 100.8067952  70.1476224  49.6469759 108.8385423  76.8330683  51.6450157
 108.7797969  76.1489903  50.9780740 109.2404941  77.5749673  51.1930783
  99.5627578  66.8828547  50.5439218  99.0264935  66.4319286  51.1960814
  98.9744286  67.0174456  49.8009682  97.8576121  83.6492597  44.4383876
  98.0972720  84.2811121  45.1162895  97.0145318  83.2980637  44.7249235
  98.9729837  66.3417199  33.1065681  98.0959303  66.2206000  32.7427928
  99.4487590  65.5503277  32.8544570 108.8402830  74.7970267  49.8764137
 107.9529609  74.4596189  49.9990536 109.4101381  74.0653298  50.1132902
 102.3703983  79.4571719  46.8425380 102.2974155  80.2626691  47.3544685
 101.9281376  79.6563685  46.0173402 102.1593763  78.6943489  40.3528202
 101.3761285  79.2365169  40.4466426 102.8586508  79.2117469  40.7522443
 105.4690413  64.5038119  42.9962407 105.9659113  63.7508081  42.6763477
 104.6977395  64.5402435  42.4305616 113.3220171  70.2078484  44.6380699
 113.3110047  71.0903200  44.2674632 112.4537550  69.8550035  44.4435236
 104.8302667  79.3558553  48.9983539 105.5430639  79.9906018  48.9259440
 104.3392696  79.4522419  48.1823541 106.5520194  73.2609806  40.5700831
 105.6176473  73.3811268  40.4005535 106.7296862  72.3582273  40.3060840
 102.0525382  66.6455502  42.7234092 101.6823169  66.0926542  43.4114997
 102.5484474  66.0413635  42.1709092 109.9392745  69.1027125  41.1050865
 110.4053197  69.9355117  41.0311167 110.3900246  68.6372107  41.8096123
  99.8814580  77.1052997  49.8189110 100.5824040  77.7389480  49.9718504
  99.4109695  77.4467728  49.0584749 108.0068976  75.4470947  38.1037017
 108.2828820  75.3327541  39.0130891 107.1373475  75.0488431  38.0649190
 107.9109408  61.4707712  45.1441766 106.9972488  61.7011939  45.3123973
 108.3402509  61.5546156  45.9955798 107.6815866  69.6597604  47.6441660
 107.0287317  69.9073512  46.9894113 108.0596246  68.8461742  47.3104137
 104.6423040  79.6957297  41.7469830 104.8245435  78.8778953  42.2097583
 105.4656026  79.9124990  41.3094720 104.9765206  78.6225482  39.0084879
 105.5052972  78.1117937  38.3955041 105.2393425  78.3068013  39.8730412
 103.7303439  70.4017415  54.1307697 103.0544076  70.3011545  54.8010072
 104.5531073  70.2456629  54.5943694  95.4782298  76.6389352  46.7520212
  96.0635735  75.8933040  46.8848117  95.2807137  76.9493308  47.6356876
  98.3320954  79.6740599  41.7682655  97.6631329  80.1586727  41.2846695
  98.1933823  79.9209820  42.6826033 102.4726222  81.7084343  48.3665313
 103.0244530  81.8715964  49.1314398 102.8132416  82.2988780  47.6945338
  97.4490716  64.0559492  48.9687198  97.5132042  64.9174323  48.5564596
  97.3857836  63.4433494  48.2359556  96.9242988  66.1282625  52.6160232
  97.5515027  65.7459702  53.2297756  96.0670907  65.9096827  52.9815925
 107.3237097  76.5345600  54.2213968 107.8677001  77.1475558  53.7268922
 106.7423941  77.0925179  54.7380981 105.6094610  79.6566318  45.3528995
 105.4845749  78.8556058  44.8439941 106.2673701  80.1512512  44.8642965
  97.2302778  66.0115051  44.5306136  96.5089364  66.6251018  44.3913609
  98.0196034  66.5472816  44.4522781 107.6729518  77.4575338  46.9808545
 106.7259853  77.3380689  46.9086872 108.0212291  76.5697836  47.0634807
 100.0329091  63.3469477  50.8046787 100.5563493  63.5931774  51.5673097
  99.8141425  64.1789512  50.3849925 104.6775951  77.2528055  43.1812898
 104.5300914  76.3244762  43.3620468 105.5029445  77.2748145  42.6969973
  98.5438196  65.9046122  39.0393390  98.8834268  66.4332043  38.3171998
  98.9910316  66.2426528  39.8151956 108.2810073  78.0756613  44.2677770
 109.2056621  77.8699475  44.1302221 108.1125376  77.8273014  45.1767112
 101.2381636  64.2883172  48.4896458 100.8978457  63.4890985  48.8917138
 100.5320643  64.5884883  47.9173291 101.8898108  61.3732485  46.9423781
 102.7124178  60.8992963  46.8202671 102.1336172  62.1522968  47.4422467
 100.5306343  64.4020743  37.2386683 101.2514705  64.7801996  36.7350399
  99.9071647  65.1209620  37.3421660 104.6737466  65.1065892  38.1745015
 104.8901080  65.9890530  37.8733843 104.1931533  64.7152106  37.4450657
  99.4136687  68.0651605  44.7515759  99.2681268  68.3791908  45.6440041
  98.9361891  68.6836506  44.1986658 101.2733070  65.0554153  44.7996649
 101.2594639  64.1595247  44.4628947 101.9905498  65.0624817  45.4334935
 103.1259201  65.4891494  46.8449776 102.8676978  66.4108564  46.8434107
 102.5944241  65.0921928  47.5350241 108.0705389  78.5942281  39.6239862
 108.2442267  78.0288703  38.8713714 108.5634281  79.3943176  39.4419352
  93.8882349  70.6056950  47.6903421  93.3435817  71.3816758  47.8223695
  94.7661699  70.9527754  47.5322542 100.6769966  63.9368534  40.0684219
 100.7985877  63.0085180  40.2675107 100.3872008  63.9507220  39.1562535
 103.5461156  61.6223444  43.2050939 103.5682853  61.6862777  42.2502919
 103.9629215  60.7827953  43.3991445 113.9244780  71.3578704  41.2430162
 114.3675927  70.6086029  40.8449285 113.0471291  71.3488840  40.8603894
 109.0580562  77.9109045  36.7236760 109.7531466  78.5315738  36.9424075
 109.4003712  77.0604396  36.9989138  94.6748371  69.7326846  50.5833577
  93.9330107  69.8809481  51.1698208  94.3541115  69.9935112  49.7200327
 110.9571985  75.3608751  38.2524091 111.4823309  75.6996023  37.5273411
 110.8694337  74.4255766  38.0687225 102.6192034  79.2742824  50.3813967
 102.9279160  79.0291971  51.2536667 103.4167516  79.4789463  49.8932838
 102.6412646  81.4280734  42.6119344 102.2017636  80.9357113  43.3052201
 103.3920763  80.8853702  42.3711419 100.0886518  76.9718743  44.6841646
  99.4666527  76.3089448  44.3843874 100.7591385  76.9979875  44.0015293
 100.1611045  65.4500531  54.2774152 100.2099201  66.3262654  53.8951921
 100.7033560  64.9077924  53.7045795 110.6465891  75.9941654  53.5575289
 109.8561435  75.9765793  53.0179788 110.4099246  76.5329948  54.3124325
 110.7663766  72.8434121  50.8708017 110.8161771  72.6784128  51.8123540
 110.6577689  71.9761380  50.4805898  99.6500025  75.5222666  38.1600106
  99.7988145  76.2058131  37.5066779 100.4566468  75.5027756  38.6749562
 108.0567528  68.8265049  52.1867324 108.9577391  68.6871514  51.8951322
 108.1315503  68.9919503  53.1265501 102.3910334  66.2031903  51.0320510
 101.5213643  66.4965469  50.7603099 102.6269814  66.7872348  51.7527774
 112.2681963  75.2631062  51.1150039 111.9766771  75.6261043  51.9513500
 111.6554094  74.5498070  50.9363371 113.4677645  72.8283942  43.6352609
 114.3024537  73.2673746  43.7990169 113.6036774  72.3522595  42.8160855
 110.5169151  70.3863677  49.5830097 110.9923273  70.5791323  48.7748948
 109.5934716  70.4422863  49.3373481  97.4052658  71.5487844  39.1661175
  97.1598700  70.6450174  39.3641385  97.5748572  71.5504994  38.2240653
 105.0949368  62.4211520  48.5485931 105.6131311  63.1572547  48.2232419
 104.7404500  62.7275514  49.3832690  96.6748305  67.2816202  36.6647337
  95.9817550  67.3560557  36.0087373  96.4300057  66.5176545  37.1868854
 105.3461962  58.8411803  44.0686827 105.6263716  58.1734992  44.6947254
 106.1312569  59.0340898  43.5561491 103.1495430  78.0170797  35.6311854
 102.5769397  78.6360984  35.1782326 103.7228224  78.5670158  36.1651776
 109.2170820  67.2629437  47.8158402 110.1688243  67.3627535  47.8370627
 109.0474271  66.4707705  48.3256487 107.2385200  64.3485020  48.0017803
 106.6435132  64.6290033  47.3064292 106.9534896  64.8378921  48.7734545
 106.3692690  78.3007947  36.7620436 107.3023363  78.2353509  36.9653311
 106.2815903  79.1364214  36.3034969 108.9980707  77.6173817  33.7224384
 108.9194338  77.2833681  34.6160141 109.8190373  78.1095585  33.7215856
 111.6958898  70.4835557  46.9300702 111.6635218  69.5451557  47.1160386
 112.3059522  70.5619593  46.1966527 103.5342229  69.3531610  32.9727906
 104.4801333  69.2237818  33.0416324 103.1556474  68.6146271  33.4497334
 111.8453386  67.2746600  46.9758985 111.3292435  66.4905057  46.7888914
 112.7293335  66.9465317  47.1405505 109.5064113  61.0187616  42.9354798
 109.3088934  60.7102704  43.8198130 110.1163819  61.7449254  43.0652728
 117.5135448  71.5451563  46.0706739 118.2438836  71.2836852  46.6314442
 116.9042393  70.8080285  46.1108807 115.5950745  69.6859426  46.6681190
 114.8683908  69.5515391  46.0597682 115.1798032  69.9936255  47.4737908
 103.4180921  73.4049356  54.4328563 104.3383931  73.5827955  54.6268610
 103.3830504  72.4605401  54.2808262 101.7185146  67.2781586  32.9082791
 100.8116601  66.9814699  32.9845505 101.9961127  66.9811404  32.0417078
  96.4142994  71.3150390  47.0751344  96.6329004  72.2467498  47.0939378
  96.8268768  70.9558365  47.8606148 103.3347212  61.8218476  39.0627033
 102.5247940  61.4765561  39.4382279 104.0231629  61.5126019  39.6514644
 105.2637760  60.8996522  40.6851329 105.8168799  61.3191976  41.3441352
 105.5007846  59.9732271  40.7274285 101.2870859  66.8883596  56.4654093
 101.1867586  67.8377953  56.3966184 101.0692401  66.5601835  55.5930163
 100.4883931  64.1368521  33.0494771 101.3503095  64.4623419  33.3090588
 100.6734275  63.3500017  32.5367836 108.6416567  63.0097048  40.1929994
 108.0615236  63.6681852  39.8108046 108.3752500  62.1874392  39.7817411
 107.0920133  62.4102105  42.3951314 107.5919912  62.5218640  41.5865633
 107.7355741  62.1063158  43.0352122 101.1502129  70.3180735  55.2819155
 100.6669211  71.1181095  55.4883044 101.2363068  70.3288680  54.3286599
  94.4188089  72.1509115  43.2040974  94.3958777  72.2496802  42.2522857
  94.7288725  72.9974265  43.5258140  97.0775467  74.2085270  47.3187589
  98.0318720  74.1769212  47.2517520  96.8787990  73.7475893  48.1337815
  97.6674849  72.7786386  49.8858386  98.4867738  73.2730464  49.9093224
  97.9411657  71.8618354  49.8575954 107.4241445  65.1697138  39.2486342
 106.5367300  65.4546789  39.0306537 107.8395434  65.0090901  38.4013619
 110.7755981  65.1943659  42.9640681 111.5516371  65.6840111  43.2365298
 110.0504115  65.6201713  43.4212551 113.2128540  65.9071278  44.0214622
 113.8073031  65.6667014  43.3107930 113.2855123  65.1878409  44.6488158
  95.4325695  79.7504889  44.3357787  95.2980163  78.9905290  43.7695785
  95.0157758  80.4745789  43.8686575 106.5684658  74.9341813  33.3434362
 107.2720509  75.1391815  33.9592017 105.8447307  75.5018575  33.6083445
 107.3982469  70.6851674  39.4636632 107.3417670  71.1420225  38.6244264
 107.9510811  69.9242359  39.2859475 111.2087275  66.4741406  40.2886752
 110.9524209  66.0738041  41.1194959 110.5840143  67.1885200  40.1636891
 115.5199613  69.2137479  42.7958043 114.9599171  69.2830668  43.5689605
 114.9143116  69.0378464  42.0757539  98.5894821  80.6474206  44.5476229
  98.4727205  81.5919639  44.4454919  97.7687268  80.3447768  44.9362028
 108.4771356  75.3724342  35.3932822 109.3116960  74.9405540  35.2110297
 108.3155699  75.2006356  36.3209716 108.1317248  71.8756455  36.7589161
 108.0766052  71.7100727  35.8177605 107.5063303  72.5832488  36.9151351
  92.9209763  67.1124520  50.5850583  93.5668627  66.6023474  51.0737809
  92.7126914  67.8493201  51.1594009 105.4463155  74.1805367  56.0842724
 106.3154315  74.3546019  55.7229359 104.9669907  74.9999784  55.9618453
 101.4413374  61.3764564  36.3374480 101.4292043  62.3206404  36.4942750
 102.3336795  61.1934710  36.0433941  99.6149335  81.3002468  47.7632158
 100.5176582  81.3326078  48.0798653  99.3886706  80.3702919  47.7778493
 101.3702937  80.0533455  44.4242236 100.4198569  80.0535316  44.3106609
 101.6735424  79.3066189  43.9078271 105.2565493  57.9707341  40.5920416
 104.4897889  57.4165827  40.7377099 105.6676198  58.0429210  41.4534568
  97.2607254  64.2592137  54.6825598  98.1238716  63.9028941  54.8928922
  96.6872665  63.9206031  55.3701002 117.1055631  85.8893993  45.4887999
 117.7434041  85.7700740  44.7851339 116.9876474  86.8374837  45.5475951
 113.9145337  85.8421421  45.4249523 113.5763849  85.7262486  44.5370058
 114.7835105  85.4412586  45.4050529 109.7732153  87.6956897  41.4146414
 109.2097018  87.6046834  40.6462702 109.6584548  86.8756802  41.8948907
 114.3965120  86.9956273  51.3835729 114.3853761  86.6009071  50.5116233
 114.5585760  86.2622345  51.9769500 107.3196585  89.1908089  44.2530635
 108.1117877  88.8498914  43.8376934 107.5593235  89.3003064  45.1732788
 115.3531712  91.3627865  36.7260879 114.7019691  91.9481946  36.3394893
 116.1476074  91.8934060  36.7855917 109.2787339  88.4517002  37.1248014
 110.0518215  87.9045989  36.9860889 109.6312738  89.3161252  37.3362475
 111.1172381  89.7793385  50.3314913 110.8262247  90.6839015  50.2161579
 111.7529366  89.8209912  51.0458982 112.0428588  87.1570233  46.9216272
 112.6392160  86.9326256  46.2073235 112.1003560  86.4154979  47.5241720
 111.6153617  84.6109668  34.7566463 111.8679137  84.0891190  33.9949926
 110.6778176  84.4475814  34.8593147 116.6596899  83.6145447  42.5641207
 117.4459989  83.1964870  42.2131624 116.9235604  84.5191539  42.7322855
 116.8306977  89.0518297  37.2629863 116.1952810  89.1252924  37.9750768
 116.5004383  89.6411896  36.5848943 122.0605327  83.5520680  43.4674185
 122.7930499  82.9819897  43.7012015 121.3044682  83.1642280  43.9080691
 111.3349905  86.5137774  36.9590838 111.2186163  85.8382678  37.6271923
 111.4452165  86.0270148  36.1422991 113.6781446  85.9747922  40.6637528
 113.3139654  85.4478542  41.3750449 114.5348562  85.5846391  40.4904013
 119.5830747  77.2642254  47.9268794 119.2514072  78.1337665  47.7030009
 118.9876360  76.9478538  48.6062824 113.3186933  81.0037821  35.6598876
 113.4861336  81.8718058  36.0269347 113.1284102  81.1665103  34.7360165
 116.0762266  89.4654800  47.3264707 115.7762990  90.3679839  47.2180514
 115.7313326  89.1986983  48.1785859 109.5274748  85.9168597  43.3601411
 108.6025244  85.7844811  43.5679103 109.7759161  86.6962816  43.8571353
 119.4759410  81.9837340  45.0062144 118.5676288  81.9152749  44.7120905
 119.4247006  82.4609285  45.8343969 113.2976154  83.4595479  36.6445543
 113.1775779  83.9052529  37.4831023 112.6028743  83.8080796  36.0859081
 106.8883559  85.5601870  44.1945200 107.0175940  85.8136349  45.1084612
 106.2081010  86.1529578  43.8749855 111.0583046  96.2299120  40.2935674
 110.9807076  97.1806946  40.3724155 110.4544690  95.8844993  40.9510601
 113.5500276  83.4026986  52.9497041 112.7733610  83.9620906  52.9399906
 114.1890839  83.8883769  53.4711911 121.3421057  80.1853779  46.7840018
 120.6995437  80.4786312  46.1379812 120.8375985  80.0706699  47.5893214
 118.9961220  83.9316952  37.4725877 119.9079076  84.1644339  37.2973575
 118.4870867  84.5153996  36.9100956 111.8046648  86.2112439  52.5115008
 112.5461333  86.7497483  52.2349832 111.0983634  86.8378728  52.6686560
 117.2801988  88.3541580  51.1087170 117.6885344  87.9123990  50.3641802
 116.5579249  87.7794207  51.3621363 113.6333058  83.2914186  48.4820727
 114.4794253  83.7153600  48.6255376 113.5731696  82.6347811  49.1759290
 117.6030803  88.9142770  44.8639458 116.9739665  89.0788484  44.1615526
 117.2156465  89.3284380  45.6350423 121.4820035  89.8497208  42.2183822
 120.7971073  90.2296110  41.6680856 121.5663884  90.4592535  42.9515770
 116.7832503  80.9518555  50.1401900 116.5393435  81.7060615  49.6036176
 117.0592434  81.3303902  50.9749147 118.7370966  87.4957167  48.8179166
 118.9487861  88.1388927  48.1413547 118.6900714  86.6619484  48.3501096
 116.3397195  80.1074988  45.7215738 115.4781674  80.4056241  46.0132475
 116.3659630  80.3245387  44.7896771 113.1558765  88.6517178  42.1289544
 113.6197110  88.9304881  41.3394166 112.8915563  87.7500623  41.9462634
 110.0482846  88.1988660  45.0669307 110.6184203  88.6275928  44.4286791
 110.6390957  87.9171245  45.7653493 112.0927651  84.7740331  38.9379109
 112.7951694  85.2261374  39.4053035 111.7608279  84.1324150  39.5659002
 110.5408012  83.3652087  53.3130318 109.9106673  84.0468368  53.5465715
 110.4344100  83.2535169  52.3683456 105.8352985  83.0323883  44.2396242
 105.0452039  83.2881412  43.7636353 106.3264232  83.8472221  44.3448283
 119.8516794  90.3729123  46.9901523 120.6734238  89.9709310  46.7084205
 119.8479197  90.2697357  47.9417639 107.7867730  83.3968463  41.1979719
 106.9898893  83.5087157  41.7163215 107.5593322  83.7355115  40.3320610
 113.6173398  89.9213166  49.1462234 113.6817830  90.3833573  49.9820405
 112.9084321  89.2910531  49.2744543 104.1190688  83.2854374  46.6711233
 104.3698726  84.1701384  46.9368809 104.6550236  83.1058975  45.8986325
 127.9422787  86.7167871  43.3386495 127.1886496  86.1475269  43.1830499
 128.0770328  86.6830536  44.2857129 113.3321415  91.5881273  39.0141214
 113.1967090  92.4332809  39.4426062 113.8731228  91.7900551  38.2507148
 109.8188755  77.6672853  55.6755569 109.4255700  77.1139052  56.3503213
 110.6354895  77.9783432  56.0662087 106.7850813  89.1056711  39.5869139
 107.2975333  89.8999962  39.7374704 107.4373525  88.4083002  39.5202741
 108.5945697  92.2222468  41.6691892 108.7712326  93.1440432  41.4812876
 109.3902531  91.9080887  42.0986272 112.7356716  79.0830732  53.2675826
 113.4766429  79.6837885  53.1880288 112.9674639  78.3408370  52.7093868
 107.8798054  84.2687100  51.5454055 107.7651569  83.3672357  51.8461154
 107.0242572  84.5150796  51.1938872 114.9589892  92.2104840  53.1441556
 114.5153746  91.4241218  52.8262461 115.6207105  92.3983990  52.4785447
 109.7177013  93.7400642  47.6702235 110.2684438  93.6117705  46.8979228
 108.8788489  94.0395531  47.3197127 117.0571130  92.4907640  51.1722957
 117.0389605  93.3116521  50.6803226 117.9791050  92.3661715  51.3973098
 113.5144184  90.0051769  52.0146466 114.0472521  89.2440058  51.7845774
 112.9858265  89.7125421  52.7570620 116.6813879  75.1111835  47.5440107
 116.3378148  76.0013477  47.4679218 117.0492841  74.9213493  46.6809692
 104.7499729  87.4345366  40.3628710 105.5874951  87.8442374  40.1462417
 104.9277997  86.4944808  40.3328903 116.6464161  85.1020446  36.0512543
 116.1310785  85.8725051  36.2900930 116.3741470  84.4285583  36.6745604
 114.2311273  79.9470147  41.1097781 113.3752869  79.5576998  40.9303420
 114.6438224  80.0262108  40.2497566 115.7610419  77.4816490  45.5089341
 115.2575215  77.4446626  44.6957146 116.0541026  78.3909233  45.5685997
 112.0053305  77.5655220  44.5155522 112.8706302  77.3698029  44.1561412
 112.0730814  77.3365572  45.4424879 121.6198436  87.8552801  37.9865716
 120.8427878  87.5163961  37.5420878 122.2989917  87.8605424  37.3120681
 116.4350465  82.9747538  37.8772324 116.1300600  83.2893688  38.7282467
 117.3880907  83.0528958  37.9199657 114.8796896  89.1337762  39.5265278
 114.3518258  88.3990521  39.2138515 114.3784399  89.9112438  39.2805246
 119.8589743  87.3286782  44.6432324 119.2013417  88.0186044  44.7312453
 120.6630142  87.7183214  44.9866310 109.6115624  79.7957428  41.8871889
 110.1859376  79.5732610  41.1545082 110.1986607  79.8646123  42.6400491
 118.6695201  85.6831155  42.6936266 119.1827083  86.3161147  43.1957975
 119.3196425  85.0832350  42.3279626 109.9385211  81.8261889  35.9067774
 109.1022523  82.1636576  36.2277049 109.7989981  81.6910869  34.9694911
 111.9138292  76.6698677  40.6146959 111.2602704  76.3547694  39.9903573
 111.8718766  76.0474417  41.3406782 113.0249497  86.9517972  32.5300251
 112.1176558  86.7207226  32.7291400 113.5220529  86.1555591  32.7174232
 115.9317576  95.6615479  35.4496937 115.2579274  95.9647176  36.0581895
 116.3183398  96.4644560  35.1002394 115.1476032  83.1580611  44.9394606
 114.2298594  83.3795558  44.7816294 115.5636176  83.2326921  44.0806314
 115.9311080  84.5572026  40.0697287 116.6782899  85.0693423  39.7604409
 116.2002669  84.2356079  40.9301680 114.2037730  87.0530567  37.0524241
 113.2948949  86.7689600  37.1496711 114.2332814  87.4729646  36.1927548
 119.4356998  90.6637156  40.8215408 118.9819325  89.8228066  40.8780599
 118.8050964  91.2998555  41.1590189 118.3789917  81.5929142  42.0516076
 117.6412674  81.0806529  42.3826318 118.6316691  81.1529524  41.2399353
 117.8789937  92.5013653  41.7565227 118.1712911  93.0618710  41.0377592
 118.3888557  92.7942214  42.5118386 118.4801544  74.3705394  42.6457845
 118.7860421  73.5102758  42.3583760 119.2054149  74.9623015  42.4456839
 104.7725900  84.7736081  41.0339443 104.5750300  84.1805442  40.3090510
 104.2172564  84.4688291  41.7515382 112.7522624  84.6659188  43.1534036
 112.8071234  83.7133024  43.0776513 111.9413826  84.8218627  43.6375335
 113.9013818  88.5939311  34.3912319 113.4633248  87.8775170  33.9317957
 114.6424259  88.8215425  33.8297411 110.6914984  83.2836247  40.9124415
 109.8782850  83.5830418  41.3189607 111.1873978  82.8891936  41.6298897
 112.8423562  93.2794004  42.8458680 112.7999741  93.5054851  41.9167212
 113.7586261  93.0457379  42.9944481 116.2889196  83.7478072  49.7439309
 116.6438583  83.9749545  50.6033775 116.9361327  84.0796449  49.1216564
 122.0186933  86.8696508  40.4488638 121.8804831  87.0598104  39.5209827
 121.6623152  87.6315890  40.9056689 110.1829059  80.8554603  46.5285650
 110.8228438  80.7143362  45.8308613 109.3506589  80.5689116  46.1524252
 122.0456312  88.9373035  45.4599909 122.4792819  88.8448324  46.3082963
 122.7587893  88.9130535  44.8219925 110.9589363  90.1557033  42.6420642
 111.7529961  89.6607353  42.4403217 110.2481055  89.6274896  42.2788348
 115.7784207  92.5375129  46.9933010 115.8321229  93.1066065  47.7610726
 114.9098989  92.7077014  46.6287047 107.2672126  84.3000115  38.7180395
 106.3369714  84.2384570  38.9350357 107.3629598  83.7776068  37.9217036
 107.1857675  80.8254928  41.3058637 107.4464493  81.7400261  41.1967797
 108.0074848  80.3579370  41.4555250 108.6582601  82.2392685  48.4757461
 109.3305654  82.0310047  47.8270110 107.8312387  82.0414771  48.0362694
 122.9071862  88.9796735  47.9932795 123.1007752  89.8842546  48.2392070
 122.8072480  88.5204154  48.8271380 114.5608173  78.8654626  50.4923122
 113.9136088  79.5644576  50.3987599 115.3309188  79.2990770  50.8599370
 117.9686971  89.1303478  53.5673675 117.8172477  88.9014030  52.6503759
 117.9591650  90.0874079  53.5805020 114.7372307  86.7035391  48.5519942
 115.6664367  86.8546550  48.3788909 114.3163337  86.7919412  47.6968588
 113.5360639  90.7286055  46.3218480 113.3971724  90.3604840  47.1944418
 112.7475235  91.2433695  46.1502437 114.1308791  95.8295152  37.6644016
 114.3060546  95.3583195  38.4789639 113.4441579  96.4560918  37.8925277
 115.0865854  90.1067658  43.7107317 114.7515686  90.0668428  44.6064967
 114.5869800  89.4412374  43.2377728 109.0610098  85.5135288  49.2359898
 108.9229896  84.7815527  49.8371438 109.9715021  85.4244188  48.9544086
 118.0225046  87.4523692  33.9844377 117.4054216  86.7270520  33.8877430
 117.5541534  88.2133053  33.6411451 111.6892399  85.2255247  48.7243578
 112.3992017  84.5848439  48.6830197 111.6461707  85.4768142  49.6469759
 119.6779177  92.1622601  51.6450157 119.6191723  91.4781821  50.9780740
 120.0798696  92.9041591  51.1930783 110.4021332  82.2120465  50.5439218
 109.8658690  81.7611204  51.1960814 109.8138041  82.3466374  49.8009682
 108.6969876  98.9784514  44.4383876 108.9366474  99.6103039  45.1162895
 107.8539072  98.6272554  44.7249235 109.8123591  81.6709117  33.1065681
 108.9353058  81.5497917  32.7427928 110.2881345  80.8795195  32.8544570
 119.6796584  90.1262185  49.8764137 118.7923363  89.7888106  49.9990536
 120.2495136  89.3945216  50.1132902 101.3325732  86.4586276  43.2007188
 102.0196771  86.1448006  42.6128204 101.1773860  87.3627641  42.9274440
 106.1360454  81.3476473  47.6292212 106.0518642  80.7402142  46.8942622
 105.3143160  81.8385491  47.6301708 113.2097738  94.7863637  46.8425380
 113.1367909  95.5918608  47.3544685 112.7675131  94.9855603  46.0173402
 112.9987517  94.0235407  40.3528202 112.2155039  94.5657087  40.4466426
 113.6980263  94.5409387  40.7522443 116.3084168  79.8330036  42.9962407
 116.8052867  79.0799999  42.6763477 115.5371149  79.8694353  42.4305616
 124.1613925  85.5370402  44.6380699 124.1503801  86.4195117  44.2674632
 123.2931304  85.1841953  44.4435236 115.6696421  94.6850471  48.9983539
 116.3824394  95.3197936  48.9259440 115.1786450  94.7814337  48.1823541
 117.3913948  88.5901724  40.5700831 116.4570227  88.7103186  40.4005535
 117.5690617  87.6874190  40.3060840 112.8919136  81.9747419  42.7234092
 112.5216924  81.4218460  43.4114997 113.3878229  81.3705553  42.1709092
 120.7786500  84.4319043  41.1050865 121.2446952  85.2647034  41.0311167
 121.2294000  83.9664024  41.8096123 110.7208335  92.4344914  49.8189110
 111.4217794  93.0681397  49.9718504 110.2503450  92.7759646  49.0584749
 118.8462731  90.7762864  38.1037017 119.1222575  90.6619459  39.0130891
 117.9767229  90.3780349  38.0649190 118.7503162  76.7999630  45.1441766
 117.8366242  77.0303857  45.3123973 119.1796264  76.8838074  45.9955798
 118.5209621  84.9889522  47.6441660 117.8681071  85.2365429  46.9894113
 118.8990001  84.1753660  47.3104137 115.4816795  95.0249215  41.7469830
 115.6639189  94.2070871  42.2097583 116.3049781  95.2416907  41.3094720
 115.8158960  93.9517400  39.0084879 116.3446727  93.4409855  38.3955041
 116.0787180  93.6359930  39.8730412 114.5697194  85.7309333  54.1307697
 113.8937831  85.6303462  54.8010072 115.3924828  85.5748547  54.5943694
 106.3176053  91.9681269  46.7520212 106.9029490  91.2224957  46.8848117
 106.1200891  92.2785226  47.6356876 109.1714708  95.0032517  41.7682655
 108.5025083  95.4878644  41.2846695 109.0327578  95.2501737  42.6826033
 100.9093708  84.5386870  45.4724656 100.9477807  84.0050460  46.2661774
 100.4034001  84.0122075  44.8535633 113.3119977  97.0376260  48.3665313
 113.8638285  97.2007882  49.1314398 113.6526170  97.6280698  47.6945338
 108.2884470  79.3851410  48.9687198 108.3525796  80.2466241  48.5564596
 108.2251590  78.7725412  48.2359556 107.7636743  81.4574543  52.6160232
 108.3908781  81.0751620  53.2297756 106.9064661  81.2388745  52.9815925
 118.1630851  91.8637518  54.2213968 118.7070755  92.4767476  53.7268922
 117.5817696  92.4217096  54.7380981 104.5402285  83.2650972  38.5478587
 104.8355726  82.3561650  38.4945641 103.6390321  83.2438711  38.2259589
 116.4488364  94.9858236  45.3528995 116.3239504  94.1847976  44.8439941
 117.1067455  95.4804429  44.8642965 108.0696532  81.3406968  44.5306136
 107.3483118  81.9542936  44.3913609 108.8589788  81.8764733  44.4522781
 118.5123272  92.7867256  46.9808545 117.5653608  92.6672607  46.9086872
 118.8606046  91.8989754  47.0634807 110.8722846  78.6761395  50.8046787
 111.3957248  78.9223691  51.5673097 110.6535179  79.5081430  50.3849925
 106.2690127  80.9465069  38.6717912 105.9402833  80.0662448  38.4893018
 106.6229498  80.8912738  39.5594301 115.5169706  92.5819972  43.1812898
 115.3694668  91.6536680  43.3620468 116.3423199  92.6040063  42.6969973
 109.3831950  81.2338039  39.0393390 109.7228023  81.7623961  38.3171998
 109.8304071  81.5718445  39.8151956 119.1203828  93.4048531  44.2677770
 120.0450375  93.1991392  44.1302221 118.9519131  93.1564932  45.1767112
 112.0775391  79.6175090  48.4896458 111.7372211  78.8182903  48.8917138
 111.3714397  79.9176801  47.9173291 112.7291863  76.7024402  46.9423781
 113.5517932  76.2284881  46.8202671 112.9729926  77.4814886  47.4422467
 111.3700097  79.7312661  37.2386683 112.0908460  80.1093914  36.7350399
 110.7465401  80.4501538  37.3421660 115.5131220  80.4357810  38.1745015
 115.7294834  81.3182448  37.8733843 115.0325287  80.0444023  37.4450657
 110.2530441  83.3943523  44.7515759 110.1075022  83.7083826  45.6440041
 109.7755645  84.0128423  44.1986658 112.1126824  80.3846071  44.7996649
 112.0988393  79.4887164  44.4628947 112.8299252  80.3916735  45.4334935
 113.9652955  80.8183411  46.8449776 113.7070733  81.7400482  46.8434107
 113.4337995  80.4213846  47.5350241 118.9099144  93.9234198  39.6239862
 119.0836021  93.3580621  38.8713714 119.4028035  94.7235093  39.4419352
 104.7276104  85.9348867  47.6903421 104.1829572  86.7108675  47.8223695
 105.6055453  86.2819672  47.5322542 111.5163720  79.2660451  40.0684219
 111.6379631  78.3377097  40.2675107 111.2265763  79.2799137  39.1562535
 114.3854911  76.9515362  43.2050939 114.4076607  77.0154695  42.2502919
 114.8022970  76.1119870  43.3991445 124.7638535  86.6870621  41.2430162
 125.2069681  85.9377947  40.8449285 123.8865045  86.6780758  40.8603894
 119.8974316  93.2400963  36.7236760 120.5925221  93.8607655  36.9424075
 120.2397466  92.3896314  36.9989138 105.5142125  85.0618764  50.5833577
 104.7723861  85.2101399  51.1698208 105.1934870  85.3227029  49.7200327
 121.7965739  90.6900668  38.2524091 122.3217063  91.0287941  37.5273411
 121.7088092  89.7547684  38.0687225 113.4585788  94.6034742  50.3813967
 113.7672915  94.3583889  51.2536667 114.2561270  94.8081380  49.8932838
 113.4806400  96.7572652  42.6119344 113.0411390  96.2649030  43.3052201
 114.2314517  96.2145619  42.3711419 105.9598739  92.9484192  42.6143972
 106.7856759  92.6487964  42.2342616 105.6092791  92.1791815  43.0633761
 110.9280272  92.3010661  44.6841646 110.3060282  91.6381366  44.3843874
 111.5985139  92.3271793  44.0015293 104.1607344  90.8670519  43.5732906
 103.3239252  90.4392693  43.3916907 104.1330990  91.0602962  44.5103697
 111.0004800  80.7792449  54.2774152 111.0492955  81.6554571  53.8951921
 111.5427314  80.2369842  53.7045795 121.4859645  91.3233572  53.5575289
 120.6955189  91.3057711  53.0179788 121.2493000  91.8621866  54.3124325
 121.6057521  88.1726038  50.8708017 121.6555525  88.0076046  51.8123540
 121.4971444  87.3053297  50.4805898 110.4893779  90.8514584  38.1600106
 110.6381900  91.5350048  37.5066779 111.2960223  90.8319674  38.6749562
 118.8961283  84.1556966  52.1867324 119.7971146  84.0163431  51.8951322
 118.9709257  84.3211421  53.1265501 113.2304088  81.5323821  51.0320510
 112.3607398  81.8257387  50.7603099 113.4663569  82.1164266  51.7527774
 123.1075717  90.5922980  51.1150039 122.8160526  90.9552960  51.9513500
 122.4947849  89.8789988  50.9363371 124.3071400  88.1575860  43.6352609
 125.1418291  88.5965664  43.7990169 124.4430528  87.6814513  42.8160855
 121.3562906  85.7155594  49.5830097 121.8317027  85.9083241  48.7748948
 120.4328471  85.7714780  49.3373481 108.2446412  86.8779762  39.1661175
 107.9992454  85.9742092  39.3641385 108.4142327  86.8796912  38.2240653
 115.9343122  77.7503438  48.5485931 116.4525066  78.4864465  48.2232419
 115.5798255  78.0567431  49.3832690 107.5142060  82.6108119  36.6647337
 106.8211305  82.6852474  36.0087373 107.2693812  81.8468463  37.1868854
 116.1855716  74.1703721  44.0686827 116.4657470  73.5026910  44.6947254
 116.9706323  74.3632816  43.5561491 113.9889185  93.3462714  35.6311854
 113.4163152  93.9652902  35.1782326 114.5621978  93.8962076  36.1651776
 120.0564575  82.5921355  47.8158402 121.0081997  82.6919452  47.8370627
 119.8868025  81.7999623  48.3256487 118.0778954  79.6776938  48.0017803
 117.4828886  79.9581950  47.3064292 117.7928651  80.1670839  48.7734545
 117.2086445  93.6299865  36.7620436 118.1417118  93.5645426  36.9653311
 117.1209657  94.4656131  36.3034969 119.8374461  92.9465735  33.7224384
 119.7588093  92.6125599  34.6160141 120.6584128  93.4387503  33.7215856
 122.5352652  85.8127474  46.9300702 122.5028972  84.8743475  47.1160386
 123.1453276  85.8911511  46.1966527 114.3735983  84.6823527  32.9727906
 115.3195088  84.5529735  33.0416324 113.9950228  83.9438189  33.4497334
 122.6847141  82.6038518  46.9758985 122.1686190  81.8196974  46.7888914
 123.5687089  82.2757234  47.1405505 120.3457868  76.3479533  42.9354798
 120.1482689  76.0394621  43.8198130 120.9557573  77.0741172  43.0652728
 128.3529202  86.8743481  46.0706739 129.0832591  86.6128769  46.6314442
 127.7436148  86.1372203  46.1108807 126.4344499  85.0151344  46.6681190
 125.7077663  84.8807309  46.0597682 126.0191786  85.3228172  47.4737908
 114.2574676  88.7341273  54.4328563 115.1777685  88.9119872  54.6268610
 114.2224259  87.7897319  54.2808262 112.5578900  82.6073504  32.9082791
 111.6510356  82.3106616  32.9845505 112.8354881  82.3103322  32.0417078
 103.4756841  83.9279867  43.3581838 103.1559625  83.0745175  43.0656212
 102.9290269  84.1428445  44.1139805 107.2536748  86.6442308  47.0751344
 107.4722758  87.5759416  47.0939378 107.6662522  86.2850282  47.8606148
 114.1740966  77.1510393  39.0627033 113.3641694  76.8057478  39.4382279
 114.8625383  76.8417937  39.6514644 116.1031514  76.2288440  40.6851329
 116.6562553  76.6483894  41.3441352 116.3401601  75.3024188  40.7274285
 112.1264614  82.2175514  56.4654093 112.0261341  83.1669871  56.3966184
 111.9086156  81.8893753  55.5930163 111.3277685  79.4660439  33.0494771
 112.1896849  79.7915337  33.3090588 111.5128029  78.6791935  32.5367836
 103.3445101  87.5482778  45.3274959 102.6508572  87.1336731  44.8144914
 104.0918092  87.5903315  44.7308378 119.4810321  78.3388965  40.1929994
 118.9008991  78.9973769  39.8108046 119.2146254  77.5166310  39.7817411
 117.9313888  77.7394023  42.3951314 118.4313666  77.8510558  41.5865633
 118.5749496  77.4355076  43.0352122 111.9895884  85.6472653  55.2819155
 111.5062965  86.4473013  55.4883044 112.0756823  85.6580597  54.3286599
 105.2581843  87.4801032  43.2040974 105.2352531  87.5788720  42.2522857
 105.5682480  88.3266183  43.5258140 107.9169221  89.5377187  47.3187589
 108.8712475  89.5061130  47.2517520 107.7181745  89.0767811  48.1337815
 108.5068603  88.1078303  49.8858386 109.3261492  88.6022382  49.9093224
 108.7805411  87.1910271  49.8575954 118.2635200  80.4989056  39.2486342
 117.3761055  80.7838706  39.0306537 118.6789189  80.3382819  38.4013619
 121.6149736  80.5235577  42.9640681 122.3910126  81.0132029  43.2365298
 120.8897870  80.9493631  43.4212551 124.0522294  81.2363196  44.0214622
 124.6466785  80.9958932  43.3107930 124.1248878  80.5170326  44.6488158
 106.2719450  95.0796807  44.3357787 106.1373918  94.3197208  43.7695785
 105.8551512  95.8037707  43.8686575 117.4078413  90.2633730  33.3434362
 118.1114263  90.4683733  33.9592017 116.6841062  90.8310492  33.6083445
 118.2376223  86.0143592  39.4636632 118.1811425  86.4712143  38.6244264
 118.7904566  85.2534276  39.2859475 122.0481029  81.8033323  40.2886752
 121.7917963  81.4029959  41.1194959 121.4233897  82.5177117  40.1636891
 126.3593367  84.5429397  42.7958043 125.7992925  84.6122586  43.5689605
 125.7536870  84.3670381  42.0757539 109.4288576  95.9766124  44.5476229
 109.3120960  96.9211556  44.4454919 108.6081022  95.6739685  44.9362028
 119.3165110  90.7016260  35.3932822 120.1510714  90.2697458  35.2110297
 119.1549453  90.5298273  36.3209716 118.9711003  87.2048373  36.7589161
 118.9159806  87.0392644  35.8177605 118.3457058  87.9124406  36.9151351
 103.7603518  82.4416437  50.5850583 104.4062381  81.9315391  51.0737809
 103.5520669  83.1785119  51.1594009 116.2856910  89.5097285  56.0842724
 117.1548069  89.6837937  55.7229359 115.8063661  90.3291702  55.9618453
 112.2807128  76.7056482  36.3374480 112.2685798  77.6498322  36.4942750
 113.1730550  76.5226627  36.0433941 110.4543090  96.6294386  47.7632158
 111.3570337  96.6617996  48.0798653 110.2280460  95.6994837  47.7778493
 112.2096692  95.3825372  44.4242236 111.2592323  95.3827234  44.3106609
 112.5129178  94.6358107  43.9078271 116.0959247  73.2999258  40.5920416
 115.3291643  72.7457745  40.7377099 116.5069952  73.3721127  41.4534568
 108.1001009  79.5884054  54.6825598 108.9632470  79.2320859  54.8928922
 107.5266419  79.2497949  55.3701002 127.9449385 101.2185911  45.4887999
 128.5827795 101.0992658  44.7851339 127.8270228 102.1666755  45.5475951
 124.7539092 101.1713339  45.4249523 124.4157603 101.0554403  44.5370058
 125.6228860 100.7704504  45.4050529 120.6125907 103.0248815  41.4146414
 120.0490773 102.9338752  40.6462702 120.4978302 102.2048720  41.8948907
 125.2358875 102.3248190  51.3835729 125.2247516 101.9300989  50.5116233
 125.3979514 101.5914263  51.9769500 118.1590339 104.5200007  44.2530635
 118.9511631 104.1790831  43.8376934 118.3986990 104.6294982  45.1732788
 126.1925466 106.6919783  36.7260879 125.5413446 107.2773863  36.3394893
 126.9869829 107.2225978  36.7855917 120.1181093 103.7808920  37.1248014
 120.8911969 103.2337907  36.9860889 120.4706492 104.6453169  37.3362475
 121.9566136 105.1085302  50.3314913 121.6656002 106.0130933  50.2161579
 122.5923120 105.1501830  51.0458982 122.8822343 102.4862151  46.9216272
 123.4785915 102.2618173  46.2073235 122.9397314 101.7446896  47.5241720
 122.4547371  99.9401586  34.7566463 122.7072892  99.4183107  33.9949926
 121.5171930  99.7767732  34.8593147 127.4990654  98.9437364  42.5641207
 128.2853743  98.5256788  42.2131624 127.7629358  99.8483457  42.7322855
 127.6700731 104.3810215  37.2629863 127.0346564 104.4544841  37.9750768
 127.3398138 104.9703814  36.5848943 132.8999081  98.8812598  43.4674185
 133.6324253  98.3111814  43.7012015 132.1438437  98.4934198  43.9080691
 122.1743660 101.8429692  36.9590838 122.0579918 101.1674595  37.6271923
 122.2845920 101.3562066  36.1422991 124.5175201 101.3039839  40.6637528
 124.1533408 100.7770460  41.3750449 125.3742317 100.9138308  40.4904013
 130.4224501  92.5934172  47.9268794 130.0907826  93.4629583  47.7030009
 129.8270115  92.2770456  48.6062824 124.1580688  96.3329739  35.6598876
 124.3255090  97.2009975  36.0269347 123.9677857  96.4957021  34.7360165
 126.9156021 104.7946718  47.3264707 126.6156744 105.6971757  47.2180514
 126.5707080 104.5278901  48.1785859 120.3668502 101.2460515  43.3601411
 119.4418999 101.1136729  43.5679103 120.6152916 102.0254734  43.8571353
 130.3153165  97.3129258  45.0062144 129.4070042  97.2444666  44.7120905
 130.2640761  97.7901203  45.8343969 124.1369909  98.7887396  36.6445543
 124.0169534  99.2344447  37.4831023 123.4422497  99.1372714  36.0859081
 117.7277313 100.8893788  44.1945200 117.8569695 101.1428267  45.1084612
 117.0474765 101.4821496  43.8749855 121.8976801 111.5591038  40.2935674
 121.8200830 112.5098863  40.3724155 121.2938444 111.2136911  40.9510601
 124.3894031  98.7318904  52.9497041 123.6127365  99.2912824  52.9399906
 125.0284594  99.2175687  53.4711911 132.1814811  95.5145696  46.7840018
 131.5389191  95.8078230  46.1379812 131.6769740  95.3998617  47.5893214
 129.8354975  99.2608870  37.4725877 130.7472831  99.4936256  37.2973575
 129.3264622  99.8445914  36.9100956 122.6440403 101.5404357  52.5115008
 123.3855087 102.0789401  52.2349832 121.9377388 102.1670646  52.6686560
 128.1195742 103.6833497  51.1087170 128.5279099 103.2415908  50.3641802
 127.3973004 103.1086125  51.3621363 124.4726813  98.6206104  48.4820727
 125.3188008  99.0445518  48.6255376 124.4125450  97.9639728  49.1759290
 128.4424557 104.2434688  44.8639458 127.8133420 104.4080402  44.1615526
 128.0550219 104.6576298  45.6350423 132.3213789 105.1789126  42.2183822
 131.6364827 105.5588027  41.6680856 132.4057638 105.7884453  42.9515770
 127.6226258  96.2810473  50.1401900 127.3787190  97.0352533  49.6036176
 127.8986188  96.6595820  50.9749147 129.5764721 102.8249085  48.8179166
 129.7881616 103.4680845  48.1413547 129.5294469 101.9911401  48.3501096
 127.1790950  95.4366906  45.7215738 126.3175429  95.7348159  46.0132475
 127.2053384  95.6537304  44.7896771 123.9952519 103.9809096  42.1289544
 124.4590865 104.2596799  41.3394166 123.7309317 103.0792541  41.9462634
 120.8876600 103.5280578  45.0669307 121.4577957 103.9567846  44.4286791
 121.4784712 103.2463162  45.7653493 122.9321405 100.1032248  38.9379109
 123.6345448 100.5553292  39.4053035 122.6002034  99.4616067  39.5659002
 121.3801767  98.6944005  53.3130318 120.7500427  99.3760286  53.5465715
 121.2737854  98.5827087  52.3683456 116.6746739  98.3615801  44.2396242
 115.8845793  98.6173330  43.7636353 117.1657986  99.1764139  44.3448283
 130.6910549 105.7021040  46.9901523 131.5127992 105.3001228  46.7084205
 130.6872951 105.5989274  47.9417639 118.6261484  98.7260380  41.1979719
 117.8292648  98.8379075  41.7163215 118.3987077  99.0647033  40.3320610
 124.4567152 105.2505084  49.1462234 124.5211585 105.7125491  49.9820405
 123.7478076 104.6202449  49.2744543 114.9584442  98.6146292  46.6711233
 115.2092480  99.4993301  46.9368809 115.4943990  98.4350893  45.8986325
 138.7816542 102.0459789  43.3386495 138.0280250 101.4767187  43.1830499
 138.9164083 102.0122453  44.2857129 124.1715170 106.9173191  39.0141214
 124.0360844 107.7624727  39.4426062 124.7124982 107.1192469  38.2507148
 120.6582509  92.9964771  55.6755569 120.2649455  92.4430969  56.3503213
 121.4748650  93.3075349  56.0662087 117.6244567 104.4348629  39.5869139
 118.1369088 105.2291879  39.7374704 118.2767280 103.7374920  39.5202741
 119.4339452 107.5514385  41.6691892 119.6106080 108.4732350  41.4812876
 120.2296285 107.2372805  42.0986272 123.5750470  94.4122650  53.2675826
 124.3160184  95.0129803  53.1880288 123.8068393  93.6700288  52.7093868
 118.7191808  99.5979017  51.5454055 118.6045323  98.6964275  51.8461154
 117.8636326  99.8442714  51.1938872 125.7983646 107.5396758  53.1441556
 125.3547500 106.7533136  52.8262461 126.4600860 107.7275908  52.4785447
 120.5570767 109.0692559  47.6702235 121.1078192 108.9409623  46.8979228
 119.7182243 109.3687448  47.3197127 127.8964884 107.8199558  51.1722957
 127.8783359 108.6408439  50.6803226 128.8184804 107.6953633  51.3973098
 124.3537938 105.3343687  52.0146466 124.8866275 104.5731975  51.7845774
 123.8252019 105.0417339  52.7570620 127.5207633  90.4403753  47.5440107
 127.1771903  91.3305395  47.4679218 127.8886596  90.2505411  46.6809692
 115.5893484 102.7637283  40.3628710 116.4268706 103.1734292  40.1462417
 115.7671752 101.8236726  40.3328903 127.4857916 100.4312364  36.0512543
 126.9704539 101.2016969  36.2900930 127.2135224  99.7577500  36.6745604
 125.0705027  95.2762065  41.1097781 124.2146623  94.8868915  40.9303420
 125.4831979  95.3554026  40.2497566 126.6004174  92.8108408  45.5089341
 126.0968969  92.7738543  44.6957146 126.8934781  93.7201151  45.5685997
 122.8447060  92.8947138  44.5155522 123.7100056  92.6989947  44.1561412
 122.9124568  92.6657490  45.4424879 132.4592190 103.1844719  37.9865716
 131.6821633 102.8455878  37.5420878 133.1383671 103.1897342  37.3120681
 127.2744219  98.3039456  37.8772324 126.9694355  98.6185605  38.7282467
 128.2274661  98.3820876  37.9199657 125.7190651 104.4629679  39.5265278
 125.1912013 103.7282439  39.2138515 125.2178154 105.2404356  39.2805246
 130.6983497 102.6578700  44.6432324 130.0407171 103.3477961  44.7312453
 131.5023896 103.0475132  44.9866310 120.4509379  95.1249346  41.8871889
 121.0253131  94.9024527  41.1545082 121.0380361  95.1938040  42.6400491
 129.5088956 101.0123073  42.6936266 130.0220838 101.6453065  43.1957975
 130.1590180 100.4124268  42.3279626 120.7778966  97.1553807  35.9067774
 119.9416278  97.4928493  36.2277049 120.6383735  97.0202787  34.9694911
 122.7532046  91.9990595  40.6146959 122.0996459  91.6839612  39.9903573
 122.7112520  91.3766335  41.3406782 123.8643251 102.2809890  32.5300251
 122.9570313 102.0499143  32.7291400 124.3614283 101.4847509  32.7174232
 126.7711330 110.9907397  35.4496937 126.0973029 111.2939094  36.0581895
 127.1577152 111.7936477  35.1002394 125.9869787  98.4872528  44.9394606
 125.0692348  98.7087475  44.7816294 126.4029930  98.5618839  44.0806314
 126.7704834  99.8863944  40.0697287 127.5176653 100.3985341  39.7604409
 127.0396424  99.5647997  40.9301680 125.0431485 102.3822485  37.0524241
 124.1342704 102.0981517  37.1496711 125.0726568 102.8021563  36.1927548
 130.2750752 105.9929074  40.8215408 129.8213079 105.1519984  40.8780599
 129.6444719 106.6290472  41.1590189 129.2183672  96.9221060  42.0516076
 128.4806428  96.4098446  42.3826318 129.4710445  96.4821442  41.2399353
 128.7183691 107.8305571  41.7565227 129.0106666 108.3910628  41.0377592
 129.2282312 108.1234132  42.5118386 129.3195299  89.6997312  42.6457845
 129.6254176  88.8394676  42.3583760 130.0447904  90.2914932  42.4456839
 115.6119655 100.1027999  41.0339443 115.4144055  99.5097359  40.3090510
 115.0566319  99.7980209  41.7515382 123.5916379  99.9951105  43.1534036
 123.6464988  99.0424942  43.0776513 122.7807581 100.1510544  43.6375335
 124.7407572 103.9231228  34.3912319 124.3027002 103.2067087  33.9317957
 125.4818013 104.1507343  33.8297411 121.5308739  98.6128165  40.9124415
 120.7176604  98.9122336  41.3189607 122.0267733  98.2183854  41.6298897
 123.6817316 108.6085922  42.8458680 123.6393495 108.8346768  41.9167212
 124.5980015 108.3749296  42.9944481 127.1282950  99.0769989  49.7439309
 127.4832338  99.3041463  50.6033775 127.7755081  99.4088366  49.1216564
 132.8580687 102.1988425  40.4488638 132.7198586 102.3890021  39.5209827
 132.5016906 102.9607808  40.9056689 121.0222813  96.1846520  46.5285650
 121.6622193  96.0435280  45.8308613 120.1900344  95.8981034  46.1524252
 132.8850067 104.2664952  45.4599909 133.3186573 104.1740241  46.3082963
 133.5981647 104.2422453  44.8219925 121.7983117 105.4848951  42.6420642
 122.5923716 104.9899271  42.4403217 121.0874810 104.9566814  42.2788348
 126.6177962 107.8667046  46.9933010 126.6714984 108.4357983  47.7610726
 125.7492743 108.0368931  46.6287047 118.1065881  99.6292033  38.7180395
 117.1763469  99.5676488  38.9350357 118.2023353  99.1067985  37.9217036
 118.0251430  96.1546845  41.3058637 118.2858247  97.0692179  41.1967797
 118.8468602  95.6871288  41.4555250 119.4976355  97.5684603  48.4757461
 120.1699409  97.3601965  47.8270110 118.6706142  97.3706689  48.0362694
 133.7465616 104.3088653  47.9932795 133.9401506 105.2134463  48.2392070
 133.6466235 103.8496072  48.8271380 125.4001927  94.1946544  50.4923122
 124.7529842  94.8936493  50.3987599 126.1702942  94.6282687  50.8599370
 128.8080725 104.4595396  53.5673675 128.6566231 104.2305947  52.6503759
 128.7985405 105.4165997  53.5805020 125.5766061 102.0327308  48.5519942
 126.5058121 102.1838468  48.3788909 125.1557091 102.1211329  47.6968588
 124.3754393 106.0577973  46.3218480 124.2365479 105.6896757  47.1944418
 123.5868989 106.5725612  46.1502437 124.9702545 111.1587069  37.6644016
 125.1454301 110.6875113  38.4789639 124.2835333 111.7852836  37.8925277
 125.9259608 105.4359576  43.7107317 125.5909441 105.3960346  44.6064967
 125.4263554 104.7704292  43.2377728 119.9003852 100.8427206  49.2359898
 119.7623650 100.1107444  49.8371438 120.8108776 100.7536106  48.9544086
 128.8618800 102.7815610  33.9844377 128.2447971 102.0562438  33.8877430
 128.3935288 103.5424970  33.6411451 122.5286153 100.5547165  48.7243578
 123.2385772  99.9140357  48.6830197 122.4855461 100.8060060  49.6469759
 130.5172932 107.4914518  51.6450157 130.4585478 106.8073738  50.9780740
 130.9192450 108.2333508  51.1930783 121.2415087  97.5412383  50.5439218
 120.7052444  97.0903121  51.1960814 120.6531795  97.6758292  49.8009682
 119.5363630 114.3076432  44.4383876 119.7760229 114.9394956  45.1162895
 118.6932827 113.9564472  44.7249235 120.6517346  97.0001034  33.1065681
 119.7746812  96.8789835  32.7427928 121.1275099  96.2087113  32.8544570
 130.5190339 105.4554102  49.8764137 129.6317118 105.1180024  49.9990536
 131.0888890 104.7237133  50.1132902 112.1719486 101.7878194  43.2007188
 112.8590526 101.4739924  42.6128204 112.0167615 102.6919559  42.9274440
 116.9754208  96.6768391  47.6292212 116.8912397  96.0694060  46.8942622
 116.1536915  97.1677409  47.6301708 124.0491492 110.1155555  46.8425380
 123.9761664 110.9210526  47.3544685 123.6068885 110.3147520  46.0173402
 123.8381272 109.3527325  40.3528202 123.0548794 109.8949005  40.4466426
 124.5374017 109.8701304  40.7522443 127.1477922  95.1621954  42.9962407
 127.6446622  94.4091916  42.6763477 126.3764904  95.1986271  42.4305616
 135.0007679 100.8662320  44.6380699 134.9897556 101.7487035  44.2674632
 134.1325059 100.5133870  44.4435236 126.5090176 110.0142389  48.9983539
 127.2218148 110.6489853  48.9259440 126.0180205 110.1106255  48.1823541
 128.2307703 103.9193641  40.5700831 127.2963982 104.0395104  40.4005535
 128.4084371 103.0166108  40.3060840 123.7312891  97.3039337  42.7234092
 123.3610678  96.7510377  43.4114997 124.2271983  96.6997471  42.1709092
 131.6180254  99.7610961  41.1050865 132.0840706 100.5938952  41.0311167
 132.0687755  99.2955942  41.8096123 121.5602089 107.7636832  49.8189110
 122.2611549 108.3973315  49.9718504 121.0897204 108.1051564  49.0584749
 129.6856485 106.1054782  38.1037017 129.9616329 105.9911376  39.0130891
 128.8160984 105.7072267  38.0649190 129.5896917  92.1291548  45.1441766
 128.6759997  92.3595774  45.3123973 130.0190018  92.2129992  45.9955798
 129.3603375 100.3181440  47.6441660 128.7074826 100.5657347  46.9894113
 129.7383755  99.5045578  47.3104137 126.3210549 110.3541133  41.7469830
 126.5032944 109.5362789  42.2097583 127.1443535 110.5708825  41.3094720
 126.6552715 109.2809318  39.0084879 127.1840481 108.7701772  38.3955041
 126.9180934 108.9651848  39.8730412 125.4090948 101.0601251  54.1307697
 124.7331585 100.9595380  54.8010072 126.2318582 100.9040464  54.5943694
 117.1569807 107.2973187  46.7520212 117.7423244 106.5516875  46.8848117
 116.9594646 107.6077144  47.6356876 120.0108463 110.3324435  41.7682655
 119.3418838 110.8170562  41.2846695 119.8721332 110.5793655  42.6826033
 111.7487462  99.8678787  45.4724656 111.7871562  99.3342378  46.2661774
 111.2427755  99.3413993  44.8535633 124.1513731 112.3668178  48.3665313
 124.7032039 112.5299800  49.1314398 124.4919925 112.9572616  47.6945338
 119.1278224  94.7143328  48.9687198 119.1919551  95.5758159  48.5564596
 119.0645345  94.1017329  48.2359556 118.6030497  96.7866460  52.6160232
 119.2302536  96.4043538  53.2297756 117.7458416  96.5680662  52.9815925
 129.0024606 107.1929436  54.2213968 129.5464510 107.8059394  53.7268922
 128.4211450 107.7509014  54.7380981 115.3796040  98.5942889  38.5478587
 115.6749481  97.6853568  38.4945641 114.4784076  98.5730629  38.2259589
 127.2882119 110.3150154  45.3528995 127.1633258 109.5139893  44.8439941
 127.9461210 110.8096347  44.8642965 118.9090287  96.6698886  44.5306136
 118.1876873  97.2834854  44.3913609 119.6983543  97.2056651  44.4522781
 129.3517027 108.1159174  46.9808545 128.4047362 107.9964525  46.9086872
 129.6999800 107.2281672  47.0634807 121.7116600  94.0053313  50.8046787
 122.2351002  94.2515609  51.5673097 121.4928934  94.8373347  50.3849925
 117.1083881  96.2756987  38.6717912 116.7796588  95.3954366  38.4893018
 117.4623252  96.2204656  39.5594301 126.3563460 107.9111890  43.1812898
 126.2088423 106.9828597  43.3620468 127.1816954 107.9331981  42.6969973
 120.2225705  96.5629957  39.0393390 120.5621777  97.0915878  38.3171998
 120.6697825  96.9010363  39.8151956 129.9597582 108.7340449  44.2677770
 130.8844130 108.5283310  44.1302221 129.7912885 108.4856850  45.1767112
 122.9169145  94.9467008  48.4896458 122.5765966  94.1474821  48.8917138
 122.2108152  95.2468719  47.9173291 123.5685617  92.0316320  46.9423781
 124.3911686  91.5576798  46.8202671 123.8123681  92.8106804  47.4422467
 122.2093852  95.0604579  37.2386683 122.9302214  95.4385831  36.7350399
 121.5859156  95.7793455  37.3421660 126.3524975  95.7649728  38.1745015
 126.5688589  96.6474365  37.8733843 125.8719042  95.3735941  37.4450657
 121.0924196  98.7235441  44.7515759 120.9468777  99.0375744  45.6440041
 120.6149400  99.3420341  44.1986658 122.9520579  95.7137989  44.7996649
 122.9382148  94.8179082  44.4628947 123.6693007  95.7208652  45.4334935
 124.8046710  96.1475329  46.8449776 124.5464487  97.0692400  46.8434107
 124.2731750  95.7505763  47.5350241 129.7492898 109.2526116  39.6239862
 129.9229776 108.6872539  38.8713714 130.2421790 110.0527011  39.4419352
 115.5669858 101.2640785  47.6903421 115.0223326 102.0400593  47.8223695
 116.4449208 101.6111590  47.5322542 122.3557475  94.5952369  40.0684219
 122.4773386  93.6669015  40.2675107 122.0659517  94.6091055  39.1562535
 125.2248665  92.2807279  43.2050939 125.2470362  92.3446613  42.2502919
 125.6416724  91.4411788  43.3991445 135.6032289 102.0162539  41.2430162
 136.0463435 101.2669864  40.8449285 134.7258800 102.0072675  40.8603894
 130.7368071 108.5692880  36.7236760 131.4318975 109.1899573  36.9424075
 131.0791221 107.7188232  36.9989138 116.3535880 100.3910681  50.5833577
 115.6117616 100.5393317  51.1698208 116.0328624 100.6518947  49.7200327
 132.6359494 106.0192586  38.2524091 133.1610818 106.3579859  37.5273411
 132.5481846 105.0839601  38.0687225 124.2979543 109.9326660  50.3813967
 124.6066669 109.6875806  51.2536667 125.0955025 110.1373298  49.8932838
 124.3200155 112.0864569  42.6119344 123.8805145 111.5940948  43.3052201
 125.0708272 111.5437537  42.3711419 116.7992494 108.2776110  42.6143972
 117.6250514 107.9779882  42.2342616 116.4486546 107.5083733  43.0633761
 121.7674027 107.6302578  44.6841646 121.1454036 106.9673283  44.3843874
 122.4378894 107.6563710  44.0015293 115.0001099 106.1962437  43.5732906
 114.1633007 105.7684611  43.3916907 114.9724744 106.3894880  44.5103697
 121.8398554  96.1084366  54.2774152 121.8886710  96.9846489  53.8951921
 122.3821068  95.5661759  53.7045795 132.3253400 106.6525490  53.5575289
 131.5348944 106.6349628  53.0179788 132.0886755 107.1913783  54.3124325
 132.4451275 103.5017956  50.8708017 132.4949280 103.3367963  51.8123540
 132.3365198 102.6345215  50.4805898 121.3287534 106.1806502  38.1600106
 121.4775654 106.8641966  37.5066779 122.1353977 106.1611592  38.6749562
 129.7355037  99.4848884  52.1867324 130.6364900  99.3455349  51.8951322
 129.8103012  99.6503339  53.1265501 124.0697843  96.8615739  51.0320510
 123.2001152  97.1549305  50.7603099 124.3057323  97.4456184  51.7527774
 133.9469472 105.9214897  51.1150039 133.6554280 106.2844878  51.9513500
 133.3341603 105.2081906  50.9363371 135.1465154 103.4867777  43.6352609
 135.9812046 103.9257581  43.7990169 135.2824283 103.0106430  42.8160855
 132.1956660 101.0447512  49.5830097 132.6710782 101.2375158  48.7748948
 131.2722225 101.1006698  49.3373481 119.0840167 102.2071679  39.1661175
 118.8386209 101.3034009  39.3641385 119.2536081 102.2088830  38.2240653
 126.7736877  93.0795356  48.5485931 127.2918820  93.8156383  48.2232419
 126.4192009  93.3859349  49.3832690 118.3535814  97.9400037  36.6647337
 117.6605059  98.0144392  36.0087373 118.1087566  97.1760381  37.1868854
 127.0249471  89.4995638  44.0686827 127.3051224  88.8318827  44.6947254
 127.8100078  89.6924734  43.5561491 124.8282939 108.6754632  35.6311854
 124.2556906 109.2944819  35.1782326 125.4015733 109.2253994  36.1651776
 130.8958329  97.9213272  47.8158402 131.8475752  98.0211370  47.8370627
 130.7261779  97.1291541  48.3256487 128.9172709  95.0068855  48.0017803
 128.3222641  95.2873868  47.3064292 128.6322405  95.4962756  48.7734545
 128.0480199 108.9591782  36.7620436 128.9810872 108.8937344  36.9653311
 127.9603412 109.7948049  36.3034969 130.6768216 108.2757653  33.7224384
 130.5981847 107.9417516  34.6160141 131.4977882 108.7679421  33.7215856
 133.3746407 101.1419392  46.9300702 133.3422727 100.2035393  47.1160386
 133.9847031 101.2203429  46.1966527 125.2129738 100.0115445  32.9727906
 126.1588842  99.8821653  33.0416324 124.8343983  99.2730107  33.4497334
 133.5240895  97.9330435  46.9758985 133.0079944  97.1488892  46.7888914
 134.4080844  97.6049152  47.1405505 131.1851622  91.6771451  42.9354798
 130.9876443  91.3686539  43.8198130 131.7951328  92.4033090  43.0652728
 139.1922957 102.2035399  46.0706739 139.9226345 101.9420687  46.6314442
 138.5829902 101.4664121  46.1108807 137.2738254 100.3443261  46.6681190
 136.5471417 100.2099226  46.0597682 136.8585541 100.6520090  47.4737908
 125.0968430 104.0633191  54.4328563 126.0171440 104.2411790  54.6268610
 125.0618013 103.1189236  54.2808262 123.3972655  97.9365421  32.9082791
 122.4904110  97.6398534  32.9845505 123.6748636  97.6395239  32.0417078
 114.3150595  99.2571785  43.3581838 113.9953380  98.4037093  43.0656212
 113.7684023  99.4720363  44.1139805 118.0930503 101.9734226  47.0751344
 118.3116513 102.9051333  47.0939378 118.5056277 101.6142200  47.8606148
 125.0134721  92.4802311  39.0627033 124.2035449  92.1349396  39.4382279
 125.7019138  92.1709855  39.6514644 126.9425269  91.5580358  40.6851329
 127.4956307  91.9775811  41.3441352 127.1795355  90.6316106  40.7274285
 122.9658368  97.5467431  56.4654093 122.8655095  98.4961788  56.3966184
 122.7479910  97.2185670  55.5930163 122.1671440  94.7952356  33.0494771
 123.0290603  95.1207255  33.3090588 122.3521784  94.0083852  32.5367836
 114.1838855 102.8774696  45.3274959 113.4902327 102.4628649  44.8144914
 114.9311846 102.9195233  44.7308378 130.3204076  93.6680883  40.1929994
 129.7402745  94.3265687  39.8108046 130.0540009  92.8458228  39.7817411
 128.7707642  93.0685941  42.3951314 129.2707421  93.1802475  41.5865633
 129.4143250  92.7646993  43.0352122 122.8289638 100.9764570  55.2819155
 122.3456720 101.7764930  55.4883044 122.9150577 100.9872515  54.3286599
 116.0975598 102.8092950  43.2040974 116.0746286 102.9080637  42.2522857
 116.4076234 103.6558101  43.5258140 118.7562976 104.8669105  47.3187589
 119.7106229 104.8353047  47.2517520 118.5575499 104.4059729  48.1337815
 119.3462358 103.4370221  49.8858386 120.1655247 103.9314300  49.9093224
 119.6199166 102.5202189  49.8575954 129.1028954  95.8280973  39.2486342
 128.2154809  96.1130624  39.0306537 129.5182943  95.6674737  38.4013619
 132.4543490  95.8527494  42.9640681 133.2303880  96.3423947  43.2365298
 131.7291624  96.2785549  43.4212551 134.8916049  96.5655114  44.0214622
 135.4860540  96.3250849  43.3107930 134.9642632  95.8462244  44.6488158
 117.1113204 110.4088724  44.3357787 116.9767672 109.6489125  43.7695785
 116.6945267 111.1329624  43.8686575 128.2472167 105.5925648  33.3434362
 128.9508018 105.7975650  33.9592017 127.5234816 106.1602410  33.6083445
 129.0769978 101.3435509  39.4636632 129.0205179 101.8004061  38.6244264
 129.6298320 100.5826194  39.2859475 132.8874784  97.1325241  40.2886752
 132.6311718  96.7321877  41.1194959 132.2627652  97.8469035  40.1636891
 137.1987122  99.8721314  42.7958043 136.6386679  99.9414504  43.5689605
 136.5930625  99.6962299  42.0757539 120.2682330 111.3058041  44.5476229
 120.1514714 112.2503474  44.4454919 119.4474777 111.0031603  44.9362028
 130.1558865 106.0308177  35.3932822 130.9904469 105.5989376  35.2110297
 129.9943208 105.8590191  36.3209716 129.8104757 102.5340291  36.7589161
 129.7553561 102.3684562  35.8177605 129.1850812 103.2416323  36.9151351
 114.5997272  97.7708355  50.5850583 115.2456136  97.2607309  51.0737809
 114.3914423  98.5077037  51.1594009 127.1250664 104.8389202  56.0842724
 127.9941824 105.0129855  55.7229359 126.6457416 105.6583619  55.9618453
 123.1200883  92.0348400  36.3374480 123.1079552  92.9790239  36.4942750
 124.0124304  91.8518545  36.0433941 121.2936844 111.9586303  47.7632158
 122.1964091 111.9909914  48.0798653 121.0674215 111.0286754  47.7778493
 123.0490446 110.7117290  44.4242236 122.0986077 110.7119152  44.3106609
 123.3522933 109.9650024  43.9078271 126.9353002  88.6291176  40.5920416
 126.1685398  88.0749663  40.7377099 127.3463707  88.7013045  41.4534568
 118.9394763  94.9175972  54.6825598 119.8026225  94.5612777  54.8928922
 118.3660174  94.5789867  55.3701002 138.7843140 116.5477828  45.4887999
 139.4221550 116.4284576  44.7851339 138.6663983 117.4958672  45.5475951
 135.5932846 116.5005256  45.4249523 135.2551358 116.3846321  44.5370058
 136.4622614 116.0996422  45.4050529 131.4519662 118.3540733  41.4146414
 130.8884527 118.2630670  40.6462702 131.3372057 117.5340637  41.8948907
 136.0752629 117.6540108  51.3835729 136.0641270 117.2592906  50.5116233
 136.2373269 116.9206181  51.9769500 128.9984094 119.8491924  44.2530635
 129.7905386 119.5082749  43.8376934 129.2380744 119.9586899  45.1732788
 132.7959890 120.4377220  50.3314913 132.5049756 121.3422851  50.2161579
 133.4316875 120.4793748  51.0458982 133.7216097 117.8154068  46.9216272
 134.3179669 117.5910091  46.2073235 133.7791069 117.0738814  47.5241720
 138.3384408 114.2729282  42.5641207 139.1247498 113.8548705  42.2131624
 138.6023113 115.1775374  42.7322855 135.3568955 116.6331757  40.6637528
 134.9927163 116.1062378  41.3750449 136.2136071 116.2430226  40.4904013
 134.9974442 111.6621657  35.6598876 135.1648845 112.5301893  36.0269347
 134.8071611 111.8248938  34.7360165 137.7549775 120.1238635  47.3264707
 137.4550499 121.0263674  47.2180514 137.4100835 119.8570819  48.1785859
 131.2062257 116.5752432  43.3601411 130.2812753 116.4428646  43.5679103
 131.4546670 117.3546652  43.8571353 141.1546919 112.6421176  45.0062144
 140.2463797 112.5736584  44.7120905 141.1034515 113.1193121  45.8343969
 134.9763663 114.1179314  36.6445543 134.8563288 114.5636365  37.4831023
 134.2816252 114.4664632  36.0859081 128.5671068 116.2185706  44.1945200
 128.6963449 116.4720185  45.1084612 127.8868519 116.8113414  43.8749855
 135.2287785 114.0610821  52.9497041 134.4521119 114.6204741  52.9399906
 135.8678348 114.5467604  53.4711911 133.4834157 116.8696275  52.5115008
 134.2248842 117.4081319  52.2349832 132.7771143 117.4962563  52.6686560
 138.9589497 119.0125415  51.1087170 139.3672853 118.5707826  50.3641802
 138.2366758 118.4378043  51.3621363 135.3120567 113.9498022  48.4820727
 136.1581762 114.3737435  48.6255376 135.2519205 113.2931646  49.1759290
 139.2818312 119.5726606  44.8639458 138.6527174 119.7372320  44.1615526
 138.8943974 119.9868215  45.6350423 138.4620012 111.6102390  50.1401900
 138.2180944 112.3644451  49.6036176 138.7379943 111.9887738  50.9749147
 140.4158475 118.1541003  48.8179166 140.6275370 118.7972762  48.1413547
 140.3688223 117.3203319  48.3501096 138.0184704 110.7658823  45.7215738
 137.1569183 111.0640077  46.0132475 138.0447139 110.9829222  44.7896771
 134.8346273 119.3101014  42.1289544 135.2984619 119.5888717  41.3394166
 134.5703072 118.4084458  41.9462634 131.7270355 118.8572495  45.0669307
 132.2971712 119.2859764  44.4286791 132.3178466 118.5755080  45.7653493
 133.7715160 115.4324166  38.9379109 134.4739203 115.8845210  39.4053035
 133.4395788 114.7907985  39.5659002 132.2195521 114.0235923  53.3130318
 131.5894182 114.7052204  53.5465715 132.1131609 113.9119004  52.3683456
 127.5140494 113.6907719  44.2396242 126.7239547 113.9465247  43.7636353
 128.0051741 114.5056057  44.3448283 129.4655239 114.0552298  41.1979719
 128.6686402 114.1670992  41.7163215 129.2380831 114.3938950  40.3320610
 135.2960907 120.5797001  49.1462234 135.3605339 121.0417409  49.9820405
 134.5871830 119.9494366  49.2744543 125.7978196 113.9438209  46.6711233
 126.0486235 114.8285219  46.9368809 126.3337745 113.7642811  45.8986325
 131.4976264 108.3256689  55.6755569 131.1043209 107.7722887  56.3503213
 132.3142404 108.6367267  56.0662087 128.4638322 119.7640547  39.5869139
 128.9762842 120.5583797  39.7374704 129.1161034 119.0666837  39.5202741
 130.2733206 122.8806303  41.6691892 130.4499835 123.8024268  41.4812876
 131.0690040 122.5664722  42.0986272 134.4144225 109.7414568  53.2675826
 135.1553938 110.3421721  53.1880288 134.6462148 108.9992205  52.7093868
 129.5585563 114.9270935  51.5454055 129.4439078 114.0256192  51.8461154
 128.7030081 115.1734632  51.1938872 136.6377401 122.8688675  53.1441556
 136.1941255 122.0825054  52.8262461 137.2994614 123.0567826  52.4785447
 131.3964522 124.3984477  47.6702235 131.9471947 124.2701540  46.8979228
 130.5575998 124.6979366  47.3197127 135.1931693 120.6635605  52.0146466
 135.7260030 119.9023893  51.7845774 134.6645774 120.3709256  52.7570620
 138.3601388 105.7695671  47.5440107 138.0165657 106.6597312  47.4679218
 138.7280350 105.5797328  46.6809692 126.4287238 118.0929201  40.3628710
 127.2662460 118.5026209  40.1462417 126.6065506 117.1528643  40.3328903
 135.9098781 110.6053983  41.1097781 135.0540378 110.2160833  40.9303420
 136.3225733 110.6845943  40.2497566 137.4397928 108.1400326  45.5089341
 136.9362724 108.1030461  44.6957146 137.7328535 109.0493069  45.5685997
 133.6840814 108.2239056  44.5155522 134.5493811 108.0281864  44.1561412
 133.7518323 107.9949407  45.4424879 138.1137974 113.6331374  37.8772324
 137.8088109 113.9477523  38.7282467 139.0668416 113.7112794  37.9199657
 131.2903133 110.4541263  41.8871889 131.8646885 110.2316445  41.1545082
 131.8774116 110.5229958  42.6400491 140.3482710 116.3414990  42.6936266
 140.8614592 116.9744982  43.1957975 140.9983934 115.7416186  42.3279626
 131.6172720 112.4845724  35.9067774 130.7810032 112.8220411  36.2277049
 131.4777490 112.3494704  34.9694911 133.5925801 107.3282512  40.6146959
 132.9390213 107.0131530  39.9903573 133.5506275 106.7058253  41.3406782
 136.8263541 113.8164446  44.9394606 135.9086103 114.0379393  44.7816294
 137.2423685 113.8910756  44.0806314 137.6098589 115.2155862  40.0697287
 138.3570408 115.7277259  39.7604409 137.8790178 114.8939914  40.9301680
 140.0577426 112.2512978  42.0516076 139.3200183 111.7390364  42.3826318
 140.3104200 111.8113359  41.2399353 140.1589053 105.0289230  42.6457845
 140.4647930 104.1686593  42.3583760 140.8841658 105.6206850  42.4456839
 126.4513409 115.4319916  41.0339443 126.2537809 114.8389277  40.3090510
 125.8960073 115.1272127  41.7515382 134.4310133 115.3243023  43.1534036
 134.4858743 114.3716859  43.0776513 133.6201335 115.4802462  43.6375335
 132.3702493 113.9420083  40.9124415 131.5570359 114.2414253  41.3189607
 132.8661487 113.5475771  41.6298897 134.5211071 123.9377840  42.8458680
 134.4787250 124.1638686  41.9167212 135.4373770 123.7041214  42.9944481
 137.9676705 114.4061907  49.7439309 138.3226092 114.6333380  50.6033775
 138.6148836 114.7380284  49.1216564 131.8616568 111.5138438  46.5285650
 132.5015947 111.3727197  45.8308613 131.0294098 111.2272952  46.1524252
 132.6376872 120.8140869  42.6420642 133.4317470 120.3191189  42.4403217
 131.9268564 120.2858732  42.2788348 128.9459635 114.9583950  38.7180395
 128.0157223 114.8968406  38.9350357 129.0417107 114.4359903  37.9217036
 128.8645184 111.4838763  41.3058637 129.1252002 112.3984096  41.1967797
 129.6862357 111.0163206  41.4555250 130.3370110 112.8976520  48.4757461
 131.0093163 112.6893882  47.8270110 129.5099896 112.6998606  48.0362694
 136.2395682 109.5238461  50.4923122 135.5923597 110.2228411  50.3987599
 137.0096697 109.9574605  50.8599370 139.6474480 119.7887313  53.5673675
 139.4959986 119.5597865  52.6503759 139.6379159 120.7457915  53.5805020
 136.4159816 117.3619226  48.5519942 137.3451876 117.5130386  48.3788909
 135.9950846 117.4503247  47.6968588 135.2148148 121.3869891  46.3218480
 135.0759233 121.0188675  47.1944418 134.4262744 121.9017530  46.1502437
 136.7653363 120.7651493  43.7107317 136.4303195 120.7252263  44.6064967
 136.2657309 120.0996209  43.2377728 130.7397607 116.1719123  49.2359898
 130.6017405 115.4399362  49.8371438 131.6502530 116.0828023  48.9544086
 133.3679907 115.8839083  48.7243578 134.0779526 115.2432275  48.6830197
 133.3249216 116.1351977  49.6469759 132.0808841 112.8704301  50.5439218
 131.5446198 112.4195039  51.1960814 131.4925550 113.0050209  49.8009682
 123.0113241 117.1170112  43.2007188 123.6984280 116.8031842  42.6128204
 122.8561369 118.0211476  42.9274440 127.8147963 112.0060308  47.6292212
 127.7306151 111.3985978  46.8942622 126.9930669 112.4969327  47.6301708
 137.9871677 110.4913872  42.9962407 138.4840376 109.7383834  42.6763477
 137.2158658 110.5278188  42.4305616 139.0701457 119.2485559  40.5700831
 138.1357736 119.3687021  40.4005535 139.2478126 118.3458026  40.3060840
 134.5706645 112.6331255  42.7234092 134.2004433 112.0802295  43.4114997
 135.0665738 112.0289388  42.1709092 132.3995844 123.0928750  49.8189110
 133.1005303 123.7265233  49.9718504 131.9290959 123.4343481  49.0584749
 140.4290671 107.4583465  45.1441766 139.5153751 107.6887692  45.3123973
 140.8583773 107.5421909  45.9955798 140.1997130 115.6473357  47.6441660
 139.5468580 115.8949265  46.9894113 140.5777510 114.8337495  47.3104137
 136.2484703 116.3893168  54.1307697 135.5725340 116.2887298  54.8010072
 137.0712337 116.2332382  54.5943694 127.9963562 122.6265105  46.7520212
 128.5816999 121.8808793  46.8848117 127.7988400 122.9369062  47.6356876
 130.8502217 125.6616352  41.7682655 130.1812592 126.1462480  41.2846695
 130.7115087 125.9085573  42.6826033 122.5881217 115.1970705  45.4724656
 122.6265316 114.6634296  46.2661774 122.0821510 114.6705911  44.8535633
 129.9671979 110.0435246  48.9687198 130.0313305 110.9050076  48.5564596
 129.9039099 109.4309247  48.2359556 129.4424252 112.1158378  52.6160232
 130.0696290 111.7335455  53.2297756 128.5852170 111.8972580  52.9815925
 126.2189794 113.9234807  38.5478587 126.5143235 113.0145486  38.4945641
 125.3177830 113.9022547  38.2259589 129.7484041 111.9990804  44.5306136
 129.0270627 112.6126771  44.3913609 130.5377297 112.5348569  44.4522781
 132.5510355 109.3345230  50.8046787 133.0744757 109.5807527  51.5673097
 132.3322688 110.1665265  50.3849925 127.9477636 111.6048905  38.6717912
 127.6190342 110.7246284  38.4893018 128.3017007 111.5496574  39.5594301
 131.0619459 111.8921875  39.0393390 131.4015532 112.4207796  38.3171998
 131.5091579 112.2302281  39.8151956 133.7562900 110.2758925  48.4896458
 133.4159720 109.4766738  48.8917138 133.0501906 110.5760636  47.9173291
 134.4079372 107.3608238  46.9423781 135.2305441 106.8868716  46.8202671
 134.6517435 108.1398722  47.4422467 133.0487606 110.3896496  37.2386683
 133.7695969 110.7677749  36.7350399 132.4252910 111.1085373  37.3421660
 137.1918729 111.0941645  38.1745015 137.4082343 111.9766283  37.8733843
 136.7112796 110.7027859  37.4450657 131.9317950 114.0527358  44.7515759
 131.7862531 114.3667661  45.6440041 131.4543154 114.6712259  44.1986658
 133.7914333 111.0429906  44.7996649 133.7775902 110.1471000  44.4628947
 134.5086761 111.0500570  45.4334935 135.6440464 111.4767247  46.8449776
 135.3858242 112.3984317  46.8434107 135.1125504 111.0797681  47.5350241
 126.4063613 116.5932703  47.6903421 125.8617081 117.3692511  47.8223695
 127.2842962 116.9403507  47.5322542 133.1951229 109.9244287  40.0684219
 133.3167140 108.9960933  40.2675107 132.9053272 109.9382973  39.1562535
 136.0642420 107.6099197  43.2050939 136.0864116 107.6738530  42.2502919
 136.4810479 106.7703706  43.3991445 127.1929634 115.7202599  50.5833577
 126.4511370 115.8685234  51.1698208 126.8722379 115.9810865  49.7200327
 127.6386248 123.6068028  42.6143972 128.4644268 123.3071800  42.2342616
 127.2880300 122.8375650  43.0633761 132.6067781 122.9594496  44.6841646
 131.9847791 122.2965201  44.3843874 133.2772648 122.9855628  44.0015293
 125.8394853 121.5254354  43.5732906 125.0026761 121.0976529  43.3916907
 125.8118499 121.7186798  44.5103697 132.6792309 111.4376284  54.2774152
 132.7280464 112.3138407  53.8951921 133.2214823 110.8953677  53.7045795
 134.9091597 112.1907656  51.0320510 134.0394907 112.4841222  50.7603099
 135.1451078 112.7748101  51.7527774 129.9233921 117.5363597  39.1661175
 129.6779963 116.6325927  39.3641385 130.0929836 117.5380747  38.2240653
 137.6130631 108.4087273  48.5485931 138.1312575 109.1448300  48.2232419
 137.2585764 108.7151267  49.3832690 129.1929569 113.2691955  36.6647337
 128.4998814 113.3436310  36.0087373 128.9481321 112.5052298  37.1868854
 137.8643225 104.8287556  44.0686827 138.1444979 104.1610745  44.6947254
 138.6493832 105.0216652  43.5561491 139.7566463 110.3360773  48.0017803
 139.1616395 110.6165786  47.3064292 139.4716160 110.8254674  48.7734545
 135.9362185 119.3925109  54.4328563 136.8565194 119.5703708  54.6268610
 135.9011768 118.4481154  54.2808262 125.1544350 114.5863702  43.3581838
 124.8347134 113.7329011  43.0656212 124.6077778 114.8012280  44.1139805
 128.9324257 117.3026143  47.0751344 129.1510267 118.2343251  47.0939378
 129.3450031 116.9434118  47.8606148 135.8528475 107.8094229  39.0627033
 135.0429203 107.4641314  39.4382279 136.5412892 107.5001772  39.6514644
 137.7819023 106.8872275  40.6851329 138.3350062 107.3067729  41.3441352
 138.0189110 105.9608024  40.7274285 133.8052123 112.8759349  56.4654093
 133.7048850 113.8253706  56.3966184 133.5873665 112.5477588  55.5930163
 133.0065194 110.1244274  33.0494771 133.8684358 110.4499172  33.3090588
 133.1915538 109.3375770  32.5367836 125.0232610 118.2066614  45.3274959
 124.3296081 117.7920567  44.8144914 125.7705601 118.2487150  44.7308378
 139.6101397 108.3977858  42.3951314 140.1101175 108.5094393  41.5865633
 140.2537005 108.0938911  43.0352122 133.6683393 116.3056488  55.2819155
 133.1850474 117.1056848  55.4883044 133.7544332 116.3164433  54.3286599
 126.9369352 118.1384868  43.2040974 126.9140040 118.2372555  42.2522857
 127.2469989 118.9850018  43.5258140 129.5956730 120.1961023  47.3187589
 130.5499984 120.1644965  47.2517520 129.3969254 119.7351646  48.1337815
 130.1856112 118.7662139  49.8858386 131.0049001 119.2606217  49.9093224
 130.4592920 117.8494107  49.8575954 139.9422708 111.1572891  39.2486342
 139.0548564 111.4422542  39.0306537 140.3576698 110.9966654  38.4013619
 127.9506959 125.7380642  44.3357787 127.8161427 124.9781043  43.7695785
 127.5339021 126.4621542  43.8686575 131.1076085 126.6349959  44.5476229
 130.9908469 127.5795392  44.4454919 130.2868531 126.3323521  44.9362028
 125.4391027 113.1000273  50.5850583 126.0849890 112.5899227  51.0737809
 125.2308178 113.8368954  51.1594009 137.9644419 120.1681120  56.0842724
 138.8335578 120.3421772  55.7229359 137.4851170 120.9875537  55.9618453
 133.9594637 107.3640317  36.3374480 133.9473307 108.3082157  36.4942750
 134.8518059 107.1810463  36.0433941 137.7746756 103.9583094  40.5920416
 137.0079152 103.4041581  40.7377099 138.1857461 104.0304963  41.4534568
 129.7788518 110.2467890  54.6825598 130.6419979 109.8904694  54.8928922
 129.2053928 109.9081784  55.3701002  61.4727650  -4.9546995  35.7228846
  62.1855622  -4.3199530  35.6504747  60.9817679  -4.8583129  34.9068847
  56.5239564  -7.2052551  36.5434416  57.2249023  -6.5716068  36.6963811
  56.0534679  -6.8637820  35.7830056  59.1151206  -2.6021205  35.0910620
  59.6669514  -2.4389584  35.8559705  59.4557399  -2.0116768  34.4190645
  59.2617017  -5.0362724  37.1059274  59.5704143  -5.2813577  37.9781974
  60.0592499  -4.8316085  36.6178144  56.2574319  -3.0103080  34.4877464
  57.1601565  -2.9779470  34.8043959  56.0311689  -3.9402629  34.5023800
  73.7480614   1.5788445  32.2133305  74.3859024   1.4595192  31.5096645
  73.6301457   2.5269289  32.2721257  70.5570321   1.5315873  32.1494830
  70.2188832   1.4156938  31.2615365  71.4260089   1.1307038  32.1295836
  66.4157136   3.3851349  28.1391721  65.8522001   3.2941286  27.3708009
  66.3009531   2.5651254  28.6194213  71.0390104   2.6850725  38.1081035
  71.0278744   2.2903523  37.2361539  71.2010743   1.9516797  38.7014807
  63.9621568   4.8802541  30.9775941  64.7542860   4.5393366  30.5622241
  64.2018218   4.9897516  31.8978095  71.9956695   7.0522317  23.4506186
  71.3444675   7.6376397  23.0640200  72.7901058   7.5828512  23.5101223
  67.7597365   5.4687836  37.0560219  67.4687231   6.3733467  36.9406886
  68.3954349   5.5104364  37.7704289  68.6853572   2.8464685  33.6461579
  69.2817144   2.6220707  32.9318542  68.7428543   2.1049430  34.2487027
  73.3021883  -0.6960101  29.2886513  74.0884972  -1.1140678  28.9376930
  73.5660587   0.2085991  29.4568162  73.4731960   4.7412749  23.9875170
  72.8377793   4.8147376  24.6996075  73.1429367   5.3306348  23.3094249
  70.3206430   1.6642373  27.3882834  69.9564637   1.1372994  28.0995756
  71.1773546   1.2740842  27.2149320  72.7187250   5.1549252  34.0510013
  72.4187973   6.0574291  33.9425820  72.3738309   4.8881435  34.9031166
  66.1699731   1.6063049  30.0846718  65.2450228   1.4739263  30.2924409
  66.4184144   2.3857268  30.5816660  63.5308542   1.2496322  30.9190507
  63.6600923   1.5030801  31.8329918  62.8505994   1.8424030  30.5995162
  67.7008030  11.9193572  27.0180981  67.6232059  12.8701397  27.0969461
  67.0969673  11.5739445  27.6755907  70.1925259  -0.9078562  39.6742348
  69.4158593  -0.3484642  39.6645212  70.8315822  -0.4221779  40.1957218
  75.6386204  -0.3788596  24.1971184  76.5504060  -0.1461209  24.0218881
  75.1295851   0.2048448  23.6346262  68.4471632   1.9006891  39.2360315
  69.1886316   2.4391935  38.9595138  67.7408617   2.5273180  39.3931867
  73.9226971   4.0436032  37.8332476  74.3310327   3.6018442  37.0887109
  73.2004233   3.4688659  38.0866669  70.2758041  -1.0191362  35.2066033
  71.1219237  -0.5951948  35.3500682  70.2156679  -1.6757737  35.9004596
  74.2455786   4.6037222  31.5884765  73.6164648   4.7682936  30.8860833
  73.8581448   5.0178832  32.3595729  78.1245018   5.5391660  28.9429129
  77.4396056   5.9190561  28.3926162  78.2088867   6.1486987  29.6761077
  75.3795949   3.1851619  35.5424472  75.5912845   3.8283379  34.8658853
  75.3325698   2.3513936  35.0746402  69.7983748   4.3411630  28.8534850
  70.2622093   4.6199333  28.0639473  69.5340546   3.4395075  28.6707941
  66.6907829   3.8883112  31.7914613  67.2609186   4.3170380  31.1532098
  67.2815941   3.6065697  32.4898799  67.1832995  -0.9453461  40.0375625
  66.5531656  -0.2637180  40.2711022  67.0769083  -1.0570379  39.0928763
  62.4777968  -1.2781665  30.9641549  61.6877022  -1.0224136  30.4881660
  62.9689215  -0.4633327  31.0693589  76.4941777   6.0623575  33.7146830
  77.3159221   5.6603762  33.4329511  76.4904180   5.9591809  34.6662946
  70.2598381   5.6107618  35.8707540  70.3242813   6.0728025  36.7065712
  69.5509305   4.9804983  35.9989850  60.7615671  -1.0251174  33.3956540
  61.0123709  -0.1404164  33.6614116  61.2975219  -1.2046573  32.6231632
  84.5847770   2.4062323  30.0631801  83.8311479   1.8369721  29.9075806
  84.7195312   2.3724987  31.0102436  69.9746398   7.2775725  25.7386521
  69.8392073   8.1227261  26.1671368  70.5156211   7.4795003  24.9752454
  63.4275796   4.7951163  26.3114446  63.9400316   5.5894414  26.4620010
  64.0798509   4.0977454  26.2448047  65.2370681   7.9116920  28.3937199
  65.4137309   8.8334884  28.2058183  66.0327514   7.5975339  28.8231579
  64.5223037  -0.0418448  38.2699362  64.4076552  -0.9433191  38.5706461
  63.6667555   0.2045248  37.9184179  71.6014875   7.8999292  39.8686863
  71.1578729   7.1135670  39.5507767  72.2632088   8.0878442  39.2030753
  66.3601996   9.4295093  34.3947541  66.9109421   9.3012157  33.6224535
  65.5213472   9.7289982  34.0442434  73.6996113   8.1802092  37.8968264
  73.6814588   9.0010973  37.4048533  74.6216033   8.0556167  38.1218405
  70.1569167   5.6946221  38.7391772  70.6897504   4.9334509  38.5091080
  69.6283248   5.4019873  39.4815927  78.2623419   3.5447253  24.7111023
  77.4852862   3.2058412  24.2666185  78.9414900   3.5499876  24.0365988
  71.5221880   4.8232214  26.2510584  70.9943241   4.0884973  25.9383822
  71.0209383   5.6006890  26.0050553  76.5014726   3.0181234  31.3677631
  75.8438400   3.7080496  31.4557759  77.3055125   3.4077666  31.7111617
  75.3120185   1.3725607  29.4181572  75.8252066   2.0055599  29.9203282
  75.9621408   0.7726802  29.0524932  72.5742559  11.3509931  22.1742244
  71.9004258  11.6541628  22.7827201  72.9608381  12.1539011  21.8247701
  71.7901015  -1.1524938  31.6639913  70.8723577  -0.9309991  31.5061601
  72.2061159  -1.0778627  30.8051620  72.5736063   0.2466478  26.7942593
  73.3207882   0.7587875  26.4849715  72.8427653  -0.0749469  27.6546987
  76.0781981   6.3531608  27.5460715  75.6244308   5.5122518  27.6025905
  75.4475948   6.9893007  27.8835495  74.5214920   8.1908105  28.4810533
  74.8137894   8.7513162  27.7622899  75.0313541   8.4836666  29.2363692
  69.3947607   0.3553639  29.8779343  69.4496217  -0.5972524  29.8021819
  68.5838809   0.5113079  30.3620641  67.3339967  -1.0269301  27.6369722
  66.5207833  -0.7275130  28.0434914  67.8298962  -1.4213612  28.3544204
  69.4848545   8.9688456  29.5703986  69.4424724   9.1949302  28.6412518
  70.4011244   8.7351831  29.7189788  72.9314179  -0.5627476  36.4684616
  73.2863567  -0.3356003  37.3279081  73.5786310  -0.2309100  35.8461871
  78.6611916   2.5590960  27.1733945  78.5229815   2.7492556  26.2455134
  78.3048135   3.3210342  27.6301996  66.8254042  -3.4550945  33.2530957
  67.4653421  -3.5962186  32.5553920  65.9931573  -3.7416432  32.8769559
  78.6881296   4.6267487  32.1845216  79.1217802   4.5342776  33.0328270
  79.4012876   4.6024987  31.5465232  67.6014346   5.8451485  29.3665949
  68.3954945   5.3501805  29.1648524  66.8906038   5.3169348  29.0033655
  72.4209191   8.2269581  33.7178317  72.4746213   8.7960517  34.4856033
  71.5523972   8.3971466  33.3532354  65.3007584  -2.0712863  35.2002768
  65.9730637  -2.2795501  34.5515417  64.4737370  -2.2690777  34.7608000
  79.5496845   4.6691187  34.7178101  79.7432735   5.5736998  34.9637376
  79.4497463   4.2098606  35.5516687  74.6111954   4.8197930  40.2918982
  74.4597460   4.5908482  39.3749066  74.6016633   5.7768531  40.3050327
  71.3797290   2.3929843  35.2765249  72.3089350   2.5441002  35.1034216
  70.9588320   2.4813863  34.4213895  70.1785622   6.4180507  33.0463786
  70.0396708   6.0499292  33.9189724  69.3900218   6.9328147  32.8747744
  70.7733774  11.5189604  24.3889323  70.9485530  11.0477647  25.2034945
  70.0866562  12.1455370  24.6170583  71.7290837   5.7962110  30.4352624
  71.3940670   5.7562880  31.3310274  71.2294783   5.1306826  29.9623034
  65.7035081   1.2029740  35.9605205  65.5654879   0.4709979  36.5616744
  66.6140005   1.1138640  35.6789393  68.3317382   0.9149699  35.4488885
  69.0417000   0.2742891  35.4075503  68.2886690   1.1662594  36.3715066
  76.3204160   7.8517052  38.3695464  76.2616707   7.1676273  37.7026047
  76.7223679   8.5936043  37.9176090  67.0446316  -2.0985083  37.2684524
  66.5083673  -2.5494344  37.9206121  66.4563024  -1.9639174  36.5254989
  65.3394859  14.6678966  31.1629183  65.5791458  15.2997491  31.8408201
  64.4964056  14.3167006  31.4494542  76.3221568   5.8156636  36.6009444
  75.4348347   5.4782558  36.7235843  76.8920119   5.0839668  36.8378209
  57.9750715   2.1480728  29.9252495  58.6621755   1.8342458  29.3373510
  57.8198844   3.0522093  29.6519746  62.7785437  -2.9629075  34.3537519
  62.6943626  -3.5703406  33.6187929  61.9568143  -2.4720057  34.3547015
  69.8522721  10.4758089  33.5670687  69.7792893  11.2813060  34.0789991
  69.4100114  10.6750055  32.7418708  69.6412501   9.7129859  27.0773508
  68.8580023  10.2551539  27.1711733  70.3405246  10.2303838  27.4767750
  80.8038908   1.2264854  31.3626005  80.7928785   2.1089569  30.9919938
  79.9356288   0.8736405  31.1680542  72.3121405  10.3744923  35.7228846
  73.0249377  11.0092388  35.6504747  71.8211433  10.4708789  34.9068847
  74.0338932   4.2796175  27.2946137  73.0995210   4.3997638  27.1250842
  74.2115600   3.3768642  27.0306147  69.5344120  -2.3358129  29.4479398
  69.1641907  -2.8887088  30.1360304  70.0303212  -2.9399995  28.8954398
  77.4211483   0.1213495  27.8296171  77.8871935   0.9541486  27.7556474
  77.8718983  -0.3441524  28.5341430  67.3633318   8.1239366  36.5434416
  68.0642778   8.7575849  36.6963811  66.8928433   8.4654098  35.7830056
  75.4887714   6.4657316  24.8282323  75.7647558   6.3513911  25.7376197
  74.6192213   6.0674801  24.7894496  75.1634604   0.6783974  34.3686967
  74.5106054   0.9259881  33.7139419  75.5414984  -0.1351888  34.0349444
  72.1241778  10.7143667  28.4715137  72.3064173   9.8965323  28.9342889
  72.9474764  10.9311359  28.0340027  72.4583944   9.6411852  25.7330185
  72.9871710   9.1304307  25.1200348  72.7212163   9.3254382  26.5975718
  71.2122177   1.4203785  40.8553004  70.5362814   1.3197914  41.5255379
  72.0349811   1.2642999  41.3189001  62.9601036   7.6575721  33.4765519
  63.5454473   6.9119409  33.6093423  62.7625875   7.9679678  34.3602183
  65.8139691  10.6926969  28.4927961  65.1450067  11.1773096  28.0092001
  65.6752561  10.9396189  29.4071340  57.5518691   0.2281322  32.1969962
  57.5902791  -0.3055088  32.9907080  57.0458984  -0.2983473  31.5780939
  69.9544960  12.7270712  35.0910620  70.5063268  12.8902334  35.8559705
  70.2951154  13.3175150  34.4190645  64.9309453  -4.9254138  35.6932504
  64.9950780  -4.0639307  35.2809902  64.8676574  -5.5380136  34.9604863
  64.4061726  -2.8531005  39.3405539  65.0333765  -3.2353928  39.9543063
  63.5489645  -3.0716803  39.7061231  74.8055834   7.5531970  40.9459274
  75.3495738   8.1661928  40.4514229  74.2242679   8.1111548  41.4626287
  73.0913347  10.6752688  32.0774302  72.9664487   9.8742428  31.5685247
  73.7492438  11.1698881  31.5888272  64.7121516  -2.9698580  31.2551442
  63.9908101  -2.3562612  31.1158915  65.5014771  -2.4340815  31.1768088
  75.1548256   8.4761708  33.7053852  74.2078591   8.3567059  33.6332179
  75.5031029   7.5884206  33.7880113  72.1594689   8.2714424  29.9058204
  72.0119651   7.3431131  30.0865774  72.9848183   8.2934515  29.4215279
  75.7628811   9.0942983  30.9923077  76.6875358   8.8885844  30.8547528
  75.5944114   8.8459384  31.9012418  66.8955425  -0.9162025  31.4761066
  66.7500005  -0.6021722  32.3685348  66.4180628  -0.2977125  30.9231965
  70.6077938  -3.4922137  33.5695083  70.3495716  -2.5705066  33.5679413
  70.0762979  -3.8891702  34.2595547  75.5524127   9.6128650  26.3485168
  75.7261005   9.0475073  25.5959021  76.0453018  10.4129545  26.1664658
  61.3701087   1.6243319  34.4148727  60.8254555   2.4003127  34.5469002
  62.2480437   1.9714124  34.2567849  81.4063518   2.3765073  27.9675468
  81.8494664   1.6272398  27.5694591  80.5290029   2.3675210  27.5849200
  76.5399300   8.9295415  23.4482067  77.2350204   9.5502107  23.6669381
  76.8822450   8.0790766  23.7234445  62.1567109   0.7513216  37.3078884
  61.4148845   0.8995851  37.8943515  61.8359853   1.0121481  36.4445634
  78.4390723   6.3795120  24.9769397  78.9642047   6.7182393  24.2518718
  78.3513075   5.4442136  24.7932532  70.1010771  10.2929194  37.1059274
  70.4097898  10.0478341  37.9781974  70.8986253  10.4975832  36.6178144
  70.1231383  12.4467103  29.3364651  69.6836374  11.9543482  30.0297507
  70.8739500  11.9040071  29.0956726  62.6023722   8.6378644  29.3389279
  63.4281742   8.3382416  28.9587922  62.2517774   7.8686267  29.7879067
  67.5705256   7.9905113  31.4086952  66.9485265   7.3275818  31.1089180
  68.2410122   8.0166244  30.7260600  60.8032327   6.5564971  30.2978212
  59.9664236   6.1287145  30.1162214  60.7755973   6.7497414  31.2349004
  67.6429783  -3.5313099  41.0019458  67.6917939  -2.6550977  40.6197228
  68.1852297  -4.0735706  40.4291102  78.1284629   7.0128024  40.2820595
  77.3380172   6.9952163  39.7425095  77.8917983   7.5516318  41.0369632
  78.2482504   3.8620490  37.5953324  78.2980509   3.6970498  38.5368847
  78.1396427   2.9947749  37.2051205  67.1318762   6.5409036  24.8845413
  67.2806883   7.2244500  24.2312086  67.9385206   6.5214126  25.3994869
  75.5386266  -0.1548582  38.9112631  76.4396129  -0.2942117  38.6196628
  75.6134241   0.0105873  39.8510808  69.8729072  -2.7781727  37.7565817
  69.0032381  -2.4848161  37.4848406  70.1088552  -2.1941282  38.4773081
  79.7500701   6.2817432  37.8395346  79.4585509   6.6447412  38.6758806
  79.1372832   5.5684440  37.6608678  80.9496383   3.8470311  30.3597916
  81.7843274   4.2860116  30.5235476  81.0855512   3.3708965  29.5406162
  77.9987889   1.4050046  36.3075404  78.4742010   1.5977693  35.4994255
  77.0753454   1.4609232  36.0618787  70.6314168   9.0357166  22.3557160
  70.0588135   9.6547353  21.9027632  71.2046962   9.5856528  22.8897082
  73.8511428   9.3194316  23.4865743  74.7842101   9.2539878  23.6898618
  73.7634641  10.1550583  23.0280275  76.4799444   8.6360187  20.4469690
  76.4013076   8.3020050  21.3405448  77.3009111   9.1281955  20.4461162
  79.1777636   1.5021926  33.6546009  79.1453956   0.5637927  33.8405693
  79.7878259   1.5805963  32.9211834  84.9954186   2.5637933  32.7952046
  85.7257574   2.3023221  33.3559749  84.3861131   1.8266655  32.8354114
  83.0769483   0.7045796  33.3926497  82.3502646   0.5701760  32.7842988
  82.6616770   1.0122624  34.1983215  70.8999659   4.4235725  41.1573870
  71.8202669   4.6014324  41.3513916  70.8649242   3.4791771  41.0053569
  63.8961732   2.3336760  33.7996651  64.1147741   3.2653868  33.8184685
  64.3087505   1.9744734  34.5851455  68.7689597  -2.0930034  43.1899400
  68.6686324  -1.1435677  43.1211491  68.5511139  -2.4211795  42.3175470
  59.9870084   3.2377230  32.0520266  59.2933555   2.8231183  31.5390220
  60.7343075   3.2797767  31.4553685  68.6320867   1.3367104  42.0064462
  68.1487949   2.1367465  42.2128351  68.7181806   1.3475049  41.0531906
  61.9006827   3.1695484  29.9286281  61.8777515   3.2683171  28.9768164
  62.2107463   4.0160635  30.2503447  64.5594204   5.2271639  34.0432895
  65.5137458   5.1955582  33.9762827  64.3606728   4.7662263  34.8583121
  65.1493587   3.7972755  36.6103693  65.9686476   4.2916834  36.6338530
  65.4230394   2.8804723  36.5821260  62.9144433  10.7691259  31.0603093
  62.7798901  10.0091660  30.4941091  62.4976496  11.4932159  30.5931882
  74.8801207   1.7038043  26.1881939  74.8236408   2.1606595  25.3489571
  75.4329549   0.9428728  26.0104781  66.0713559  11.6660576  31.2721536
  65.9545943  12.6106008  31.1700226  65.2506005  11.3634137  31.6607335
  75.9590094   6.3910711  22.1178129  76.7935698   5.9591910  21.9355603
  75.7974437   6.2192725  23.0455023  75.6135986   2.8942825  23.4834468
  75.5584790   2.7287096  22.5422912  74.9882041   3.6018858  23.6396658
  60.4028501  -1.8689111  37.3095890  61.0487364  -2.3790157  37.7983115
  60.1945652  -1.1320429  37.8839315  72.9281893   5.1991737  42.8088031
  73.7973053   5.3732389  42.4474666  72.4488645   6.0186153  42.6863760
  67.0968073  12.3188838  34.4877464  67.9995320  12.3512448  34.8043959
  66.8705443  11.3889289  34.5023800  68.8521675  11.0719824  31.1487543
  67.9017306  11.0721686  31.0351915  69.1554161  10.3252559  30.6323577
  64.7425992  -4.7221494  41.4070904  65.6057453  -5.0784689  41.6174229
  64.1691402  -5.0607599  42.0946309  84.5874369  16.9080363  32.2133305
  85.2252779  16.7887110  31.5096645  84.4695212  17.8561206  32.2721257
  81.3964075  16.8607791  32.1494830  81.0582587  16.7448855  31.2615365
  82.2653843  16.4598956  32.1295836  77.2550891  18.7143267  28.1391721
  76.6915756  18.6233204  27.3708009  77.1403286  17.8943171  28.6194213
  81.8783858  18.0142642  38.1081035  81.8672499  17.6195441  37.2361539
  82.0404498  17.2808715  38.7014807  74.8015323  20.2094459  30.9775941
  75.5936615  19.8685283  30.5622241  75.0411973  20.3189434  31.8978095
  82.8350449  22.3814235  23.4506186  82.1838429  22.9668315  23.0640200
  83.6294812  22.9120430  23.5101223  76.7606077  19.4703372  23.8493320
  77.5336953  18.9232359  23.7106196  77.1131475  20.3347621  24.0607782
  78.5991119  20.7979754  37.0560219  78.3080985  21.7025385  36.9406886
  79.2348104  20.8396282  37.7704289  79.5247326  18.1756603  33.6461579
  80.1210898  17.9512625  32.9318542  79.5822298  17.4341348  34.2487027
  79.0972354  15.6296038  21.4811770  79.3497875  15.1077559  20.7195233
  78.1596914  15.4662183  21.5838454  84.1415637  14.6331816  29.2886513
  84.9278726  14.2151240  28.9376930  84.4054342  15.5377909  29.4568162
  84.3125715  20.0704667  23.9875170  83.6771548  20.1439293  24.6996075
  83.9823121  20.6598266  23.3094249  89.5424064  14.5707050  30.1919492
  90.2749236  14.0006266  30.4257321  88.7863420  14.1828650  30.6325997
  78.8168643  17.5324144  23.6836145  78.7004901  16.8569047  24.3517229
  78.9270903  17.0456518  22.8668298  81.1600184  16.9934291  27.3882834
  80.7958391  16.4664912  28.0995756  82.0167300  16.6032760  27.2149320
  87.0649485   8.2828624  34.6514100  86.7332810   9.1524035  34.4275315
  86.4695098   7.9664908  35.3308131  80.8005671  12.0224191  22.3844183
  80.9680073  12.8904427  22.7514654  80.6102840  12.1851472  21.4605472
  83.5581004  20.4841170  34.0510013  83.2581727  21.3866208  33.9425820
  83.2132064  20.2173353  34.9031166  77.0093486  16.9354967  30.0846718
  76.0843982  16.8031181  30.2924409  77.2577899  17.7149186  30.5816660
  86.9578148  13.0023710  31.7307450  86.0495025  12.9339118  31.4366211
  86.9065744  13.4795655  32.5589276  80.7794892  14.4781848  23.3690850
  80.6594517  14.9238899  24.2076330  80.0847480  14.8267166  22.8104388
  74.3702297  16.5788240  30.9190507  74.4994678  16.8322719  31.8329918
  73.6899748  17.1715948  30.5995162  78.5401784  27.2485490  27.0180981
  78.4625814  28.1993315  27.0969461  77.9363428  26.9031363  27.6755907
  81.0319014  14.4213355  39.6742348  80.2552348  14.9807276  39.6645212
  81.6709577  14.9070138  40.1957218  88.8239794  11.2040148  33.5085324
  88.1814175  11.4972681  32.8625119  88.3194723  11.0893069  34.3138521
  86.4779958  14.9503321  24.1971184  87.3897814  15.1830708  24.0218881
  85.9689605  15.5340366  23.6346262  79.2865386  17.2298809  39.2360315
  80.0280071  17.7683853  38.9595138  78.5802372  17.8565098  39.3931867
  84.7620726  19.3727949  37.8332476  85.1704082  18.9310360  37.0887109
  84.0397987  18.7980577  38.0866669  81.1151796  14.3100556  35.2066033
  81.9612991  14.7339970  35.3500682  81.0550433  13.6534180  35.9004596
  85.0849540  19.9329140  31.5884765  84.4558403  20.0974854  30.8860833
  84.6975203  20.3470749  32.3595729  88.9638772  20.8683578  28.9429129
  88.2789810  21.2482479  28.3926162  89.0482622  21.4778904  29.6761077
  84.2651241  11.9704924  36.8647207  84.0212173  12.7246985  36.3281483
  84.5411172  12.3490272  37.6994454  86.2189704  18.5143537  35.5424472
  86.4306599  19.1575297  34.8658853  86.1719452  17.6805853  35.0746402
  83.8215933  11.1261357  32.4461045  82.9600412  11.4242611  32.7377782
  83.8478368  11.3431756  31.5142077  80.6377502  19.6703548  28.8534850
  81.1015848  19.9491251  28.0639473  80.3734300  18.7686993  28.6707941
  77.5301583  19.2175030  31.7914613  78.1002940  19.6462298  31.1532098
  78.1209695  18.9357614  32.4898799  79.5746388  15.7926700  25.6624415
  80.2770432  16.2447744  26.1298342  79.2427017  15.1510519  26.2904308
  78.0226750  14.3838457  40.0375625  77.3925410  15.0654738  40.2711022
  77.9162838  14.2721539  39.0928763  73.3171722  14.0510253  30.9641549
  72.5270776  14.3067782  30.4881660  73.8082970  14.8658591  31.0693589
  87.3335532  21.3915492  33.7146830  88.1552976  20.9895679  33.4329511
  87.3297935  21.2883726  34.6662946  75.2686468  14.4154832  27.9225026
  74.4717631  14.5273527  28.4408521  75.0412060  14.7541484  27.0565916
  81.0992135  20.9399535  35.8707540  81.1636568  21.4019943  36.7065712
  80.3903059  20.3096900  35.9989850  71.6009425  14.3040743  33.3956540
  71.8517464  15.1887753  33.6614116  72.1368974  14.1245345  32.6231632
  95.4241525  17.7354241  30.0631801  94.6705233  17.1661639  29.9075806
  95.5589066  17.7016905  31.0102436  80.8140153  22.6067643  25.7386521
  80.6785828  23.4519179  26.1671368  81.3549965  22.8086921  24.9752454
  77.3007493   8.6859223  42.4000876  76.9074438   8.1325421  43.0748520
  78.1173633   8.9969801  42.7907393  74.2669550  20.1243081  26.3114446
  74.7794071  20.9186331  26.4620010  74.9192263  19.4269371  26.2448047
  76.0764435  23.2408837  28.3937199  76.2531063  24.1626802  28.2058183
  76.8721269  22.9267257  28.8231579  80.2175454  10.1017102  39.9921132
  80.9585167  10.7024255  39.9125595  80.4493376   9.3594740  39.4339175
  75.3616792  15.2873469  38.2699362  75.2470307  14.3858726  38.5706461
  74.5061309  15.5337166  37.9184179  82.4408629  23.2291209  39.8686863
  81.9972484  22.4427588  39.5507767  83.1025843  23.4170360  39.2030753
  77.1995751  24.7587011  34.3947541  77.7503176  24.6304074  33.6224535
  76.3607226  25.0581900  34.0442434  84.5389867  23.5094009  37.8968264
  84.5208343  24.3302890  37.4048533  85.4609787  23.3848085  38.1218405
  80.9962922  21.0238139  38.7391772  81.5291258  20.2626427  38.5091080
  80.4677003  20.7311791  39.4815927  84.1632617   6.1298205  34.2685414
  83.8196886   7.0199847  34.1924525  84.5311579   5.9399862  33.4054999
  72.2318467  18.4531735  27.0874016  73.0693689  18.8628744  26.8707724
  72.4096735  17.5131177  27.0574210  84.1282899  16.1206816  22.7757849
  83.6129523  16.8911421  23.0146237  83.8560208  15.4471952  23.3990911
  81.7130010  10.9656517  27.8343088  80.8571607  10.5763367  27.6548726
  82.1256962  11.0448478  26.9742873  83.2429157   8.5002860  32.2334647
  82.7393953   8.4632995  31.4202453  83.5359764   9.4095603  32.2931304
  79.4872043   8.5841590  31.2400829  80.3525040   8.3884398  30.8806719
  79.5549552   8.3551942  32.1670186  89.1017173  18.8739171  24.7111023
  88.3246616  18.5350330  24.2666185  89.7808654  18.8791794  24.0365988
  83.9169202  13.9933908  24.6017630  83.6119338  14.3080057  25.4527774
  84.8699645  14.0715328  24.6444963  82.3615634  20.1524131  26.2510584
  81.8336996  19.4176891  25.9383822  81.8603137  20.9298808  26.0050553
  87.3408480  18.3473152  31.3677631  86.6832155  19.0372413  31.4557759
  88.1448880  18.7369584  31.7111617  77.0934362  10.8143798  28.6117196
  77.6678114  10.5918979  27.8790389  77.6805344  10.8832492  29.3645797
  86.1513939  16.7017525  29.4181572  86.6645821  17.3347516  29.9203282
  86.8015163  16.1018720  29.0524932  77.4203949  12.8448259  22.6313081
  76.5841261  13.1822945  22.9522356  77.2808719  12.7097238  21.6940218
  79.3957030   7.6885047  27.3392265  78.7421442   7.3734064  26.7148880
  79.3537504   7.0660787  28.0652088  80.5068234  17.9704342  19.2545557
  79.5995296  17.7393595  19.4536706  81.0039266  17.1741961  19.4419539
  83.4136313  26.6801849  22.1742244  82.7398012  26.9833546  22.7827201
  83.8002135  27.4830929  21.8247701  82.6294770  14.1766980  31.6639913
  81.7117331  14.3981927  31.5061601  83.0454914  14.2513291  30.8051620
  83.4129818  15.5758396  26.7942593  84.1601637  16.0879793  26.4849715
  83.6821407  15.2542449  27.6546987  81.6856468  18.0716937  23.7769547
  80.7767687  17.7875969  23.8742017  81.7151552  18.4916015  22.9172854
  86.9175735  21.6823526  27.5460715  86.4638062  20.8414436  27.6025905
  86.2869702  22.3184924  27.8835495  85.8608655  12.6115512  28.7761382
  85.1231412  12.0992898  29.1071625  86.1135428  12.1715894  27.9644659
  85.3608675  23.5200023  28.4810533  85.6531649  24.0805080  27.7622899
  85.8707295  23.8128584  29.2363692  85.9620282   5.3891764  29.3703152
  86.2679159   4.5289127  29.0829067  86.6872887   5.9809384  29.1702146
  72.2544638  15.7922451  27.7584750  72.0569038  15.1991811  27.0335816
  71.6991302  15.4874661  28.4760688  80.2341362  15.6845557  29.8779343
  80.2889972  14.7319394  29.8021819  79.4232564  15.8404996  30.3620641
  81.3832556  19.6125680  21.1157626  80.9451986  18.8961539  20.6563263
  82.1242997  19.8401795  20.5542717  78.1733722  14.3022617  27.6369722
  77.3601587  14.6016787  28.0434914  78.6692716  13.9078306  28.3544204
  80.3242300  24.2980374  29.5703986  80.2818479  24.5241220  28.6412518
  81.2404999  24.0643748  29.7189788  83.7707934  14.7664441  36.4684616
  84.1257321  14.9935914  37.3279081  84.4180065  15.0982818  35.8461871
  89.5005670  17.8882877  27.1733945  89.3623569  18.0784473  26.2455134
  89.1441889  18.6502260  27.6301996  77.6647797  11.8740972  33.2530957
  78.3047176  11.7329731  32.5553920  76.8325327  11.5875486  32.8769559
  89.5275050  19.9559404  32.1845216  89.9611557  19.8634693  33.0328270
  90.2406631  19.9316905  31.5465232  78.4408101  21.1743403  29.3665949
  79.2348699  20.6793723  29.1648524  77.7299793  20.6461266  29.0033655
  83.2602945  23.5561498  33.7178317  83.3139967  24.1252435  34.4856033
  82.3917726  23.7263383  33.3532354  74.7490864  15.3186485  25.4425702
  73.8188452  15.2570940  25.6595664  74.8448336  14.7962437  24.6462343
  74.6676413  11.8441297  28.0303943  74.9283230  12.7586631  27.9213104
  75.4893585  11.3765740  28.1800556  76.1401338  13.2579055  35.2002768
  76.8124392  13.0496417  34.5515417  75.3131125  13.0601141  34.7608000
  90.3890600  19.9983105  34.7178101  90.5826490  20.9028915  34.9637376
  90.2891218  19.5390524  35.5516687  82.0426910   9.8840995  37.2168429
  81.3954825  10.5830945  37.1232905  82.8127926  10.3177139  37.5844677
  85.4505708  20.1489848  40.2918982  85.2991215  19.9200399  39.3749066
  85.4410388  21.1060449  40.3050327  82.2191045  17.7221760  35.2765249
  83.1483105  17.8732920  35.1034216  81.7982075  17.8105781  34.4213895
  81.0179377  21.7472425  33.0463786  80.8790462  21.3791209  33.9189724
  80.2293973  22.2620064  32.8747744  81.6127528  26.8481521  24.3889323
  81.7879284  26.3769564  25.2034945  80.9260317  27.4747287  24.6170583
  82.5684592  21.1254027  30.4352624  82.2334424  21.0854797  31.3310274
  82.0688537  20.4598743  29.9623034  76.5428836  16.5321658  35.9605205
  76.4048634  15.8001896  36.5616744  77.4533759  16.4430558  35.6789393
  85.5043783  18.4710062  20.7089684  84.8872954  17.7456890  20.6122736
  85.0360272  19.2319422  20.3656758  79.1711136  16.2441617  35.4488885
  79.8810755  15.6034809  35.4075503  79.1280444  16.4954512  36.3715066
  87.1597915  23.1808970  38.3695464  87.1010461  22.4968190  37.7026047
  87.5617433  23.9227960  37.9176090  77.8840070  13.2306835  37.2684524
  77.3477427  12.7797573  37.9206121  77.2956779  13.3652744  36.5254989
  76.1788614  29.9970884  31.1629183  76.4185212  30.6289408  31.8408201
  75.3357810  29.6458924  31.4494542  77.2942329  12.6895486  19.8310988
  76.4171796  12.5684287  19.4673235  77.7700082  11.8981564  19.5789877
  87.1615322  21.1448554  36.6009444  86.2742101  20.8074476  36.7235843
  87.7313873  20.4131585  36.8378209  68.8144469  17.4772646  29.9252495
  69.5015509  17.1634376  29.3373510  68.6592598  18.3814010  29.6519746
  73.6179192  12.3662842  34.3537519  73.5337380  11.7588512  33.6187929
  72.7961898  12.8571861  34.3547015  80.6916476  25.8050006  33.5670687
  80.6186647  26.6104978  34.0789991  80.2493869  26.0041972  32.7418708
  80.4806255  25.0421776  27.0773508  79.6973777  25.5843457  27.1711733
  81.1799000  25.5595756  27.4767750  83.7902905  10.8516406  29.7207714
  84.2871605  10.0986368  29.4008784  83.0189887  10.8880723  29.1550923
  91.6432663  16.5556771  31.3626005  91.6322539  17.4381487  30.9919938
  90.7750042  16.2028322  31.1680542  83.1515159  25.7036840  35.7228846
  83.8643131  26.3384305  35.6504747  82.6605188  25.8000706  34.9068847
  84.8732686  19.6088093  27.2946137  83.9388965  19.7289556  27.1250842
  85.0509355  18.7060560  27.0306147  80.3737874  12.9933789  29.4479398
  80.0035662  12.4404829  30.1360304  80.8696967  12.3891922  28.8954398
  88.2605237  15.4505412  27.8296171  88.7265690  16.2833404  27.7556474
  88.7112738  14.9850394  28.5341430  78.2027073  23.4531284  36.5434416
  78.9036532  24.0867767  36.6963811  77.7322188  23.7946015  35.7830056
  86.3281469  21.7949234  24.8282323  86.6041312  21.6805828  25.7376197
  85.4585967  21.3966719  24.7894496  86.2321900   7.8185999  31.8687073
  85.3184980   8.0490226  32.0369280  86.6615002   7.9024444  32.7201105
  86.0028359  16.0075891  34.3686967  85.3499809  16.2551799  33.7139419
  86.3808739  15.1940030  34.0349444  82.9635533  26.0435585  28.4715137
  83.1457927  25.2257241  28.9342889  83.7868519  26.2603277  28.0340027
  83.2977698  24.9703770  25.7330185  83.8265464  24.4596224  25.1200348
  83.5605918  24.6546300  26.5975718  82.0515932  16.7495702  40.8553004
  81.3756569  16.6489832  41.5255379  82.8743566  16.5934916  41.3189001
  73.7994791  22.9867639  33.4765519  74.3848228  22.2411327  33.6093423
  73.6019629  23.2971596  34.3602183  76.6533446  26.0218886  28.4927961
  75.9843821  26.5065014  28.0092001  76.5146316  26.2688107  29.4071340
  68.3912445  15.5573239  32.1969962  68.4296545  15.0236830  32.9907080
  67.8852738  15.0308445  31.5780939  80.7938715  28.0562630  35.0910620
  81.3457023  28.2194251  35.8559705  81.1344908  28.6467068  34.4190645
  75.7703208  10.4037780  35.6932504  75.8344534  11.2652611  35.2809902
  75.7070328   9.7911781  34.9604863  75.2455480  12.4760912  39.3405539
  75.8727519  12.0937990  39.9543063  74.3883399  12.2575114  39.7061231
  85.6449589  22.8823887  40.9459274  86.1889493  23.4953846  40.4514229
  85.0636434  23.4403466  41.4626287  72.0221023  14.2837341  25.2723894
  72.3174464  13.3748020  25.2190947  71.1209059  14.2625081  24.9504896
  83.9307102  26.0044605  32.0774302  83.8058241  25.2034345  31.5685247
  84.5886193  26.4990799  31.5888272  75.5515270  12.3593338  31.2551442
  74.8301856  12.9729306  31.1158915  76.3408526  12.8951103  31.1768088
  85.9942010  23.8053626  33.7053852  85.0472346  23.6858977  33.6332179
  86.3424783  22.9176124  33.7880113  78.3541584   9.6947764  37.5292094
  78.8775985   9.9410061  38.2918403  78.1353917  10.5267799  37.1095231
  73.7508865  11.9651439  25.3963219  73.4221571  11.0848818  25.2138325
  74.1048235  11.9099108  26.2839608  82.9988444  23.6006342  29.9058204
  82.8513406  22.6723049  30.0865774  83.8241937  23.6226432  29.4215279
  76.8650688  12.2524409  25.7638696  77.2046760  12.7810330  25.0417305
  77.3122808  12.5904815  26.5397263  86.6022565  24.4234900  30.9923077
  87.5269113  24.2177762  30.8547528  86.4337869  24.1751302  31.9012418
  79.5594129  10.6361460  35.2141764  79.2190949   9.8369273  35.6162444
  78.8533135  10.9363170  34.6418598  80.2110600   7.7210772  33.6669087
  81.0336670   7.2471250  33.5447978  80.4548664   8.5001256  34.1667774
  78.8518835  10.7499030  23.9631989  79.5727197  11.1280283  23.4595706
  78.2284139  11.4687907  24.0666967  82.9949958  11.4544179  24.8990321
  83.2113572  12.3368817  24.5979150  82.5144025  11.0630393  24.1695963
  77.7349179  14.4129893  31.4761066  77.5893760  14.7270196  32.3685348
  77.2574383  15.0314793  30.9231965  79.5945562  11.4032441  31.5241956
  79.5807131  10.5073534  31.1874254  80.3117990  11.4103104  32.1580242
  81.4471693  11.8369781  33.5695083  81.1889471  12.7586851  33.5679413
  80.9156733  11.4400215  34.2595547  86.3917882  24.9420568  26.3485168
  86.5654759  24.3766990  25.5959021  86.8846773  25.7421463  26.1664658
  72.2094841  16.9535237  34.4148727  71.6648309  17.7295045  34.5469002
  73.0874191  17.3006041  34.2567849  78.9982458  10.2846821  26.7929526
  79.1198369   9.3563467  26.9920413  78.7084500  10.2985507  25.8807841
  81.8673648   7.9701731  29.9296246  81.8895345   8.0341064  28.9748225
  82.2841707   7.1306240  30.1236752  92.2457273  17.7056991  27.9675468
  92.6888419  16.9564316  27.5694591  91.3683783  17.6967127  27.5849200
  87.3793054  24.2587332  23.4482067  88.0743959  24.8794025  23.6669381
  87.7216204  23.4082684  23.7234445  72.9960863  16.0805133  37.3078884
  72.2542599  16.2287769  37.8943515  72.6753608  16.3413399  36.4445634
  89.2784477  21.7087038  24.9769397  89.8035801  22.0474311  24.2518718
  89.1906830  20.7734053  24.7932532  80.9404526  25.6221112  37.1059274
  81.2491652  25.3770258  37.9781974  81.7380008  25.8267750  36.6178144
  80.9625138  27.7759021  29.3364651  80.5230128  27.2835400  30.0297507
  81.7133255  27.2331989  29.0956726  73.4417477  23.9670562  29.3389279
  74.2675497  23.6674334  28.9587922  73.0911529  23.1978184  29.7879067
  78.4099010  23.3197030  31.4086952  77.7879019  22.6567735  31.1089180
  79.0803877  23.3458162  30.7260600  71.6426082  21.8856888  30.2978212
  70.8057990  21.4579063  30.1162214  71.6149727  22.0789332  31.2349004
  78.4823538  11.7978818  41.0019458  78.5311693  12.6740941  40.6197228
  79.0246052  11.2556211  40.4291102  88.9678383  22.3419942  40.2820595
  88.1773927  22.3244080  39.7425095  88.7311738  22.8808235  41.0369632
  89.0876258  19.1912408  37.5953324  89.1374263  19.0262415  38.5368847
  88.9790182  18.3239667  37.2051205  77.9712517  21.8700954  24.8845413
  78.1200637  22.5536418  24.2312086  78.7778960  21.8506044  25.3994869
  86.3780021  15.1743336  38.9112631  87.2789883  15.0349801  38.6196628
  86.4527995  15.3397791  39.8510808  80.7122826  12.5510191  37.7565817
  79.8426135  12.8443757  37.4848406  80.9482306  13.1350636  38.4773081
  90.5894455  21.6109349  37.8395346  90.2979263  21.9739330  38.6758806
  89.9766586  20.8976358  37.6608678  91.7890137  19.1762229  30.3597916
  92.6237029  19.6152033  30.5235476  91.9249266  18.7000882  29.5406162
  88.8381643  16.7341964  36.3075404  89.3135765  16.9269610  35.4994255
  87.9147209  16.7901150  36.0618787  75.7265150  17.8966131  25.8906482
  75.4811192  16.9928461  26.0886692  75.8961065  17.8983282  24.9485960
  83.4161860   8.7689808  35.2731237  83.9343804   9.5050835  34.9477726
  83.0616993   9.0753801  36.1077997  74.9960798  13.6294489  23.3892643
  74.3030042  13.7038844  22.7332679  74.7512549  12.8654832  23.9114160
  83.6674454   5.1890090  30.7932134  83.9476208   4.5213279  31.4192561
  84.4525061   5.3819186  30.2806798  81.4707923  24.3649084  22.3557160
  80.8981890  24.9839271  21.9027632  82.0440716  24.9148446  22.8897082
  87.5383312  13.6107724  34.5403709  88.4900735  13.7105822  34.5615933
  87.3686763  12.8185993  35.0501793  85.5597692  10.6963307  34.7263110
  84.9647624  10.9768320  34.0309599  85.2747389  11.1857208  35.4979851
  84.6905182  24.6486234  23.4865743  85.6235855  24.5831796  23.6898618
  84.6028395  25.4842501  23.0280275  87.3193199  23.9652104  20.4469690
  87.2406831  23.6311968  21.3405448  88.1402866  24.4573872  20.4461162
  90.0171390  16.8313844  33.6546009  89.9847710  15.8929845  33.8405693
  90.6272014  16.9097881  32.9211834  81.8554721  15.7009897  19.6973213
  82.8013826  15.5716105  19.7661631  81.4768966  14.9624559  20.1742641
  90.1665879  13.6224887  33.7004292  89.6504927  12.8383344  33.5134221
  91.0505827  13.2943604  33.8650811  87.8276606   7.3665903  29.6600105
  87.6301427   7.0580991  30.5443437  88.4376311   8.0927542  29.7898034
  95.8347940  17.8929851  32.7952046  96.5651328  17.6315139  33.3559749
  95.2254885  17.1558573  32.8354114  93.9163237  16.0337713  33.3926497
  93.1896401  15.8993678  32.7842988  93.5010524  16.3414542  34.1983215
  81.7393414  19.7527643  41.1573870  82.6596423  19.9306242  41.3513916
  81.7042997  18.8083688  41.0053569  80.0397638  13.6259873  19.6328098
  79.1329094  13.3292986  19.7090812  80.3173619  13.3289691  18.7662384
  70.9575579  14.9466237  30.0827144  70.6378363  14.0931545  29.7901518
  70.4109007  15.1614815  30.8385112  74.7355486  17.6628678  33.7996651
  74.9541496  18.5945785  33.8184685  75.1481260  17.3036652  34.5851455
  81.6559704   8.1696763  25.7872339  80.8460432   7.8243848  26.1627585
  82.3444121   7.8604307  26.3759951  83.5850252   7.2474810  27.4096636
  84.1381291   7.6670263  28.0686659  83.8220339   6.3210558  27.4519592
  79.6083351  13.2361883  43.1899400  79.5080078  14.1856240  43.1211491
  79.3904893  12.9080122  42.3175470  78.8096423  10.4846808  19.7740077
  79.6715587  10.8101707  20.0335895  78.9946767   9.6978304  19.2613143
  70.8263839  18.5669148  32.0520266  70.1327310  18.1523101  31.5390220
  71.5736830  18.6089685  31.4553685  86.9629059   9.3575335  26.9175300
  86.3827728  10.0160139  26.5353353  86.6964992   8.5352679  26.5062718
  85.4132626   8.7580393  29.1196621  85.9132404   8.8696927  28.3110939
  86.0568234   8.4541445  29.7597429  79.4714621  16.6659022  42.0064462
  78.9881703  17.4659382  42.2128351  79.5575561  16.6766967  41.0531906
  72.7400581  18.4987402  29.9286281  72.7171269  18.5975089  28.9768164
  73.0501218  19.3452553  30.2503447  75.3987959  20.5563557  34.0432895
  76.3531213  20.5247499  33.9762827  75.2000483  20.0954181  34.8583121
  75.9887341  19.1264673  36.6103693  76.8080230  19.6208752  36.6338530
  76.2624149  18.2096641  36.5821260  85.7453937  11.5175425  25.9731648
  84.8579792  11.8025076  25.7551843  86.1607926  11.3569189  25.1258925
  89.0968473  11.5421946  29.6885988  89.8728864  12.0318399  29.9610605
  88.3716608  11.9680000  30.1457857  91.5341032  12.2549565  30.7459928
  92.1285523  12.0145301  30.0353237  91.6067616  11.5356696  31.3733465
  73.7538188  26.0983176  31.0603093  73.6192656  25.3383577  30.4941091
  73.3370250  26.8224076  30.5931882  84.8897151  21.2820100  20.0679668
  85.5933001  21.4870102  20.6837324  84.1659800  21.8496862  20.3328752
  85.7194961  17.0329961  26.1881939  85.6630162  17.4898513  25.3489571
  86.2723303  16.2720646  26.0104781  89.5299767  12.8219693  27.0132058
  89.2736701  12.4216329  27.8440266  88.9052635  13.5363487  26.8882197
  93.8412105  15.5615766  29.5203350  93.2811663  15.6308956  30.2934912
  93.2355608  15.3856751  28.8002846  76.9107314  26.9952493  31.2721536
  76.7939698  27.9397926  31.1700226  76.0899760  26.6926055  31.6607335
  86.7983848  21.7202629  22.1178129  87.6329452  21.2883828  21.9355603
  86.6368191  21.5484643  23.0455023  86.4529740  18.2234742  23.4834468
  86.3978544  18.0579014  22.5422912  85.8275796  18.9310775  23.6396658
  71.2422255  13.4602807  37.3095890  71.8881119  12.9501761  37.7983115
  71.0339406  14.1971488  37.8839315  83.7675648  20.5283654  42.8088031
  84.6366807  20.7024307  42.4474666  83.2882399  21.3478071  42.6863760
  79.7625866   7.7242851  23.0619786  79.7504536   8.6684691  23.2188057
  80.6549288   7.5412997  22.7679247  77.9361828  27.6480755  34.4877464
  78.8389074  27.6804366  34.8043959  77.7099198  26.7181206  34.5023800
  79.6915430  26.4011742  31.1487543  78.7411061  26.4013603  31.0351915
  79.9947916  25.6544476  30.6323577  83.5777985   4.3185628  27.3165723
  82.8110381   3.7644115  27.4622405  83.9888690   4.3907497  28.1779875
  75.5819746  10.6070424  41.4070904  76.4451208  10.2507229  41.6174229
  75.0085157  10.2684319  42.0946309  95.4268123  32.2372280  32.2133305
  96.0646533  32.1179028  31.5096645  95.3088966  33.1853124  32.2721257
  88.0944645  34.0435185  28.1391721  87.5309510  33.9525122  27.3708009
  87.9797040  33.2235089  28.6194213  85.6409077  35.5386376  30.9775941
  86.4330369  35.1977201  30.5622241  85.8805727  35.6481351  31.8978095
  93.6744204  37.7106152  23.4506186  93.0232184  38.2960233  23.0640200
  94.4688567  38.2412347  23.5101223  87.5999831  34.7995290  23.8493320
  88.3730707  34.2524277  23.7106196  87.9525230  35.6639539  24.0607782
  89.9366109  30.9587956  21.4811770  90.1891630  30.4369477  20.7195233
  88.9990668  30.7954101  21.5838454  94.9809392  29.9623734  29.2886513
  95.7672481  29.5443157  28.9376930  95.2448096  30.8669826  29.4568162
  95.1519469  35.3996584  23.9875170  94.5165302  35.4731211  24.6996075
  94.8216876  35.9890183  23.3094249 100.3817819  29.8998967  30.1919492
 101.1142991  29.3298184  30.4257321  99.6257175  29.5120568  30.6325997
  89.6562398  32.8616062  23.6836145  89.5398656  32.1860965  24.3517229
  89.7664658  32.3748436  22.8668298  91.9993939  32.3226209  27.3882834
  91.6352146  31.7956830  28.0995756  92.8561055  31.9324678  27.2149320
  97.9043239  23.6120541  34.6514100  97.5726564  24.4815952  34.4275315
  97.3088853  23.2956825  35.3308131  91.6399426  27.3516108  22.3844183
  91.8073828  28.2196345  22.7514654  91.4496595  27.5143390  21.4605472
  87.8487240  32.2646884  30.0846718  86.9237737  32.1323098  30.2924409
  88.0971653  33.0441103  30.5816660  97.7971903  28.3315628  31.7307450
  96.8888780  28.2631036  31.4366211  97.7459498  28.8087572  32.5589276
  91.6188646  29.8073766  23.3690850  91.4988272  30.2530817  24.2076330
  90.9241235  30.1559084  22.8104388  85.2096051  31.9080158  30.9190507
  85.3388432  32.1614637  31.8329918  84.5293503  32.5007866  30.5995162
  89.3795539  42.5777408  27.0180981  89.3019568  43.5285233  27.0969461
  88.7757182  42.2323280  27.6755907  99.6633549  26.5332066  33.5085324
  99.0207929  26.8264599  32.8625119  99.1588477  26.4184986  34.3138521
  97.3173713  30.2795239  24.1971184  98.2291569  30.5122626  24.0218881
  96.8083360  30.8632283  23.6346262  94.6609687  26.4553275  32.4461045
  93.7994166  26.7534529  32.7377782  94.6872122  26.6723674  31.5142077
  91.4771257  34.9995466  28.8534850  91.9409602  35.2783169  28.0639473
  91.2128055  34.0978910  28.6707941  90.4140143  31.1218618  25.6624415
  91.1164186  31.5739662  26.1298342  90.0820771  30.4802437  26.2904308
  84.1565477  29.3802171  30.9641549  83.3664531  29.6359699  30.4881660
  84.6476724  30.1950509  31.0693589  86.1080222  29.7446750  27.9225026
  85.3111385  29.8565444  28.4408521  85.8805814  30.0833402  27.0565916
  82.4403180  29.6332661  33.3956540  82.6911218  30.5179671  33.6614116
  82.9762728  29.4537263  32.6231632  91.6533907  37.9359561  25.7386521
  91.5179582  38.7811096  26.1671368  92.1943720  38.1378838  24.9752454
  88.1401247  24.0151141  42.4000876  87.7468193  23.4617339  43.0748520
  88.9567387  24.3261719  42.7907393  85.1063305  35.4534999  26.3114446
  85.6187825  36.2478249  26.4620010  85.7586018  34.7561289  26.2448047
  86.9158190  38.5700755  28.3937199  87.0924818  39.4918720  28.2058183
  87.7115023  38.2559174  28.8231579  95.0026371  21.4590123  34.2685414
  94.6590640  22.3491764  34.1924525  95.3705334  21.2691780  33.4054999
  83.0712222  33.7823653  27.0874016  83.9087444  34.1920661  26.8707724
  83.2490489  32.8423095  27.0574210  94.9676654  31.4498734  22.7757849
  94.4523277  32.2203338  23.0146237  94.6953962  30.7763870  23.3990911
  92.5523765  26.2948434  27.8343088  91.6965361  25.9055285  27.6548726
  92.9650717  26.3740395  26.9742873  94.0822911  23.8294778  32.2334647
  93.5787707  23.7924913  31.4202453  94.3753518  24.7387520  32.2931304
  90.3265797  23.9133507  31.2400829  91.1918794  23.7176316  30.8806719
  90.3943306  23.6843859  32.1670186  99.9410928  34.2031088  24.7111023
  99.1640371  33.8642248  24.2666185 100.6202409  34.2083711  24.0365988
  94.7562957  29.3225826  24.6017630  94.4513093  29.6371975  25.4527774
  95.7093399  29.4007246  24.6444963  87.9328116  26.1435715  28.6117196
  88.5071868  25.9210897  27.8790389  88.5199099  26.2124410  29.3645797
  88.2597703  28.1740176  22.6313081  87.4235016  28.5114863  22.9522356
  88.1202473  28.0389156  21.6940218  90.2350784  23.0176964  27.3392265
  89.5815196  22.7025981  26.7148880  90.1931258  22.3952705  28.0652088
  91.3461989  33.2996259  19.2545557  90.4389051  33.0685513  19.4536706
  91.8433021  32.5033879  19.4419539  94.2530068  42.0093767  22.1742244
  93.5791767  42.3125463  22.7827201  94.6395890  42.8122847  21.8247701
  93.4688524  29.5058898  31.6639913  92.5511086  29.7273845  31.5061601
  93.8848668  29.5805208  30.8051620  94.2523572  30.9050313  26.7942593
  94.9995391  31.4171711  26.4849715  94.5215162  30.5834366  27.6546987
  92.5250222  33.4008854  23.7769547  91.6161442  33.1167887  23.8742017
  92.5545306  33.8207933  22.9172854  96.7002409  27.9407430  28.7761382
  95.9625166  27.4284816  29.1071625  96.9529183  27.5007811  27.9644659
  96.8014037  20.7183682  29.3703152  97.1072913  19.8581045  29.0829067
  97.5266642  21.3101302  29.1702146  83.0938393  31.1214368  27.7584750
  82.8962793  30.5283729  27.0335816  82.5385057  30.8166578  28.4760688
  91.0735116  31.0137475  29.8779343  91.1283726  30.0611311  29.8021819
  90.2626318  31.1696914  30.3620641  92.2226310  34.9417598  21.1157626
  91.7845740  34.2253457  20.6563263  92.9636751  35.1693713  20.5542717
  89.0127476  29.6314535  27.6369722  88.1995342  29.9308705  28.0434914
  89.5086471  29.2370223  28.3544204  91.1636054  39.6272291  29.5703986
  91.1212233  39.8533138  28.6412518  92.0798753  39.3935666  29.7189788
  88.5041551  27.2032890  33.2530957  89.1440930  27.0621649  32.5553920
  87.6719082  26.9167403  32.8769559  89.2801855  36.5035320  29.3665949
  90.0742454  36.0085641  29.1648524  88.5693547  35.9753184  29.0033655
  85.5884618  30.6478402  25.4425702  84.6582207  30.5862858  25.6595664
  85.6842090  30.1254355  24.6462343  85.5070168  27.1733215  28.0303943
  85.7676985  28.0878548  27.9213104  86.3287340  26.7057658  28.1800556
  86.9795093  28.5870972  35.2002768  87.6518146  28.3788334  34.5515417
  86.1524879  28.3893058  34.7608000  92.8820665  25.2132913  37.2168429
  92.2348580  25.9122863  37.1232905  93.6521680  25.6469057  37.5844677
  92.4521283  42.1773439  24.3889323  92.6273039  41.7061482  25.2034945
  91.7654071  42.8039205  24.6170583  96.3437538  33.8001980  20.7089684
  95.7266708  33.0748808  20.6122736  95.8754026  34.5611340  20.3656758
  88.7233825  28.5598752  37.2684524  88.1871182  28.1089491  37.9206121
  88.1350533  28.6944661  36.5254989  88.1336084  28.0187404  19.8310988
  87.2565550  27.8976205  19.4673235  88.6093837  27.2273482  19.5789877
  79.6538224  32.8064564  29.9252495  80.3409264  32.4926294  29.3373510
  79.4986353  33.7105928  29.6519746  84.4572946  27.6954760  34.3537519
  84.3731135  27.0880430  33.6187929  83.6355652  28.1863778  34.3547015
  91.3200010  40.3713694  27.0773508  90.5367532  40.9135374  27.1711733
  92.0192755  40.8887674  27.4767750  94.6296660  26.1808324  29.7207714
  95.1265359  25.4278286  29.4008784  93.8583641  26.2172640  29.1550923
  91.2131629  28.3225707  29.4479398  90.8429416  27.7696747  30.1360304
  91.7090721  27.7183840  28.8954398  99.0998992  30.7797330  27.8296171
  99.5659444  31.6125322  27.7556474  99.5506492  30.3142312  28.5341430
  97.0715655  23.1477917  31.8687073  96.1578734  23.3782144  32.0369280
  97.5008756  23.2316361  32.7201105  94.1371453  40.2995687  25.7330185
  94.6659219  39.7888142  25.1200348  94.3999672  39.9838218  26.5975718
  87.4927200  41.3510804  28.4927961  86.8237576  41.8356932  28.0092001
  87.3540070  41.5980025  29.4071340  79.2306200  30.8865157  32.1969962
  79.2690299  30.3528748  32.9907080  78.7246493  30.3600362  31.5780939
  86.6096962  25.7329697  35.6932504  86.6738289  26.5944528  35.2809902
  86.5464083  25.1203699  34.9604863  86.0849235  27.8052830  39.3405539
  86.7121274  27.4229907  39.9543063  85.2277154  27.5867032  39.7061231
  82.8614778  29.6129259  25.2723894  83.1568219  28.7039937  25.2190947
  81.9602813  29.5916998  24.9504896  86.3909025  27.6885256  31.2551442
  85.6695610  28.3021223  31.1158915  87.1802280  28.2243020  31.1768088
  89.1935338  25.0239682  37.5292094  89.7169740  25.2701979  38.2918403
  88.9747671  25.8559717  37.1095231  84.5902619  27.2943357  25.3963219
  84.2615325  26.4140736  25.2138325  84.9441990  27.2391025  26.2839608
  87.7044442  27.5816327  25.7638696  88.0440515  28.1102248  25.0417305
  88.1516563  27.9196733  26.5397263  90.3987883  25.9653377  35.2141764
  90.0584703  25.1661190  35.6162444  89.6926889  26.2655088  34.6418598
  91.0504355  23.0502690  33.6669087  91.8730424  22.5763168  33.5447978
  91.2942418  23.8293173  34.1667774  89.6912589  26.0790948  23.9631989
  90.4120952  26.4572201  23.4595706  89.0677894  26.7979825  24.0666967
  93.8343712  26.7836097  24.8990321  94.0507327  27.6660735  24.5979150
  93.3537779  26.3922310  24.1695963  88.5742934  29.7421810  31.4761066
  88.4287514  30.0562113  32.3685348  88.0968137  30.3606711  30.9231965
  90.4339317  26.7324358  31.5241956  90.4200885  25.8365452  31.1874254
  91.1511745  26.7395022  32.1580242  92.2865447  27.1661698  33.5695083
  92.0283225  28.0878769  33.5679413  91.7550488  26.7692133  34.2595547
  83.0488596  32.2827155  34.4148727  82.5042064  33.0586963  34.5469002
  83.9267946  32.6297959  34.2567849  89.8376213  25.6138739  26.7929526
  89.9592124  24.6855385  26.9920413  89.5478255  25.6277425  25.8807841
  92.7067403  23.2993649  29.9296246  92.7289100  23.3632982  28.9748225
  93.1235462  22.4598158  30.1236752  98.2186809  39.5879250  23.4482067
  98.9137713  40.2085943  23.6669381  98.5609959  38.7374601  23.7234445
  83.8354618  31.4097051  37.3078884  83.0936354  31.5579686  37.8943515
  83.5147362  31.6705317  36.4445634  84.2811231  39.2962480  29.3389279
  85.1069251  38.9966252  28.9587922  83.9305283  38.5270102  29.7879067
  89.2492765  38.6488948  31.4086952  88.6272774  37.9859653  31.1089180
  89.9197631  38.6750080  30.7260600  82.4819836  37.2148806  30.2978212
  81.6451745  36.7870980  30.1162214  82.4543482  37.4081249  31.2349004
  89.3217292  27.1270736  41.0019458  89.3705448  28.0032859  40.6197228
  89.8639806  26.5848129  40.4291102  88.8106271  37.1992871  24.8845413
  88.9594392  37.8828336  24.2312086  89.6172715  37.1797961  25.3994869
  91.5516581  27.8802108  37.7565817  90.6819890  28.1735674  37.4848406
  91.7876061  28.4642553  38.4773081  86.5658904  33.2258049  25.8906482
  86.3204946  32.3220379  26.0886692  86.7354819  33.2275199  24.9485960
  94.2555614  24.0981725  35.2731237  94.7737558  24.8342752  34.9477726
  93.9010747  24.4045719  36.1077997  85.8354552  28.9586406  23.3892643
  85.1423797  29.0330761  22.7332679  85.5906304  28.1946750  23.9114160
  94.5068209  20.5182008  30.7932134  94.7869962  19.8505197  31.4192561
  95.2918815  20.7111103  30.2806798  92.3101677  39.6941002  22.3557160
  91.7375644  40.3131189  21.9027632  92.8834471  40.2440363  22.8897082
  98.3777067  28.9399642  34.5403709  99.3294490  29.0397739  34.5615933
  98.2080517  28.1477910  35.0501793  96.3991446  26.0255225  34.7263110
  95.8041378  26.3060238  34.0309599  96.1141143  26.5149126  35.4979851
  95.5298937  39.9778152  23.4865743  96.4629610  39.9123713  23.6898618
  95.4422150  40.8134419  23.0280275  98.1586953  39.2944022  20.4469690
  98.0800585  38.9603886  21.3405448  98.9796620  39.7865790  20.4461162
  92.6948476  31.0301814  19.6973213  93.6407580  30.9008023  19.7661631
  92.3162720  30.2916476  20.1742641  98.6670360  22.6957820  29.6600105
  98.4695181  22.3872909  30.5443437  99.2770066  23.4219459  29.7898034
  90.8791393  28.9551791  19.6328098  89.9722848  28.6584904  19.7090812
  91.1567374  28.6581609  18.7662384  81.7969333  30.2758154  30.0827144
  81.4772117  29.4223462  29.7901518  81.2502761  30.4906732  30.8385112
  85.5749241  32.9920595  33.7996651  85.7935250  33.9237703  33.8184685
  85.9875014  32.6328570  34.5851455  92.4953458  23.4988681  25.7872339
  91.6854187  23.1535766  26.1627585  93.1837875  23.1896224  26.3759951
  94.4244007  22.5766727  27.4096636  94.9775045  22.9962181  28.0686659
  94.6614093  21.6502475  27.4519592  89.6490177  25.8138726  19.7740077
  90.5109341  26.1393624  20.0335895  89.8340521  25.0270222  19.2613143
  81.6657593  33.8961066  32.0520266  80.9721064  33.4815019  31.5390220
  82.4130584  33.9381602  31.4553685  97.8022814  24.6867253  26.9175300
  97.2221483  25.3452057  26.5353353  97.5358746  23.8644597  26.5062718
  96.2526380  24.0872310  29.1196621  96.7526158  24.1988845  28.3110939
  96.8961988  23.7833363  29.7597429  83.5794336  33.8279320  29.9286281
  83.5565024  33.9267007  28.9768164  83.8894972  34.6744470  30.2503447
  96.5847692  26.8467343  25.9731648  95.6973547  27.1316994  25.7551843
  97.0001681  26.6861106  25.1258925  99.9362228  26.8713864  29.6885988
 100.7122618  27.3610316  29.9610605  99.2110362  27.2971918  30.1457857
 102.3734787  27.5841483  30.7459928 102.9679277  27.3437219  30.0353237
 102.4461370  26.8648614  31.3733465  84.5931942  41.4275094  31.0603093
  84.4586410  40.6675495  30.4941091  84.1764005  42.1515994  30.5931882
  95.7290905  36.6112018  20.0679668  96.4326755  36.8162020  20.6837324
  95.0053554  37.1788779  20.3328752  96.5588716  32.3621879  26.1881939
  96.5023917  32.8190430  25.3489571  97.1117058  31.6012563  26.0104781
 100.3693521  28.1511611  27.0132058 100.1130456  27.7508246  27.8440266
  99.7446389  28.8655405  26.8882197 104.6805859  30.8907684  29.5203350
 104.1205417  30.9600873  30.2934912 104.0749363  30.7148669  28.8002846
  97.6377603  37.0494547  22.1178129  98.4723207  36.6175745  21.9355603
  97.4761946  36.8776560  23.0455023  97.2923495  33.5526660  23.4834468
  97.2372299  33.3870932  22.5422912  96.6669550  34.2602693  23.6396658
  82.0816010  28.7894724  37.3095890  82.7274873  28.2793678  37.7983115
  81.8733161  29.5263406  37.8839315  90.6019620  23.0534769  23.0619786
  90.5898290  23.9976609  23.2188057  91.4943042  22.8704914  22.7679247
  94.4171740  19.6477546  27.3165723  93.6504136  19.0936032  27.4622405
  94.8282445  19.7199414  28.1779875  86.4213501  25.9362342  41.4070904
  87.2844962  25.5799146  41.6174229  85.8478911  25.5976236  42.0946309
 106.2661878  47.5664198  32.2133305 106.9040288  47.4470945  31.5096645
 106.1482721  48.5145042  32.2721257 103.0751584  47.5191626  32.1494830
 102.7370096  47.4032691  31.2615365 103.9441352  47.1182791  32.1295836
  98.9338400  49.3727102  28.1391721  98.3703265  49.2817039  27.3708009
  98.8190795  48.5527007  28.6194213 103.5571367  48.6726478  38.1081035
 103.5460008  48.2779276  37.2361539 103.7192006  47.9392550  38.7014807
 104.5137958  53.0398070  23.4506186 103.8625938  53.6252151  23.0640200
 105.3082321  53.5704265  23.5101223  98.4393586  50.1287207  23.8493320
  99.2124462  49.5816194  23.7106196  98.7918984  50.9931457  24.0607782
 100.2778628  51.4563590  37.0560219  99.9868494  52.3609220  36.9406886
 100.9135613  51.4980117  37.7704289 101.2034835  48.8340438  33.6461579
 101.7998407  48.6096460  32.9318542 101.2609807  48.0925184  34.2487027
 100.7759863  46.2879873  21.4811770 101.0285384  45.7661395  20.7195233
  99.8384423  46.1246019  21.5838454 105.8203146  45.2915652  29.2886513
 106.6066235  44.8735075  28.9376930 106.0841851  46.1961744  29.4568162
 105.9913224  50.7288502  23.9875170 105.3559057  50.8023129  24.6996075
 105.6610630  51.3182101  23.3094249 111.2211573  45.2290885  30.1919492
 111.9536745  44.6590102  30.4257321 110.4650929  44.8412485  30.6325997
 100.4956152  48.1907979  23.6836145 100.3792410  47.5152883  24.3517229
 100.6058412  47.7040353  22.8668298 102.8387693  47.6518126  27.3882834
 102.4745900  47.1248747  28.0995756 103.6954809  47.2616595  27.2149320
 102.4793180  42.6808026  22.3844183 102.6467582  43.5488263  22.7514654
 102.2890349  42.8435308  21.4605472 105.2368513  51.1425005  34.0510013
 104.9369236  52.0450044  33.9425820 104.8919573  50.8757188  34.9031166
 108.6365657  43.6607545  31.7307450 107.7282534  43.5922954  31.4366211
 108.5853253  44.1379490  32.5589276 102.4582401  45.1365684  23.3690850
 102.3382026  45.5822734  24.2076330 101.7634989  45.4851001  22.8104388
 100.2189293  57.9069325  27.0180981 100.1413323  58.8577150  27.0969461
  99.6150937  57.5615198  27.6755907 110.5027303  41.8623984  33.5085324
 109.8601684  42.1556517  32.8625119 109.9982232  41.7476904  34.3138521
 108.1567467  45.6087157  24.1971184 109.0685323  45.8414544  24.0218881
 107.6477114  46.1924201  23.6346262 106.4408235  50.0311785  37.8332476
 106.8491591  49.5894195  37.0887109 105.7185496  49.4564412  38.0866669
 102.7939305  44.9684391  35.2066033 103.6400500  45.3923805  35.3500682
 102.7337942  44.3118016  35.9004596 106.7637049  50.5912975  31.5884765
 106.1345912  50.7558689  30.8860833 106.3762711  51.0054585  32.3595729
 110.6426281  51.5267413  28.9429129 109.9577319  51.9066314  28.3926162
 110.7270131  52.1362740  29.6761077 107.8977213  49.1727372  35.5424472
 108.1094108  49.8159132  34.8658853 107.8506961  48.3389689  35.0746402
 102.3165011  50.3287383  28.8534850 102.7803357  50.6075086  28.0639473
 102.0521809  49.4270828  28.6707941  99.2089092  49.8758865  31.7914613
  99.7790449  50.3046133  31.1532098  99.7997204  49.5941450  32.4898799
 101.2533897  46.4510536  25.6624415 101.9557941  46.9031579  26.1298342
 100.9214526  45.8094355  26.2904308 109.0123041  52.0499328  33.7146830
 109.8340485  51.6479515  33.4329511 109.0085444  51.9467562  34.6662946
 102.7779644  51.5983371  35.8707540 102.8424077  52.0603778  36.7065712
 102.0690568  50.9680736  35.9989850 117.1029034  48.3938076  30.0631801
 116.3492742  47.8245474  29.9075806 117.2376575  48.3600741  31.0102436
 102.4927662  53.2651478  25.7386521 102.3573337  54.1103014  26.1671368
 103.0337474  53.4670756  24.9752454  95.9457059  50.7826916  26.3114446
  96.4581580  51.5770167  26.4620010  96.5979772  50.0853207  26.2448047
  97.7551944  53.8992673  28.3937199  97.9318572  54.8210637  28.2058183
  98.5508778  53.5851092  28.8231579 104.1196138  53.8875045  39.8686863
 103.6759993  53.1011423  39.5507767 104.7813352  54.0754195  39.2030753
  98.8783260  55.4170846  34.3947541  99.4290685  55.2887910  33.6224535
  98.0394735  55.7165735  34.0442434 106.2177376  54.1677845  37.8968264
 106.1995852  54.9886726  37.4048533 107.1397296  54.0431920  38.1218405
 102.6750431  51.6821974  38.7391772 103.2078767  50.9210262  38.5091080
 102.1464512  51.3895626  39.4815927 105.8070408  46.7790651  22.7757849
 105.2917032  47.5495256  23.0146237 105.5347717  46.1055787  23.3990911
 103.3917519  41.6240352  27.8343088 102.5359116  41.2347202  27.6548726
 103.8044471  41.7032313  26.9742873 110.7804682  49.5323006  24.7111023
 110.0034125  49.1934165  24.2666185 111.4596163  49.5375629  24.0365988
 105.5956711  44.6517743  24.6017630 105.2906847  44.9663893  25.4527774
 106.5487154  44.7299163  24.6444963 104.0403143  50.8107967  26.2510584
 103.5124505  50.0760726  25.9383822 103.5390646  51.5882643  26.0050553
 109.0195989  49.0056987  31.3677631 108.3619664  49.6956249  31.4557759
 109.8236388  49.3953419  31.7111617 107.8301448  47.3601360  29.4181572
 108.3433330  47.9931352  29.9203282 108.4802672  46.7602555  29.0524932
  99.0991458  43.5032094  22.6313081  98.2628770  43.8406781  22.9522356
  98.9596228  43.3681074  21.6940218 102.1855743  48.6288177  19.2545557
 101.2782805  48.3977430  19.4536706 102.6826775  47.8325796  19.4419539
 105.0923822  57.3385684  22.1742244 104.4185521  57.6417381  22.7827201
 105.4789644  58.1414765  21.8247701 104.3082279  44.8350815  31.6639913
 103.3904840  45.0565762  31.5061601 104.7242423  44.9097126  30.8051620
 105.0917327  46.2342231  26.7942593 105.8389146  46.7463628  26.4849715
 105.3608916  45.9126284  27.6546987 103.3643977  48.7300772  23.7769547
 102.4555196  48.4459805  23.8742017 103.3939061  49.1499850  22.9172854
 108.5963244  52.3407361  27.5460715 108.1425571  51.4998271  27.6025905
 107.9657211  52.9768760  27.8835495 107.5396164  43.2699347  28.7761382
 106.8018921  42.7576734  29.1071625 107.7922937  42.8299729  27.9644659
 107.0396184  54.1783858  28.4810533 107.3319158  54.7388915  27.7622899
 107.5494804  54.4712419  29.2363692 101.9128871  46.3429392  29.8779343
 101.9677481  45.3903229  29.8021819 101.1020073  46.4988832  30.3620641
 103.0620065  50.2709516  21.1157626 102.6239495  49.5545374  20.6563263
 103.8030506  50.4985630  20.5542717  99.8521231  44.9606452  27.6369722
  99.0389096  45.2600623  28.0434914 100.3480225  44.5662141  28.3544204
 102.0029809  54.9564209  29.5703986 101.9605988  55.1825055  28.6412518
 102.9192508  54.7227584  29.7189788 105.4495443  45.4248277  36.4684616
 105.8044830  45.6519750  37.3279081 106.0967574  45.7566653  35.8461871
 111.1793179  48.5466713  27.1733945 111.0411078  48.7368309  26.2455134
 110.8229398  49.3086095  27.6301996 111.2062559  50.6143240  32.1845216
 111.6399066  50.5218529  33.0328270 111.9194140  50.5900740  31.5465232
 100.1195610  51.8327238  29.3665949 100.9136208  51.3377558  29.1648524
  99.4087302  51.3045101  29.0033655 104.9390454  54.2145334  33.7178317
 104.9927476  54.7836270  34.4856033 104.0705235  54.3847219  33.3532354
  96.4278373  45.9770320  25.4425702  95.4975961  45.9154775  25.6595664
  96.5235845  45.4546273  24.6462343 112.0678109  50.6566940  34.7178101
 112.2613999  51.5612751  34.9637376 111.9678727  50.1974359  35.5516687
 107.1293217  50.8073683  40.2918982 106.9778724  50.5784235  39.3749066
 107.1197897  51.7644284  40.3050327 103.8978554  48.3805596  35.2765249
 104.8270614  48.5316755  35.1034216 103.4769584  48.4689617  34.4213895
 102.6966886  52.4056260  33.0463786 102.5577971  52.0375045  33.9189724
 101.9081482  52.9203900  32.8747744 103.2915037  57.5065357  24.3889323
 103.4666793  57.0353400  25.2034945 102.6047826  58.1331123  24.6170583
 104.2472101  51.7837863  30.4352624 103.9121933  51.7438633  31.3310274
 103.7476046  51.1182579  29.9623034 107.1831292  49.1293897  20.7089684
 106.5660463  48.4040725  20.6122736 106.7147781  49.8903257  20.3656758
 100.8498645  46.9025452  35.4488885 101.5598264  46.2618644  35.4075503
 100.8067953  47.1538347  36.3715066 108.8385424  53.8392806  38.3695464
 108.7797970  53.1552026  37.7026047 109.2404942  54.5811796  37.9176090
  97.8576123  60.6554719  31.1629183  98.0972721  61.2873244  31.8408201
  97.0145319  60.3042759  31.4494542  98.9729838  43.3479321  19.8310988
  98.0959305  43.2268122  19.4673235  99.4487591  42.5565400  19.5789877
 108.8402831  51.8032389  36.6009444 107.9529610  51.4658311  36.7235843
 109.4101382  51.0715421  36.8378209 102.3703985  56.4633842  33.5670687
 102.2974156  57.2688813  34.0789991 101.9281378  56.6625808  32.7418708
 102.1593764  55.7005612  27.0773508 101.3761286  56.2427292  27.1711733
 102.8586509  56.2179591  27.4767750 105.4690414  41.5100241  29.7207714
 105.9659114  40.7570204  29.4008784 104.6977396  41.5464558  29.1550923
 113.3220172  47.2140607  31.3626005 113.3110048  48.0965322  30.9919938
 112.4537551  46.8612158  31.1680542 104.8302668  56.3620676  35.7228846
 105.5430640  56.9968141  35.6504747 104.3392697  56.4584542  34.9068847
 106.5520195  50.2671929  27.2946137 105.6176474  50.3873391  27.1250842
 106.7296864  49.3644395  27.0306147 109.9392746  46.1089248  27.8296171
 110.4053199  46.9417239  27.7556474 110.3900247  45.6434229  28.5341430
  99.8814582  54.1115119  36.5434416 100.5824041  54.7451602  36.6963811
  99.4109697  54.4529851  35.7830056 108.0068978  52.4533069  24.8282323
 108.2828821  52.3389664  25.7376197 107.1373476  52.0550554  24.7894496
 107.6815868  46.6659727  34.3686967 107.0287318  46.9135634  33.7139419
 108.0596248  45.8523865  34.0349444 104.6423042  56.7019420  28.4715137
 104.8245436  55.8841076  28.9342889 105.4656028  56.9187112  28.0340027
 104.9765207  55.6287605  25.7330185 105.5052973  55.1180060  25.1200348
 105.2393427  55.3130135  26.5975718 103.7303441  47.4079538  40.8553004
 103.0544078  47.3073667  41.5255379 104.5531075  47.2518752  41.3189001
  95.4782300  53.6451474  33.4765519  96.0635737  52.8995162  33.6093423
  95.2807138  53.9555431  34.3602183  98.3320955  56.6802722  28.4927961
  97.6631330  57.1648849  28.0092001  98.1933825  56.9271942  29.4071340
 102.4726224  58.7146465  35.0910620 103.0244532  58.8778087  35.8559705
 102.8132417  59.3050903  34.4190645 107.3237098  53.5407723  40.9459274
 107.8677002  54.1537681  40.4514229 106.7423943  54.0987301  41.4626287
  93.7008532  44.9421177  25.2723894  93.9961973  44.0331855  25.2190947
  92.7996568  44.9208916  24.9504896 105.6094611  56.6628441  32.0774302
 105.4845750  55.8618181  31.5685247 106.2673702  57.1574634  31.5888272
 107.6729519  54.4637461  33.7053852 106.7259855  54.3442812  33.6332179
 108.0212292  53.5759959  33.7880113  95.4296374  42.6235274  25.3963219
  95.1009080  41.7432653  25.2138325  95.7835744  42.5682943  26.2839608
 104.6775953  54.2590177  29.9058204 104.5300915  53.3306885  30.0865774
 105.5029446  54.2810268  29.4215279  98.5438197  42.9108244  25.7638696
  98.8834269  43.4394165  25.0417305  98.9910317  43.2488650  26.5397263
 108.2810074  55.0818736  30.9923077 109.2056622  54.8761597  30.8547528
 108.1125378  54.8335137  31.9012418 100.5306344  41.4082866  23.9631989
 101.2514706  41.7864119  23.4595706  99.9071648  42.1271743  24.0666967
 104.6737467  42.1128015  24.8990321 104.8901081  42.9952653  24.5979150
 104.1931534  41.7214228  24.1695963 108.0705391  55.6004403  26.3485168
 108.2442268  55.0350826  25.5959021 108.5634282  56.4005298  26.1664658
 113.9244782  48.3640826  27.9675468 114.3675928  47.6148151  27.5694591
 113.0471292  48.3550963  27.5849200 109.0580563  54.9171168  23.4482067
 109.7531468  55.5377860  23.6669381 109.4003713  54.0666519  23.7234445
 110.9571986  52.3670873  24.9769397 111.4823310  52.7058146  24.2518718
 110.8694339  51.4317889  24.7932532 102.6192035  56.2804947  37.1059274
 102.9279161  56.0354094  37.9781974 103.4167517  56.4851585  36.6178144
 102.6412647  58.4342856  29.3364651 102.2017637  57.9419235  30.0297507
 103.3920764  57.8915824  29.0956726  95.1204986  54.6254397  29.3389279
  95.9463006  54.3258169  28.9587922  94.7699038  53.8562020  29.7879067
 100.0886519  53.9780866  31.4086952  99.4666528  53.3151571  31.1089180
 100.7591386  54.0041997  30.7260600 110.6465892  53.0003777  40.2820595
 109.8561436  52.9827916  39.7425095 110.4099247  53.5392071  41.0369632
 110.7663767  49.8496243  37.5953324 110.8161772  49.6846251  38.5368847
 110.6577691  48.9823502  37.2051205  99.6500026  52.5284789  24.8845413
  99.7988146  53.2120253  24.2312086 100.4566469  52.5089879  25.3994869
 108.0567530  45.8327171  38.9112631 108.9577392  45.6933636  38.6196628
 108.1315504  45.9981626  39.8510808 112.2681964  52.2693185  37.8395346
 111.9766772  52.6323165  38.6758806 111.6554095  51.5560193  37.6608678
 113.4677646  49.8346065  30.3597916 114.3024538  50.2735869  30.5235476
 113.6036775  49.3584718  29.5406162 110.5169152  47.3925799  36.3075404
 110.9923274  47.5853446  35.4994255 109.5934718  47.4484985  36.0618787
  97.4052659  48.5549967  25.8906482  97.1598701  47.6512297  26.0886692
  97.5748573  48.5567117  24.9485960  96.6748306  44.2878324  23.3892643
  95.9817551  44.3622679  22.7332679  96.4300058  43.5238668  23.9114160
 103.1495431  55.0232919  22.3557160 102.5769399  55.6423107  21.9027632
 103.7228225  55.5732281  22.8897082 109.2170821  44.2691559  34.5403709
 110.1688244  44.3689657  34.5615933 109.0474272  43.4769828  35.0501793
 106.3692691  55.3070070  23.4865743 107.3023364  55.2415631  23.6898618
 106.2815904  56.1426336  23.0280275 108.9980708  54.6235940  20.4469690
 108.9194339  54.2895803  21.3405448 109.8190375  55.1157708  20.4461162
 111.6958899  47.4897679  33.6546009 111.6635219  46.5513680  33.8405693
 112.3059523  47.5681716  32.9211834 103.5342230  46.3593732  19.6973213
 104.4801335  46.2299940  19.7661631 103.1556475  45.6208394  20.1742641
 111.8453388  44.2808723  33.7004292 111.3292436  43.4967179  33.5134221
 112.7293336  43.9527439  33.8650811 109.5064115  38.0249738  29.6600105
 109.3088936  37.7164826  30.5443437 110.1163820  38.7511377  29.7898034
 117.5135449  48.5513686  32.7952046 118.2438837  48.2898974  33.3559749
 116.9042394  47.8142408  32.8354114 115.5950746  46.6921549  33.3926497
 114.8683910  46.5577514  32.7842988 115.1798033  46.9998377  34.1983215
 103.4180923  50.4111478  41.1573870 104.3383932  50.5890077  41.3513916
 103.3830506  49.4667524  41.0053569 101.7185147  44.2843709  19.6328098
 100.8116603  43.9876821  19.7090812 101.9961128  43.9873527  18.7662384
 100.4883932  41.1430644  19.7740077 101.3503096  41.4685542  20.0335895
 100.6734276  40.3562140  19.2613143 108.6416568  40.0159170  26.9175300
 108.0615237  40.6743974  26.5353353 108.3752501  39.1936515  26.5062718
 107.0920135  39.4164228  29.1196621 107.5919913  39.5280762  28.3110939
 107.7355743  39.1125281  29.7597429  97.0775468  51.2147392  34.0432895
  98.0318721  51.1831335  33.9762827  96.8787992  50.7538016  34.8583121
  97.6674850  49.7848508  36.6103693  98.4867739  50.2792587  36.6338530
  97.9411658  48.8680476  36.5821260 107.4241446  42.1759261  25.9731648
 106.5367301  42.4608911  25.7551843 107.8395435  42.0153024  25.1258925
 110.7755982  42.2005782  29.6885988 111.5516373  42.6902234  29.9610605
 110.0504117  42.6263836  30.1457857 113.2128541  42.9133401  30.7459928
 113.8073032  42.6729137  30.0353237 113.2855125  42.1940531  31.3733465
  95.4325697  56.7567012  31.0603093  95.2980165  55.9967413  30.4941091
  95.0157759  57.4807912  30.5931882 106.5684660  51.9403935  20.0679668
 107.2720510  52.1453938  20.6837324 105.8447309  52.5080697  20.3328752
 107.3982470  47.6913797  26.1881939 107.3417671  48.1482348  25.3489571
 107.9510812  46.9304481  26.0104781 111.2087276  43.4803528  27.0132058
 110.9524210  43.0800164  27.8440266 110.5840144  44.1947322  26.8882197
 115.5199614  46.2199602  29.5203350 114.9599172  46.2892791  30.2934912
 114.9143117  46.0440586  28.8002846  98.5894823  57.6536329  31.2721536
  98.4727207  58.5981761  31.1700226  97.7687269  57.3509890  31.6607335
 108.4771357  52.3786464  22.1178129 109.3116961  51.9467663  21.9355603
 108.3155700  52.2068478  23.0455023 108.1317249  48.8818578  23.4834468
 108.0766053  48.7162849  22.5422912 107.5063305  49.5894611  23.6396658
 105.4463157  51.1867490  42.8088031 106.3154316  51.3608142  42.4474666
 104.9669908  52.0061906  42.6863760 101.4413375  38.3826687  23.0619786
 101.4292045  39.3268527  23.2188057 102.3336797  38.1996832  22.7679247
  99.6149337  58.3064591  34.4877464 100.5176583  58.3388201  34.8043959
  99.3886707  57.3765042  34.5023800 101.3702939  57.0595577  31.1487543
 100.4198570  57.0597439  31.0351915 101.6735425  56.3128312  30.6323577
 117.1055632  62.8956116  32.2133305 117.7434042  62.7762863  31.5096645
 116.9876475  63.8436960  32.2721257 113.9145339  62.8483544  32.1494830
 113.5763850  62.7324608  31.2615365 114.7835107  62.4474709  32.1295836
 109.7732154  64.7019020  28.1391721 109.2097019  64.6108957  27.3708009
 109.6584549  63.8818925  28.6194213 114.3965122  64.0018395  38.1081035
 114.3853762  63.6071194  37.2361539 114.5585761  63.2684468  38.7014807
 107.3196586  66.1970212  30.9775941 108.1117878  65.8561036  30.5622241
 107.5593236  66.3065187  31.8978095 115.3531713  68.3689988  23.4506186
 114.7019693  68.9544068  23.0640200 116.1476076  68.8996183  23.5101223
 109.2787340  65.4579125  23.8493320 110.0518216  64.9108112  23.7106196
 109.6312739  66.3223374  24.0607782 111.1172383  66.7855507  37.0560219
 110.8262249  67.6901138  36.9406886 111.7529367  66.8272035  37.7704289
 112.0428590  64.1632356  33.6461579 112.6392162  63.9388378  32.9318542
 112.1003561  63.4217101  34.2487027 111.6153618  61.6171791  21.4811770
 111.8679139  61.0953312  20.7195233 110.6778177  61.4537936  21.5838454
 116.6596901  60.6207569  29.2886513 117.4459990  60.2026993  28.9376930
 116.9235605  61.5253662  29.4568162 116.8306978  66.0580420  23.9875170
 116.1952811  66.1315046  24.6996075 116.5004384  66.6474019  23.3094249
 122.0605328  60.5582803  30.1919492 122.7930500  59.9882019  30.4257321
 121.3044684  60.1704403  30.6325997 111.3349907  63.5199897  23.6836145
 111.2186165  62.8444800  24.3517229 111.4452167  63.0332271  22.8668298
 113.6781448  62.9810044  27.3882834 113.3139655  62.4540665  28.0995756
 114.5348563  62.5908513  27.2149320 119.5830748  54.2704377  34.6514100
 119.2514073  55.1399788  34.4275315 118.9876362  53.9540661  35.3308131
 113.3186935  58.0099944  22.3844183 113.4861337  58.8780180  22.7514654
 113.1284104  58.1727225  21.4605472 116.0762268  66.4716923  34.0510013
 115.7762991  67.3741962  33.9425820 115.7313327  66.2049106  34.9031166
 109.5274749  62.9230720  30.0846718 108.6025246  62.7906934  30.2924409
 109.7759162  63.7024939  30.5816660 119.4759412  58.9899463  31.7307450
 118.5676289  58.9214871  31.4366211 119.4247007  59.4671408  32.5589276
 113.2976155  60.4657601  23.3690850 113.1775781  60.9114652  24.2076330
 112.6028744  60.8142919  22.8104388 106.8883560  62.5663993  30.9190507
 107.0175941  62.8198472  31.8329918 106.2081012  63.1591701  30.5995162
 111.0583048  73.2361243  27.0180981 110.9807077  74.1869068  27.0969461
 110.4544691  72.8907116  27.6755907 113.5500277  60.4089108  39.6742348
 112.7733611  60.9683029  39.6645212 114.1890840  60.8945891  40.1957218
 121.3421058  57.1915901  33.5085324 120.6995438  57.4848434  32.8625119
 120.8375986  57.0768822  34.3138521 118.9961222  60.9379074  24.1971184
 119.9079078  61.1706461  24.0218881 118.4870869  61.5216119  23.6346262
 111.8046650  63.2174562  39.2360315 112.5461334  63.7559606  38.9595138
 111.0983635  63.8440851  39.3931867 117.2801989  65.3603702  37.8332476
 117.6885345  64.9186113  37.0887109 116.5579251  64.7856330  38.0866669
 113.6333059  60.2976309  35.2066033 114.4794254  60.7215723  35.3500682
 113.5731697  59.6409933  35.9004596 117.6030804  65.9204893  31.5884765
 116.9739666  66.0850607  30.8860833 117.2156466  66.3346502  32.3595729
 121.4820036  66.8559331  28.9429129 120.7971074  67.2358232  28.3926162
 121.5663885  67.4654657  29.6761077 116.7832505  57.9580677  36.8647207
 116.5393437  58.7122738  36.3281483 117.0592435  58.3366025  37.6994454
 118.7370967  64.5019290  35.5424472 118.9487863  65.1451050  34.8658853
 118.6900716  63.6681606  35.0746402 116.3397196  57.1137110  32.4461045
 115.4781675  57.4118364  32.7377782 116.3659631  57.3307509  31.5142077
 113.1558766  65.6579301  28.8534850 113.6197111  65.9367004  28.0639473
 112.8915564  64.7562746  28.6707941 110.0482847  65.2050783  31.7914613
 110.6184204  65.6338051  31.1532098 110.6390959  64.9233367  32.4898799
 112.0927652  61.7802453  25.6624415 112.7951695  62.2323497  26.1298342
 111.7608280  61.1386272  26.2904308 110.5408013  60.3714210  40.0375625
 109.9106674  61.0530491  40.2711022 110.4344101  60.2597292  39.0928763
 105.8352986  60.0386006  30.9641549 105.0452040  60.2943535  30.4881660
 106.3264233  60.8534344  31.0693589 119.8516795  67.3791245  33.7146830
 120.6734239  66.9771432  33.4329511 119.8479198  67.2759479  34.6662946
 107.7867731  60.4030585  27.9225026 106.9898894  60.5149280  28.4408521
 107.5593323  60.7417238  27.0565916 113.6173399  66.9275289  35.8707540
 113.6817831  67.3895696  36.7065712 112.9084323  66.2972653  35.9989850
 104.1190689  60.2916496  33.3956540 104.3698727  61.1763506  33.6614116
 104.6550237  60.1121098  32.6231632 127.9422788  63.7229994  30.0631801
 127.1886497  63.1537392  29.9075806 128.0770330  63.6892658  31.0102436
 113.3321416  68.5943396  25.7386521 113.1967091  69.4394932  26.1671368
 113.8731229  68.7962674  24.9752454 109.8188756  54.6734976  42.4000876
 109.4255702  54.1201174  43.0748520 110.6354896  54.9845554  42.7907393
 106.7850814  66.1118834  26.3114446 107.2975334  66.9062084  26.4620010
 107.4373527  65.4145124  26.2448047 108.5945699  69.2284590  28.3937199
 108.7712327  70.1502555  28.2058183 109.3902532  68.9143010  28.8231579
 112.7356717  56.0892855  39.9921132 113.4766430  56.6900008  39.9125595
 112.9674640  55.3470493  39.4339175 107.8798055  61.2749222  38.2699362
 107.7651570  60.3734479  38.5706461 107.0242573  61.5212919  37.9184179
 114.9589893  69.2166963  39.8686863 114.5153747  68.4303341  39.5507767
 115.6207106  69.4046113  39.2030753 109.7177014  70.7462764  34.3947541
 110.2684439  70.6179827  33.6224535 108.8788490  71.0457653  34.0442434
 117.0571131  69.4969762  37.8968264 117.0389606  70.3178643  37.4048533
 117.9791051  69.3723838  38.1218405 113.5144185  67.0113892  38.7391772
 114.0472522  66.2502180  38.5091080 112.9858266  66.7187544  39.4815927
 116.6813880  52.1173958  34.2685414 116.3378149  53.0075600  34.1924525
 117.0492843  51.9275616  33.4054999 104.7499731  64.4407488  27.0874016
 105.5874953  64.8504497  26.8707724 104.9277998  63.5006931  27.0574210
 116.6464163  62.1082569  22.7757849 116.1310786  62.8787174  23.0146237
 116.3741471  61.4347705  23.3990911 114.2311274  56.9532270  27.8343088
 113.3752870  56.5639120  27.6548726 114.6438226  57.0324231  26.9742873
 115.7610420  54.4878613  32.2334647 115.2575216  54.4508748  31.4202453
 116.0541027  55.3971356  32.2931304 112.0053306  54.5717343  31.2400829
 112.8706303  54.3760151  30.8806719 112.0730815  54.3427695  32.1670186
 121.6198437  64.8614924  24.7111023 120.8427880  64.5226083  24.2666185
 122.2989918  64.8667547  24.0365988 116.4350466  59.9809661  24.6017630
 116.1300601  60.2955810  25.4527774 117.3880908  60.0591081  24.6444963
 114.8796898  66.1399884  26.2510584 114.3518259  65.4052644  25.9383822
 114.3784400  66.9174561  26.0050553 119.8589744  64.3348905  31.3677631
 119.2013418  65.0248166  31.4557759 120.6630143  64.7245337  31.7111617
 109.6115625  56.8019551  28.6117196 110.1859377  56.5794732  27.8790389
 110.1986608  56.8708245  29.3645797 118.6695203  62.6893278  29.4181572
 119.1827084  63.3223269  29.9203282 119.3196426  62.0894473  29.0524932
 109.9385212  58.8324012  22.6313081 109.1022525  59.1698698  22.9522356
 109.7989982  58.6972992  21.6940218 111.9138293  53.6760800  27.3392265
 111.2602705  53.3609817  26.7148880 111.8718767  53.0536540  28.0652088
 113.0249498  63.9580095  19.2545557 112.1176560  63.7269348  19.4536706
 113.5220530  63.1617714  19.4419539 115.9317577  72.6677602  22.1742244
 115.2579276  72.9709299  22.7827201 116.3183399  73.4706682  21.8247701
 115.1476033  60.1642733  31.6639913 114.2298595  60.3857680  31.5061601
 115.5636177  60.2389044  30.8051620 115.9311081  61.5634149  26.7942593
 116.6782900  62.0755546  26.4849715 116.2002671  61.2418202  27.6546987
 114.2037731  64.0592690  23.7769547 113.2948951  63.7751722  23.8742017
 114.2332815  64.4791768  22.9172854 119.4356999  67.6699279  27.5460715
 118.9819326  66.8290189  27.6025905 118.8050965  68.3060677  27.8835495
 118.3789918  58.5991265  28.7761382 117.6412675  58.0868651  29.1071625
 118.6316692  58.1591647  27.9644659 117.8789938  69.5075776  28.4810533
 118.1712912  70.0680833  27.7622899 118.3888559  69.8004337  29.2363692
 118.4801546  51.3767517  29.3703152 118.7860422  50.5164881  29.0829067
 119.2054150  51.9685137  29.1702146 104.7725902  61.7798204  27.7584750
 104.5750302  61.1867564  27.0335816 104.2172566  61.4750414  28.4760688
 112.7522625  61.6721310  29.8779343 112.8071235  60.7195147  29.8021819
 111.9413827  61.8280749  30.3620641 113.9013819  65.6001433  21.1157626
 113.4633249  64.8837292  20.6563263 114.6424260  65.8277548  20.5542717
 110.6914985  60.2898370  27.6369722 109.8782851  60.5892540  28.0434914
 111.1873980  59.8954059  28.3544204 112.8423563  70.2856127  29.5703986
 112.7999742  70.5116973  28.6412518 113.7586262  70.0519501  29.7189788
 116.2889197  60.7540194  36.4684616 116.6438585  60.9811667  37.3279081
 116.9361328  61.0858571  35.8461871 122.0186934  63.8758630  27.1733945
 121.8804833  64.0660226  26.2455134 121.6623153  64.6378013  27.6301996
 110.1829060  57.8616725  33.2530957 110.8228439  57.7205485  32.5553920
 109.3506591  57.5751239  32.8769559 122.0456314  65.9435157  32.1845216
 122.4792820  65.8510446  33.0328270 122.7587894  65.9192658  31.5465232
 110.9589364  67.1619156  29.3665949 111.7529962  66.6669476  29.1648524
 110.2481056  66.6337019  29.0033655 115.7784208  69.5437251  33.7178317
 115.8321231  70.1128188  34.4856033 114.9098990  69.7139136  33.3532354
 107.2672127  61.3062238  25.4425702 106.3369716  61.2446693  25.6595664
 107.3629599  60.7838190  24.6462343 107.1857677  57.8317050  28.0303943
 107.4464494  58.7462384  27.9213104 108.0074849  57.3641493  28.1800556
 108.6582602  59.2454808  35.2002768 109.3305655  59.0372170  34.5515417
 107.8312388  59.0476894  34.7608000 122.9071863  65.9858858  34.7178101
 123.1007753  66.8904668  34.9637376 122.8072481  65.5266277  35.5516687
 114.5608174  55.8716748  37.2168429 113.9136089  56.5706698  37.1232905
 115.3309189  56.3052892  37.5844677 117.9686972  66.1365601  40.2918982
 117.8172478  65.9076152  39.3749066 117.9591651  67.0936202  40.3050327
 114.7372308  63.7097513  35.2765249 115.6664368  63.8608673  35.1034216
 114.3163338  63.7981534  34.4213895 113.5360640  67.7348178  33.0463786
 113.3971726  67.3666962  33.9189724 112.7475236  68.2495817  32.8747744
 114.1308792  72.8357274  24.3889323 114.3060548  72.3645317  25.2034945
 113.4441580  73.4623040  24.6170583 115.0865855  67.1129781  30.4352624
 114.7515688  67.0730550  31.3310274 114.5869801  66.4474496  29.9623034
 109.0610099  62.5197411  35.9605205 108.9229897  61.7877649  36.5616744
 109.9715023  62.4306311  35.6789393 118.0225047  64.4585815  20.7089684
 117.4054217  63.7332643  20.6122736 117.5541535  65.2195175  20.3656758
 111.6892400  62.2317370  35.4488885 112.3992018  61.5910562  35.4075503
 111.6461708  62.4830265  36.3715066 119.6779178  69.1684723  38.3695464
 119.6191725  68.4843943  37.7026047 120.0798697  69.9103713  37.9176090
 110.4021334  59.2182588  37.2684524 109.8658691  58.7673326  37.9206121
 109.8138042  59.3528497  36.5254989 108.6969877  75.9846637  31.1629183
 108.9366475  76.6165161  31.8408201 107.8539074  75.6334677  31.4494542
 109.8123593  58.6771239  19.8310988 108.9353059  58.5560040  19.4673235
 110.2881346  57.8857317  19.5789877 119.6796586  67.1324307  36.6009444
 118.7923364  66.7950229  36.7235843 120.2495137  66.4007338  36.8378209
 101.3325733  63.4648399  29.9252495 102.0196773  63.1510129  29.3373510
 101.1773862  64.3689764  29.6519746 106.1360455  58.3538595  34.3537519
 106.0518644  57.7464265  33.6187929 105.3143161  58.8447614  34.3547015
 113.2097739  71.7925759  33.5670687 113.1367911  72.5980731  34.0789991
 112.7675132  71.9917725  32.7418708 112.9987519  71.0297530  27.0773508
 112.2155041  71.5719210  27.1711733 113.6980264  71.5471509  27.4767750
 116.3084169  56.8392159  29.7207714 116.8052868  56.0862121  29.4008784
 115.5371150  56.8756476  29.1550923 124.1613926  62.5432525  31.3626005
 124.1503802  63.4257240  30.9919938 123.2931306  62.1904075  31.1680542
 115.6696423  71.6912594  35.7228846 116.3824395  72.3260058  35.6504747
 115.1786451  71.7876460  34.9068847 117.3913950  65.5963846  27.2946137
 116.4570228  65.7165309  27.1250842 117.5690618  64.6936313  27.0306147
 112.8919138  58.9809542  29.4479398 112.5216925  58.4280582  30.1360304
 113.3878230  58.3767675  28.8954398 120.7786501  61.4381165  27.8296171
 121.2446953  62.2709157  27.7556474 121.2294001  60.9726147  28.5341430
 110.7208336  69.4407037  36.5434416 111.4217796  70.0743520  36.6963811
 110.2503451  69.7821769  35.7830056 118.8462732  67.7824987  24.8282323
 119.1222576  67.6681581  25.7376197 117.9767231  67.3842472  24.7894496
 118.7503164  53.8061752  31.8687073 117.8366243  54.0365979  32.0369280
 119.1796265  53.8900197  32.7201105 118.5209622  61.9951644  34.3686967
 117.8681072  62.2427552  33.7139419 118.8990002  61.1815783  34.0349444
 115.4816796  72.0311338  28.4715137 115.6639191  71.2132994  28.9342889
 116.3049782  72.2479030  28.0340027 115.8158962  70.9579523  25.7330185
 116.3446728  70.4471977  25.1200348 116.0787181  70.6422053  26.5975718
 114.5697195  62.7371455  40.8553004 113.8937832  62.6365585  41.5255379
 115.3924829  62.5810669  41.3189001 106.3176054  68.9743392  33.4765519
 106.9029491  68.2287080  33.6093423 106.1200893  69.2847349  34.3602183
 109.1714709  72.0094639  28.4927961 108.5025085  72.4940767  28.0092001
 109.0327579  72.2563860  29.4071340 100.9093709  61.5448992  32.1969962
 100.9477808  61.0112583  32.9907080 100.4034002  61.0184198  31.5780939
 113.3119978  74.0438383  35.0910620 113.8638286  74.2070004  35.8559705
 113.6526171  74.6342821  34.4190645 108.2884471  56.3913533  35.6932504
 108.3525798  57.2528364  35.2809902 108.2251592  55.7787534  34.9604863
 107.7636744  58.4636665  39.3405539 108.3908783  58.0813743  39.9543063
 106.9064663  58.2450867  39.7061231 118.1630852  68.8699640  40.9459274
 118.7070756  69.4829599  40.4514229 117.5817697  69.4279219  41.4626287
 104.5402287  60.2713094  25.2723894 104.8355728  59.3623773  25.2190947
 103.6390322  60.2500834  24.9504896 116.4488365  71.9920358  32.0774302
 116.3239505  71.1910098  31.5685247 117.1067456  72.4866552  31.5888272
 108.0696534  58.3469091  31.2551442 107.3483119  58.9605059  31.1158915
 108.8589789  58.8826856  31.1768088 118.5123274  69.7929379  33.7053852
 117.5653609  69.6734730  33.6332179 118.8606047  68.9051877  33.7880113
 110.8722847  55.6823517  37.5292094 111.3957249  55.9285814  38.2918403
 110.6535180  56.5143552  37.1095231 106.2690128  57.9527192  25.3963219
 105.9402834  57.0724571  25.2138325 106.6229499  57.8974861  26.2839608
 115.5169707  69.5882095  29.9058204 115.3694669  68.6598802  30.0865774
 116.3423201  69.6102185  29.4215279 109.3831951  58.2400162  25.7638696
 109.7228024  58.7686083  25.0417305 109.8304072  58.5780568  26.5397263
 119.1203829  70.4110653  30.9923077 120.0450376  70.2053515  30.8547528
 118.9519132  70.1627055  31.9012418 112.0775392  56.6237213  35.2141764
 111.7372212  55.8245026  35.6162444 111.3714398  56.9238923  34.6418598
 112.7291864  53.7086525  33.6669087 113.5517933  53.2347003  33.5447978
 112.9729927  54.4877009  34.1667774 111.3700098  56.7374783  23.9631989
 112.0908461  57.1156036  23.4595706 110.7465403  57.4563660  24.0666967
 115.5131221  57.4419932  24.8990321 115.7294836  58.3244570  24.5979150
 115.0325288  57.0506146  24.1695963 110.2530443  60.4005646  31.4761066
 110.1075023  60.7145949  32.3685348 109.7755646  61.0190546  30.9231965
 112.1126826  57.3908194  31.5241956 112.0988394  56.4949287  31.1874254
 112.8299254  57.3978857  32.1580242 113.9652956  57.8245534  33.5695083
 113.7070734  58.7462604  33.5679413 113.4337997  57.4275968  34.2595547
 118.9099145  70.9296321  26.3485168 119.0836023  70.3642743  25.5959021
 119.4028036  71.7297216  26.1664658 104.7276105  62.9410990  34.4148727
 104.1829573  63.7170798  34.5469002 105.6055455  63.2881795  34.2567849
 111.5163722  56.2722574  26.7929526 111.6379633  55.3439220  26.9920413
 111.2265764  56.2861260  25.8807841 114.3854912  53.9577484  29.9296246
 114.4076609  54.0216817  28.9748225 114.8022971  53.1181993  30.1236752
 124.7638536  63.6932744  27.9675468 125.2069682  62.9440069  27.5694591
 123.8865047  63.6842880  27.5849200 119.8974318  70.2463085  23.4482067
 120.5925222  70.8669778  23.6669381 120.2397468  69.3958437  23.7234445
 105.5142127  62.0680886  37.3078884 104.7723863  62.2163522  37.8943515
 105.1934871  62.3289152  36.4445634 121.7965741  67.6962791  24.9769397
 122.3217065  68.0350064  24.2518718 121.7088093  66.7609806  24.7932532
 113.4585789  71.6096865  37.1059274 113.7672916  71.3646011  37.9781974
 114.2561271  71.8143503  36.6178144 113.4806401  73.7634774  29.3364651
 113.0411392  73.2711153  30.0297507 114.2314518  73.2207742  29.0956726
 105.9598740  69.9546315  29.3389279 106.7856760  69.6550087  28.9587922
 105.6092792  69.1853937  29.7879067 110.9280274  69.3072783  31.4086952
 110.3060283  68.6443488  31.1089180 111.5985140  69.3333915  30.7260600
 104.1607345  67.8732641  30.2978212 103.3239254  67.4454816  30.1162214
 104.1330991  68.0665085  31.2349004 111.0004801  57.7854571  41.0019458
 111.0492957  58.6616694  40.6197228 111.5427315  57.2431964  40.4291102
 121.4859647  68.3295695  40.2820595 120.6955190  68.3119833  39.7425095
 121.2493001  68.8683988  41.0369632 121.6057522  65.1788161  37.5953324
 121.6555527  65.0138168  38.5368847 121.4971445  64.3115420  37.2051205
 110.4893780  67.8576707  24.8845413 110.6381901  68.5412171  24.2312086
 111.2960224  67.8381797  25.3994869 118.8961284  61.1619089  38.9112631
 119.7971147  61.0225554  38.6196628 118.9709259  61.3273544  39.8510808
 113.2304089  58.5385944  37.7565817 112.3607399  58.8319510  37.4848406
 113.4663570  59.1226389  38.4773081 123.1075719  67.5985102  37.8395346
 122.8160527  67.9615083  38.6758806 122.4947850  66.8852111  37.6608678
 124.3071401  65.1637982  30.3597916 125.1418292  65.6027786  30.5235476
 124.4430530  64.6876635  29.5406162 121.3562907  62.7217717  36.3075404
 121.8317028  62.9145363  35.4994255 120.4328472  62.7776903  36.0618787
 108.2446413  63.8841884  25.8906482 107.9992455  62.9804214  26.0886692
 108.4142328  63.8859035  24.9485960 115.9343123  54.7565561  35.2731237
 116.4525067  55.4926588  34.9477726 115.5798256  55.0629554  36.1077997
 107.5142061  59.6170242  23.3892643 106.8211306  59.6914597  22.7332679
 107.2693813  58.8530585  23.9114160 116.1855717  51.1765843  30.7932134
 116.4657471  50.5089032  31.4192561 116.9706324  51.3694939  30.2806798
 113.9889186  70.3524837  22.3557160 113.4163153  70.9715024  21.9027632
 114.5621980  70.9024199  22.8897082 120.0564576  59.5983477  34.5403709
 121.0081999  59.6981575  34.5615933 119.8868026  58.8061746  35.0501793
 118.0778955  56.6839060  34.7263110 117.4828887  56.9644073  34.0309599
 117.7928652  57.1732961  35.4979851 117.2086446  70.6361987  23.4865743
 118.1417119  70.5707549  23.6898618 117.1209659  71.4718254  23.0280275
 119.8374462  69.9527858  20.4469690 119.7588094  69.6187721  21.3405448
 120.6584129  70.4449625  20.4461162 122.5352654  62.8189597  33.6546009
 122.5028974  61.8805598  33.8405693 123.1453277  62.8973634  32.9211834
 114.3735984  61.6885650  19.6973213 115.3195089  61.5591858  19.7661631
 113.9950229  60.9500312  20.1742641 122.6847142  59.6100640  33.7004292
 122.1686191  58.8259097  33.5134221 123.5687091  59.2819357  33.8650811
 120.3457869  53.3541656  29.6600105 120.1482690  53.0456744  30.5443437
 120.9557575  54.0803295  29.7898034 128.3529203  63.8805604  32.7952046
 129.0832592  63.6190892  33.3559749 127.7436149  63.1434326  32.8354114
 126.4344501  62.0213466  33.3926497 125.7077664  61.8869431  32.7842988
 126.0191787  62.3290295  34.1983215 114.2574677  65.7403396  41.1573870
 115.1777686  65.9181995  41.3513916 114.2224260  64.7959441  41.0053569
 112.5578902  59.6135626  19.6328098 111.6510357  59.3168739  19.7090812
 112.8354883  59.3165444  18.7662384 103.4756842  60.9341990  30.0827144
 103.1559626  60.0807298  29.7901518 102.9290270  61.1490568  30.8385112
 107.2536750  63.6504431  33.7996651 107.4722759  64.5821538  33.8184685
 107.6662523  63.2912405  34.5851455 114.1740967  54.1572516  25.7872339
 113.3641696  53.8119601  26.1627585 114.8625384  53.8480060  26.3759951
 116.1031516  53.2350563  27.4096636 116.6562554  53.6546016  28.0686659
 116.3401602  52.3086311  27.4519592 112.1264615  59.2237636  43.1899400
 112.0261342  60.1731993  43.1211491 111.9086157  58.8955875  42.3175470
 111.3277686  56.4722561  19.7740077 112.1896850  56.7977460  20.0335895
 111.5128030  55.6854057  19.2613143 103.3445102  64.5544901  32.0520266
 102.6508573  64.1398854  31.5390220 104.0918093  64.5965438  31.4553685
 119.4810323  55.3451088  26.9175300 118.9008992  56.0035892  26.5353353
 119.2146255  54.5228432  26.5062718 117.9313889  54.7456146  29.1196621
 118.4313667  54.8572680  28.3110939 118.5749497  54.4417198  29.7597429
 111.9895885  62.6534775  42.0064462 111.5062967  63.4535135  42.2128351
 112.0756824  62.6642720  41.0531906 105.2581845  64.4863155  29.9286281
 105.2352533  64.5850842  28.9768164 105.5682481  65.3328306  30.2503447
 107.9169222  66.5439310  34.0432895 108.8712476  66.5123252  33.9762827
 107.7181746  66.0829934  34.8583121 108.5068605  65.1140426  36.6103693
 109.3261494  65.6084505  36.6338530 108.7805412  64.1972394  36.5821260
 118.2635201  57.5051178  25.9731648 117.3761056  57.7900829  25.7551843
 118.6789190  57.3444942  25.1258925 121.6149737  57.5297699  29.6885988
 122.3910127  58.0194152  29.9610605 120.8897871  57.9555753  30.1457857
 124.0522296  58.2425318  30.7459928 124.6466786  58.0021054  30.0353237
 124.1248879  57.5232449  31.3733465 106.2719451  72.0858929  31.0603093
 106.1373919  71.3259330  30.4941091 105.8551513  72.8099829  30.5931882
 117.4078414  67.2695853  20.0679668 118.1114264  67.4745855  20.6837324
 116.6841063  67.8372615  20.3328752 118.2376225  63.0205714  26.1881939
 118.1811426  63.4774266  25.3489571 118.7904567  62.2596399  26.0104781
 122.0481030  58.8095446  27.0132058 121.7917965  58.4092082  27.8440266
 121.4233898  59.5239240  26.8882197 126.3593368  61.5491519  29.5203350
 125.7992926  61.6184709  30.2934912 125.7536872  61.3732504  28.8002846
 109.4288577  72.9828246  31.2721536 109.3120961  73.9273679  31.1700226
 108.6081023  72.6801808  31.6607335 119.3165112  67.7078382  22.1178129
 120.1510716  67.2759581  21.9355603 119.1549455  67.5360396  23.0455023
 118.9711004  64.2110495  23.4834468 118.9159808  64.0454767  22.5422912
 118.3457059  64.9186528  23.6396658 103.7603519  59.4478560  37.3095890
 104.4062382  58.9377514  37.7983115 103.5520670  60.1847241  37.8839315
 116.2856911  66.5159407  42.8088031 117.1548071  66.6900060  42.4474666
 115.8063662  67.3353824  42.6863760 112.2807129  53.7118604  23.0619786
 112.2685799  54.6560444  23.2188057 113.1730551  53.5288750  22.7679247
 110.4543091  73.6356508  34.4877464 111.3570338  73.6680119  34.8043959
 110.2280461  72.7056959  34.5023800 112.2096693  72.3887495  31.1487543
 111.2592324  72.3889356  31.0351915 112.5129179  71.6420229  30.6323577
 116.0959249  50.3061381  27.3165723 115.3291645  49.7519868  27.4622405
 116.5069954  50.3783250  28.1779875 108.1001010  56.5946177  41.4070904
 108.9632471  56.2382982  41.6174229 107.5266420  56.2560072  42.0946309
 127.9449387  78.2248033  32.2133305 128.5827797  78.1054781  31.5096645
 127.8270230  79.1728877  32.2721257 124.7539093  78.1775461  32.1494830
 124.4157605  78.0616526  31.2615365 125.6228861  77.7766626  32.1295836
 120.6125909  80.0310938  28.1391721 120.0490774  79.9400875  27.3708009
 120.4978304  79.2110842  28.6194213 125.2358876  79.3310313  38.1081035
 125.2247517  78.9363111  37.2361539 125.3979515  78.5976386  38.7014807
 118.1590341  81.5262129  30.9775941 118.9511633  81.1852954  30.5622241
 118.3986991  81.6357104  31.8978095 126.1925467  83.6981905  23.4506186
 125.5413447  84.2835986  23.0640200 126.9869830  84.2288100  23.5101223
 120.1181095  80.7871043  23.8493320 120.8911971  80.2400030  23.7106196
 120.4706493  81.6515292  24.0607782 121.9566137  82.1147425  37.0560219
 121.6656003  83.0193056  36.9406886 122.5923121  82.1563952  37.7704289
 122.8822344  79.4924273  33.6461579 123.4785916  79.2680296  32.9318542
 122.9397316  78.7509019  34.2487027 122.4547372  76.9463709  21.4811770
 122.7072893  76.4245230  20.7195233 121.5171931  76.7829854  21.5838454
 127.4990655  75.9499487  29.2886513 128.2853744  75.5318910  28.9376930
 127.7629360  76.8545579  29.4568162 127.6700733  81.3872337  23.9875170
 127.0346566  81.4606964  24.6996075 127.3398139  81.9765936  23.3094249
 132.8999082  75.8874720  30.1919492 133.6324254  75.3173937  30.4257321
 132.1438438  75.4996321  30.6325997 122.1743661  78.8491815  23.6836145
 122.0579919  78.1736718  24.3517229 122.2845921  78.3624189  22.8668298
 124.5175202  78.3101962  27.3882834 124.1533409  77.7832583  28.0995756
 125.3742318  77.9200431  27.2149320 130.4224503  69.5996294  34.6514100
 130.0907827  70.4691705  34.4275315 129.8270116  69.2832578  35.3308131
 124.1580689  73.3391861  22.3844183 124.3255091  74.2072098  22.7514654
 123.9677858  73.5019143  21.4605472 126.9156022  81.8008840  34.0510013
 126.6156745  82.7033879  33.9425820 126.5707082  81.5341024  34.9031166
 120.3668504  78.2522637  30.0846718 119.4419000  78.1198851  30.2924409
 120.6152917  79.0316856  30.5816660 130.3153166  74.3191381  31.7307450
 129.4070043  74.2506789  31.4366211 130.2640762  74.7963325  32.5589276
 124.1369910  75.7949519  23.3690850 124.0169535  76.2406570  24.2076330
 123.4422498  76.1434837  22.8104388 117.7277315  77.8955911  30.9190507
 117.8569696  78.1490390  31.8329918 117.0474766  78.4883619  30.5995162
 121.8976802  88.5653161  27.0180981 121.8200832  89.5160986  27.0969461
 121.2938446  88.2199033  27.6755907 124.3894032  75.7381026  39.6742348
 123.6127366  76.2974946  39.6645212 125.0284595  76.2237809  40.1957218
 132.1814812  72.5207819  33.5085324 131.5389193  72.8140352  32.8625119
 131.6769741  72.4060739  34.3138521 129.8354976  76.2670992  24.1971184
 130.7472832  76.4998379  24.0218881 129.3264623  76.8508036  23.6346262
 122.6440404  78.5466480  39.2360315 123.3855088  79.0851523  38.9595138
 121.9377390  79.1732768  39.3931867 128.1195744  80.6895620  37.8332476
 128.5279100  80.2478030  37.0887109 127.3973005  80.1148247  38.0866669
 124.4726814  75.6268227  35.2066033 125.3188009  76.0507640  35.3500682
 124.4125451  74.9701851  35.9004596 128.4424558  81.2496811  31.5884765
 127.8133421  81.4142525  30.8860833 128.0550220  81.6638420  32.3595729
 132.3213790  82.1851248  28.9429129 131.6364828  82.5650150  28.3926162
 132.4057640  82.7946575  29.6761077 127.6226259  73.2872595  36.8647207
 127.3787191  74.0414656  36.3281483 127.8986190  73.6657943  37.6994454
 129.5764722  79.8311207  35.5424472 129.7881617  80.4742967  34.8658853
 129.5294470  78.9973524  35.0746402 127.1790951  72.4429028  32.4461045
 126.3175430  72.7410282  32.7377782 127.2053386  72.6599427  31.5142077
 123.9952520  80.9871219  28.8534850 124.4590866  81.2658922  28.0639473
 123.7309318  80.0854663  28.6707941 120.8876601  80.5342700  31.7914613
 121.4577958  80.9629969  31.1532098 121.4784713  80.2525285  32.4898799
 122.9321406  77.1094371  25.6624415 123.6345450  77.5615415  26.1298342
 122.6002035  76.4678190  26.2904308 121.3801768  75.7006128  40.0375625
 120.7500428  76.3822409  40.2711022 121.2737856  75.5889209  39.0928763
 116.6746740  75.3677924  30.9641549 115.8845794  75.6235452  30.4881660
 117.1657988  76.1826262  31.0693589 130.6910550  82.7083163  33.7146830
 131.5127994  82.3063350  33.4329511 130.6872953  82.6051397  34.6662946
 118.6261486  75.7322503  27.9225026 117.8292649  75.8441197  28.4408521
 118.3987078  76.0709155  27.0565916 124.4567153  82.2567206  35.8707540
 124.5211586  82.7187613  36.7065712 123.7478077  81.6264571  35.9989850
 114.9584443  75.6208414  33.3956540 115.2092482  76.5055424  33.6614116
 115.4943992  75.4413016  32.6231632 138.7816543  79.0521911  30.0631801
 138.0280251  78.4829309  29.9075806 138.9164084  79.0184576  31.0102436
 124.1715171  83.9235314  25.7386521 124.0360846  84.7686849  26.1671368
 124.7124983  84.1254591  24.9752454 120.6582511  70.0026894  42.4000876
 120.2649456  69.4493092  43.0748520 121.4748651  70.3137472  42.7907393
 117.6244568  81.4410752  26.3114446 118.1369089  82.2354002  26.4620010
 118.2767281  80.7437042  26.2448047 119.4339453  84.5576508  28.3937199
 119.6106081  85.4794473  28.2058183 120.2296287  84.2434927  28.8231579
 123.5750472  71.4184773  39.9921132 124.3160185  72.0191926  39.9125595
 123.8068394  70.6762410  39.4339175 118.7191810  76.6041140  38.2699362
 118.6045325  75.7026397  38.5706461 117.8636327  76.8504837  37.9184179
 125.7983647  84.5458880  39.8686863 125.3547502  83.7595259  39.5507767
 126.4600861  84.7338031  39.2030753 120.5570768  86.0754682  34.3947541
 121.1078194  85.9471745  33.6224535 119.7182244  86.3749571  34.0442434
 127.8964885  84.8261680  37.8968264 127.8783361  85.6470561  37.4048533
 128.8184805  84.7015755  38.1218405 124.3537940  82.3405810  38.7391772
 124.8866276  81.5794098  38.5091080 123.8252021  82.0479461  39.4815927
 127.5207635  67.4465876  34.2685414 127.1771904  68.3367517  34.1924525
 127.8886597  67.2567533  33.4054999 115.5893485  79.7699406  27.0874016
 116.4268707  80.1796414  26.8707724 115.7671753  78.8298848  27.0574210
 127.4857917  77.4374487  22.7757849 126.9704541  78.2079091  23.0146237
 127.2135226  76.7639623  23.3990911 125.0705028  72.2824187  27.8343088
 124.2146625  71.8931038  27.6548726 125.4831980  72.3616148  26.9742873
 126.6004175  69.8170531  32.2334647 126.0968970  69.7800666  31.4202453
 126.8934782  70.7263273  32.2931304 122.8447061  69.9009260  31.2400829
 123.7100058  69.7052069  30.8806719 122.9124570  69.6719612  32.1670186
 132.4592191  80.1906841  24.7111023 131.6821634  79.8518001  24.2666185
 133.1383672  80.1959464  24.0365988 127.2744220  75.3101579  24.6017630
 126.9694356  75.6247728  25.4527774 128.2274663  75.3882999  24.6444963
 125.7190652  81.4691802  26.2510584 125.1912014  80.7344562  25.9383822
 125.2178155  82.2466478  26.0050553 130.6983498  79.6640823  31.3677631
 130.0407173  80.3540084  31.4557759 131.5023897  80.0537255  31.7111617
 120.4509380  72.1311468  28.6117196 121.0253132  71.9086650  27.8790389
 121.0380362  72.2000163  29.3645797 129.5088957  78.0185195  29.4181572
 130.0220839  78.6515187  29.9203282 130.1590181  77.4186391  29.0524932
 120.7778967  74.1615929  22.6313081 119.9416279  74.4990616  22.9522356
 120.6383737  74.0264909  21.6940218 122.7532048  69.0052717  27.3392265
 122.0996460  68.6901734  26.7148880 122.7112522  68.3828458  28.0652088
 123.8643252  79.2872012  19.2545557 122.9570314  79.0561266  19.4536706
 124.3614284  78.4909632  19.4419539 126.7711331  87.9969520  22.1742244
 126.0973030  88.3001216  22.7827201 127.1577153  88.7998600  21.8247701
 125.9869788  75.4934651  31.6639913 125.0692349  75.7149598  31.5061601
 126.4029932  75.5680961  30.8051620 126.7704836  76.8926066  26.7942593
 127.5176655  77.4047464  26.4849715 127.0396425  76.5710119  27.6546987
 125.0431486  79.3884607  23.7769547 124.1342705  79.1043640  23.8742017
 125.0726570  79.8083686  22.9172854 130.2750753  82.9991197  27.5460715
 129.8213080  82.1582107  27.6025905 129.6444720  83.6352595  27.8835495
 129.2183673  73.9283183  28.7761382 128.4806430  73.4160569  29.1071625
 129.4710446  73.4883564  27.9644659 128.7183693  84.8367693  28.4810533
 129.0106667  85.3972751  27.7622899 129.2282313  85.1296254  29.2363692
 129.3195300  66.7059435  29.3703152 129.6254177  65.8456798  29.0829067
 130.0447905  67.2977055  29.1702146 115.6119656  77.1090121  27.7584750
 115.4144056  76.5159482  27.0335816 115.0566320  76.8042332  28.4760688
 123.5916380  77.0013228  29.8779343 123.6464990  76.0487064  29.8021819
 122.7807582  77.1572667  30.3620641 124.7407574  80.9293351  21.1157626
 124.3027004  80.2129210  20.6563263 125.4818015  81.1569466  20.5542717
 121.5308740  75.6190288  27.6369722 120.7176605  75.9184458  28.0434914
 122.0267734  75.2245976  28.3544204 123.6817318  85.6148044  29.5703986
 123.6393497  85.8408891  28.6412518 124.5980017  85.3811419  29.7189788
 127.1282952  76.0832112  36.4684616 127.4832339  76.3103585  37.3279081
 127.7755083  76.4150489  35.8461871 132.8580688  79.2050548  27.1733945
 132.7198587  79.3952144  26.2455134 132.5016907  79.9669931  27.6301996
 121.0222815  73.1908643  33.2530957 121.6622194  73.0497402  32.5553920
 120.1900345  72.9043156  32.8769559 132.8850068  81.2727075  32.1845216
 133.3186575  81.1802364  33.0328270 133.5981649  81.2484575  31.5465232
 121.7983118  82.4911074  29.3665949 122.5923717  81.9961394  29.1648524
 121.0874811  81.9628937  29.0033655 126.6177963  84.8729169  33.7178317
 126.6714985  85.4420105  34.4856033 125.7492744  85.0431054  33.3532354
 118.1065882  76.6354155  25.4425702 117.1763470  76.5738611  25.6595664
 118.2023354  76.1130108  24.6462343 118.0251431  73.1608968  28.0303943
 118.2858248  74.0754301  27.9213104 118.8468603  72.6933411  28.1800556
 119.4976356  74.5746725  35.2002768 120.1699410  74.3664087  34.5515417
 118.6706143  74.3768811  34.7608000 133.7465618  81.3150776  34.7178101
 133.9401508  82.2196586  34.9637376 133.6466236  80.8558195  35.5516687
 125.4001928  71.2008666  37.2168429 124.7529843  71.8998616  37.1232905
 126.1702944  71.6344810  37.5844677 128.8080726  81.4657518  40.2918982
 128.6566233  81.2368070  39.3749066 128.7985406  82.4228120  40.3050327
 125.5766063  79.0389431  35.2765249 126.5058123  79.1900591  35.1034216
 125.1557093  79.1273452  34.4213895 124.3754394  83.0640095  33.0463786
 124.2365480  82.6958880  33.9189724 123.5868991  83.5787735  32.8747744
 124.9702546  88.1649192  24.3889323 125.1454302  87.6937235  25.2034945
 124.2835334  88.7914958  24.6170583 125.9259610  82.4421698  30.4352624
 125.5909442  82.4022468  31.3310274 125.4263555  81.7766414  29.9623034
 119.9003854  77.8489328  35.9605205 119.7623652  77.1169567  36.5616744
 120.8108777  77.7598228  35.6789393 128.8618801  79.7877733  20.7089684
 128.2447972  79.0624561  20.6122736 128.3935290  80.5487093  20.3656758
 122.5286154  77.5609288  35.4488885 123.2385773  76.9202480  35.4075503
 122.4855462  77.8122182  36.3715066 130.5172933  84.4976641  38.3695464
 130.4585479  83.8135861  37.7026047 130.9192451  85.2395631  37.9176090
 121.2415088  74.5474505  37.2684524 120.7052445  74.0965244  37.9206121
 120.6531797  74.6820414  36.5254989 119.5363632  91.3138555  31.1629183
 119.7760230  91.9457079  31.8408201 118.6932828  90.9626595  31.4494542
 120.6517347  74.0063157  19.8310988 119.7746814  73.8851958  19.4673235
 121.1275100  73.2149235  19.5789877 130.5190340  82.4616225  36.6009444
 129.6317119  82.1242147  36.7235843 131.0888891  81.7299256  36.8378209
 112.1719487  78.7940317  29.9252495 112.8590527  78.4802047  29.3373510
 112.0167616  79.6981681  29.6519746 116.9754209  73.6830513  34.3537519
 116.8912398  73.0756183  33.6187929 116.1536916  74.1739531  34.3547015
 124.0491494  87.1217677  33.5670687 123.9761665  87.9272649  34.0789991
 123.6068887  87.3209643  32.7418708 123.8381273  86.3589447  27.0773508
 123.0548795  86.9011127  27.1711733 124.5374018  86.8763427  27.4767750
 127.1477923  72.1684077  29.7207714 127.6446623  71.4154039  29.4008784
 126.3764905  72.2048393  29.1550923 135.0007681  77.8724442  31.3626005
 134.9897557  78.7549158  30.9919938 134.1325060  77.5195993  31.1680542
 126.5090177  87.0204511  35.7228846 127.2218149  87.6551976  35.6504747
 126.0180206  87.1168377  34.9068847 128.2307704  80.9255764  27.2946137
 127.2963983  81.0457226  27.1250842 128.4084372  80.0228231  27.0306147
 123.7312892  74.3101460  29.4479398 123.3610680  73.7572500  30.1360304
 124.2271985  73.7059593  28.8954398 131.6180255  76.7673083  27.8296171
 132.0840708  77.6001075  27.7556474 132.0687756  76.3018065  28.5341430
 121.5602091  84.7698955  36.5434416 122.2611550  85.4035438  36.6963811
 121.0897206  85.1113686  35.7830056 129.6856486  83.1116904  24.8282323
 129.9616330  82.9973499  25.7376197 128.8160985  82.7134389  24.7894496
 129.5896918  69.1353670  31.8687073 128.6759998  69.3657897  32.0369280
 130.0190020  69.2192114  32.7201105 129.3603377  77.3243562  34.3686967
 128.7074827  77.5719470  33.7139419 129.7383757  76.5107700  34.0349444
 126.3210551  87.3603255  28.4715137 126.5032945  86.5424911  28.9342889
 127.1443537  87.5770948  28.0340027 126.6552716  86.2871440  25.7330185
 127.1840482  85.7763895  25.1200348 126.9180936  85.9713971  26.5975718
 125.4090950  78.0663373  40.8553004 124.7331587  77.9657502  41.5255379
 126.2318584  77.9102587  41.3189001 117.1569809  84.3035310  33.4765519
 117.7423246  83.5578998  33.6093423 116.9594647  84.6139266  34.3602183
 120.0108464  87.3386557  28.4927961 119.3418839  87.8232685  28.0092001
 119.8721334  87.5855778  29.4071340 111.7487463  76.8740910  32.1969962
 111.7871563  76.3404501  32.9907080 111.2427756  76.3476115  31.5780939
 124.1513733  89.3730301  35.0910620 124.7032041  89.5361922  35.8559705
 124.4919926  89.9634738  34.4190645 119.1278226  71.7205450  35.6932504
 119.1919552  72.5820281  35.2809902 119.0645346  71.1079452  34.9604863
 118.6030498  73.7928583  39.3405539 119.2302537  73.4105660  39.9543063
 117.7458417  73.5742785  39.7061231 129.0024607  84.1991558  40.9459274
 129.5464511  84.8121516  40.4514229 128.4211452  84.7571137  41.4626287
 115.3796041  75.6005012  25.2723894 115.6749482  74.6915690  25.2190947
 114.4784077  75.5792752  24.9504896 127.2882120  87.3212276  32.0774302
 127.1633259  86.5202016  31.5685247 127.9461211  87.8158470  31.5888272
 118.9090288  73.6761009  31.2551442 118.1876874  74.2896976  31.1158915
 119.6983544  74.2118773  31.1768088 129.3517028  85.1221296  33.7053852
 128.4047364  85.0026647  33.6332179 129.6999801  84.2343794  33.7880113
 121.7116602  71.0115435  37.5292094 122.2351003  71.2577732  38.2918403
 121.4928935  71.8435470  37.1095231 117.1083883  73.2819110  25.3963219
 116.7796589  72.4016489  25.2138325 117.4623253  73.2266778  26.2839608
 126.3563461  84.9174012  29.9058204 126.2088424  83.9890720  30.0865774
 127.1816955  84.9394103  29.4215279 120.2225706  73.5692080  25.7638696
 120.5621778  74.0978001  25.0417305 120.6697826  73.9072486  26.5397263
 129.9597583  85.7402571  30.9923077 130.8844131  85.5345433  30.8547528
 129.7912887  85.4918972  31.9012418 122.9169147  71.9529130  35.2141764
 122.5765967  71.1536943  35.6162444 122.2108153  72.2530841  34.6418598
 123.5685618  69.0378443  33.6669087 124.3911688  68.5638921  33.5447978
 123.8123682  69.8168926  34.1667774 122.2093853  72.0666701  23.9631989
 122.9302215  72.4447954  23.4595706 121.5859157  72.7855578  24.0666967
 126.3524976  72.7711850  24.8990321 126.5688590  73.6536488  24.5979150
 125.8719043  72.3798064  24.1695963 121.0924197  75.7297563  31.4761066
 120.9468778  76.0437866  32.3685348 120.6149401  76.3482464  30.9231965
 122.9520580  72.7200111  31.5241956 122.9382149  71.8241205  31.1874254
 123.6693008  72.7270775  32.1580242 124.8046711  73.1537452  33.5695083
 124.5464489  74.0754522  33.5679413 124.2731751  72.7567886  34.2595547
 129.7492900  86.2588239  26.3485168 129.9229777  85.6934661  25.5959021
 130.2421791  87.0589134  26.1664658 115.5669859  78.2702908  34.4148727
 115.0223327  79.0462716  34.5469002 116.4449209  78.6173712  34.2567849
 122.3557476  71.6014492  26.7929526 122.4773387  70.6731138  26.9920413
 122.0659518  71.6153178  25.8807841 125.2248666  69.2869402  29.9296246
 125.2470363  69.3508735  28.9748225 125.6416725  68.4473911  30.1236752
 135.6032291  79.0224662  27.9675468 136.0463437  78.2731987  27.5694591
 134.7258801  79.0134798  27.5849200 130.7368072  85.5755003  23.4482067
 131.4318977  86.1961696  23.6669381 131.0791222  84.7250354  23.7234445
 116.3535881  77.3972804  37.3078884 115.6117617  77.5455439  37.8943515
 116.0328625  77.6581070  36.4445634 132.6359495  83.0254709  24.9769397
 133.1610819  83.3641981  24.2518718 132.5481848  82.0901724  24.7932532
 124.2979544  86.9388782  37.1059274 124.6066670  86.6937929  37.9781974
 125.0955026  87.1435421  36.6178144 124.3200156  89.0926692  29.3364651
 123.8805146  88.6003071  30.0297507 125.0708273  88.5499660  29.0956726
 116.7992495  85.2838233  29.3389279 117.6250515  84.9842005  28.9587922
 116.4486547  84.5145855  29.7879067 121.7674028  84.6364701  31.4086952
 121.1454037  83.9735406  31.1089180 122.4378895  84.6625833  30.7260600
 115.0001100  83.2024559  30.2978212 114.1633008  82.7746734  30.1162214
 114.9724745  83.3957003  31.2349004 121.8398556  73.1146489  41.0019458
 121.8886711  73.9908612  40.6197228 122.3821070  72.5723882  40.4291102
 132.3253401  83.6587612  40.2820595 131.5348945  83.6411751  39.7425095
 132.0886756  84.1975906  41.0369632 132.4451276  80.5080079  37.5953324
 132.4949281  80.3430086  38.5368847 132.3365200  79.6407338  37.2051205
 121.3287535  83.1868624  24.8845413 121.4775655  83.8704089  24.2312086
 122.1353978  83.1673714  25.3994869 129.7355039  76.4911007  38.9112631
 130.6364901  76.3517471  38.6196628 129.8103013  76.6565461  39.8510808
 124.0697844  73.8677861  37.7565817 123.2001153  74.1611427  37.4848406
 124.3057324  74.4518306  38.4773081 133.9469473  82.9277020  37.8395346
 133.6554281  83.2907001  38.6758806 133.3341604  82.2144028  37.6608678
 135.1465155  80.4929900  30.3597916 135.9812047  80.9319704  30.5235476
 135.2824284  80.0168553  29.5406162 132.1956661  78.0509635  36.3075404
 132.6710783  78.2437281  35.4994255 131.2722227  78.1068821  36.0618787
 119.0840168  79.2133802  25.8906482 118.8386210  78.3096132  26.0886692
 119.2536082  79.2150952  24.9485960 126.7736878  70.0857478  35.2731237
 127.2918822  70.8218505  34.9477726 126.4192011  70.3921472  36.1077997
 118.3535815  74.9462159  23.3892643 117.6605060  75.0206514  22.7332679
 118.1087567  74.1822503  23.9114160 127.0249472  66.5057761  30.7932134
 127.3051226  65.8380950  31.4192561 127.8100079  66.6986856  30.2806798
 124.8282940  85.6816755  22.3557160 124.2556908  86.3006942  21.9027632
 125.4015734  86.2316116  22.8897082 130.8958330  74.9275395  34.5403709
 131.8475753  75.0273492  34.5615933 130.7261781  74.1353663  35.0501793
 128.9172710  72.0130978  34.7263110 128.3222642  72.2935991  34.0309599
 128.6322407  72.5024879  35.4979851 128.0480200  85.9653905  23.4865743
 128.9810873  85.8999467  23.6898618 127.9603413  86.8010172  23.0280275
 130.6768217  85.2819775  20.4469690 130.5981848  84.9479639  21.3405448
 131.4977884  85.7741543  20.4461162 133.3746408  78.1481515  33.6546009
 133.3422728  77.2097515  33.8405693 133.9847032  78.2265551  32.9211834
 125.2129739  77.0177567  19.6973213 126.1588844  76.8883776  19.7661631
 124.8343984  76.2792229  20.1742641 133.5240897  74.9392558  33.7004292
 133.0079945  74.1551015  33.5134221 134.4080845  74.6111275  33.8650811
 131.1851624  68.6833574  29.6600105 130.9876445  68.3748662  30.5443437
 131.7951329  69.4095212  29.7898034 139.1922958  79.2097521  32.7952046
 139.9226346  78.9482809  33.3559749 138.5829903  78.4726243  32.8354114
 137.2738255  77.3505384  33.3926497 136.5471419  77.2161349  32.7842988
 136.8585542  77.6582213  34.1983215 125.0968432  81.0695314  41.1573870
 126.0171441  81.2473913  41.3513916 125.0618015  80.1251359  41.0053569
 123.3972656  74.9427544  19.6328098 122.4904112  74.6460657  19.7090812
 123.6748637  74.6457362  18.7662384 114.3150597  76.2633907  30.0827144
 113.9953381  75.4099215  29.7901518 113.7684025  76.4782485  30.8385112
 118.0930504  78.9796348  33.7996651 118.3116514  79.9113456  33.8184685
 118.5056278  78.6204323  34.5851455 125.0134722  69.4864434  25.7872339
 124.2035450  69.1411519  26.1627585 125.7019139  69.1771977  26.3759951
 126.9425270  68.5642480  27.4096636 127.4956309  68.9837934  28.0686659
 127.1795357  67.6378228  27.4519592 122.9658369  74.5529554  43.1899400
 122.8655096  75.5023911  43.1211491 122.7479911  74.2247793  42.3175470
 122.1671441  71.8014479  19.7740077 123.0290605  72.1269377  20.0335895
 122.3521785  71.0145975  19.2613143 114.1838857  79.8836819  32.0520266
 113.4902328  79.4690772  31.5390220 114.9311848  79.9257355  31.4553685
 130.3204077  70.6743006  26.9175300 129.7402746  71.3327810  26.5353353
 130.0540010  69.8520350  26.5062718 128.7707644  70.0748063  29.1196621
 129.2707422  70.1864598  28.3110939 129.4143252  69.7709116  29.7597429
 122.8289639  77.9826693  42.0064462 122.3456721  78.7827053  42.2128351
 122.9150578  77.9934638  41.0531906 116.0975599  79.8155073  29.9286281
 116.0746287  79.9142760  28.9768164 116.4076236  80.6620223  30.2503447
 118.7562977  81.8731228  34.0432895 119.7106230  81.8415170  33.9762827
 118.5575501  81.4121851  34.8583121 119.3462359  80.4432344  36.6103693
 120.1655248  80.9376422  36.6338530 119.6199167  79.5264312  36.5821260
 129.1028955  72.8343096  25.9731648 128.2154810  73.1192747  25.7551843
 129.5182944  72.6736859  25.1258925 132.4543491  72.8589617  29.6885988
 133.2303882  73.3486069  29.9610605 131.7291626  73.2847671  30.1457857
 134.8916050  73.5717236  30.7459928 135.4860541  73.3312972  30.0353237
 134.9642634  72.8524367  31.3733465 117.1113206  87.4150847  31.0603093
 116.9767674  86.6551248  30.4941091 116.6945268  88.1391747  30.5931882
 128.2472169  82.5987771  20.0679668 128.9508019  82.8037773  20.6837324
 127.5234817  83.1664532  20.3328752 129.0769979  78.3497632  26.1881939
 129.0205180  78.8066183  25.3489571 129.6298321  77.5888316  26.0104781
 132.8874785  74.1387364  27.0132058 132.6311719  73.7383999  27.8440266
 132.2627653  74.8531158  26.8882197 137.1987123  76.8783437  29.5203350
 136.6386681  76.9476626  30.2934912 136.5930626  76.7024422  28.8002846
 120.2682332  88.3120164  31.2721536 120.1514716  89.2565597  31.1700226
 119.4474778  88.0093726  31.6607335 130.1558866  83.0370300  22.1178129
 130.9904470  82.6051498  21.9355603 129.9943209  82.8652313  23.0455023
 129.8104758  79.5402413  23.4834468 129.7553562  79.3746685  22.5422912
 129.1850814  80.2478446  23.6396658 114.5997273  74.7770477  37.3095890
 115.2456137  74.2669431  37.7983115 114.3914424  75.5139159  37.8839315
 127.1250665  81.8451325  42.8088031 127.9941825  82.0191977  42.4474666
 126.6457417  82.6645742  42.6863760 123.1200884  69.0410522  23.0619786
 123.1079554  69.9852362  23.2188057 124.0124306  68.8580668  22.7679247
 121.2936846  88.9648426  34.4877464 122.1964092  88.9972036  34.8043959
 121.0674216  88.0348877  34.5023800 123.0490448  87.7179413  31.1487543
 122.0986079  87.7181274  31.0351915 123.3522934  86.9712147  30.6323577
 126.9353003  65.6353299  27.3165723 126.1685399  65.0811785  27.4622405
 127.3463708  65.7075168  28.1779875 118.9394764  71.9238095  41.4070904
 119.8026226  71.5674899  41.6174229 118.3660175  71.5851989  42.0946309
 138.7843141  93.5539951  32.2133305 139.4221551  93.4346698  31.5096645
 138.6663984  94.5020795  32.2721257 135.5932848  93.5067379  32.1494830
 135.2551359  93.3908444  31.2615365 136.4622616  93.1058544  32.1295836
 131.4519663  95.3602855  28.1391721 130.8884528  95.2692792  27.3708009
 131.3372058  94.5402760  28.6194213 136.0752630  94.6602231  38.1081035
 136.0641271  94.2655029  37.2361539 136.2373270  93.9268303  38.7014807
 128.9984095  96.8554047  30.9775941 129.7905387  96.5144872  30.5622241
 129.2380745  96.9649022  31.8978095 132.7959892  97.4439343  37.0560219
 132.5049758  98.3484973  36.9406886 133.4316876  97.4855870  37.7704289
 133.7216098  94.8216191  33.6461579 134.3179671  94.5972213  32.9318542
 133.7791070  94.0800937  34.2487027 138.3384410  91.2791405  29.2886513
 139.1247499  90.8610828  28.9376930 138.6023114  92.1837497  29.4568162
 135.3568957  93.6393879  27.3882834 134.9927164  93.1124500  28.0995756
 136.2136072  93.2492349  27.2149320 134.9974444  88.6683779  22.3844183
 135.1648846  89.5364016  22.7514654 134.8071613  88.8311061  21.4605472
 137.7549777  97.1300758  34.0510013 137.4550500  98.0325797  33.9425820
 137.4100836  96.8632941  34.9031166 131.2062258  93.5814555  30.0846718
 130.2812755  93.4490769  30.2924409 131.4546671  94.3608774  30.5816660
 141.1546921  89.6483298  31.7307450 140.2463798  89.5798707  31.4366211
 141.1034516  90.1255243  32.5589276 134.9763664  91.1241437  23.3690850
 134.8563290  91.5698487  24.2076330 134.2816253  91.4726754  22.8104388
 128.5671069  93.2247828  30.9190507 128.6963450  93.4782307  31.8329918
 127.8868521  93.8175536  30.5995162 135.2287786  91.0672944  39.6742348
 134.4521120  91.6266864  39.6645212 135.8678349  91.5529727  40.1957218
 133.4834159  93.8758397  39.2360315 134.2248843  94.4143441  38.9595138
 132.7771144  94.5024686  39.3931867 138.9589498  96.0187538  37.8332476
 139.3672854  95.5769948  37.0887109 138.2366760  95.4440165  38.0866669
 135.3120568  90.9560144  35.2066033 136.1581763  91.3799558  35.3500682
 135.2519206  90.2993769  35.9004596 139.2818313  96.5788728  31.5884765
 138.6527175  96.7434442  30.8860833 138.8943975  96.9930338  32.3595729
 138.4620014  88.6164513  36.8647207 138.2180945  89.3706573  36.3281483
 138.7379944  88.9949860  37.6994454 140.4158476  95.1603125  35.5424472
 140.6275372  95.8034885  34.8658853 140.3688225  94.3265442  35.0746402
 138.0184705  87.7720946  32.4461045 137.1569184  88.0702199  32.7377782
 138.0447140  87.9891345  31.5142077 134.8346275  96.3163136  28.8534850
 135.2984620  96.5950839  28.0639473 134.5703073  95.4146581  28.6707941
 131.7270356  95.8634618  31.7914613 132.2971713  96.2921886  31.1532098
 132.3178468  95.5817203  32.4898799 133.7715161  92.4386289  25.6624415
 134.4739204  92.8907332  26.1298342 133.4395789  91.7970108  26.2904308
 132.2195522  91.0298045  40.0375625 131.5894183  91.7114326  40.2711022
 132.1131610  90.9181127  39.0928763 127.5140495  90.6969841  30.9641549
 126.7239549  90.9527370  30.4881660 128.0051742  91.5118179  31.0693589
 129.4655240  91.0614421  27.9225026 128.6686403  91.1733115  28.4408521
 129.2380832  91.4001073  27.0565916 135.2960908  97.5859124  35.8707540
 135.3605340  98.0479531  36.7065712 134.5871832  96.9556489  35.9989850
 125.7978198  90.9500332  33.3956540 126.0486236  91.8347342  33.6614116
 126.3337746  90.7704933  32.6231632 131.4976265  85.3318811  42.4000876
 131.1043211  84.7785010  43.0748520 132.3142405  85.6429390  42.7907393
 128.4638323  96.7702669  26.3114446 128.9762843  97.5645920  26.4620010
 129.1161036  96.0728960  26.2448047 130.2733208  99.8868426  28.3937199
 130.4499836 100.8086390  28.2058183 131.0690041  99.5726845  28.8231579
 134.4144226  86.7476690  39.9921132 135.1553939  87.3483843  39.9125595
 134.6462149  86.0054328  39.4339175 129.5585564  91.9333058  38.2699362
 129.4439079  91.0318315  38.5706461 128.7030082  92.1796754  37.9184179
 136.6377402  99.8750798  39.8686863 136.1941256  99.0887176  39.5507767
 137.2994615 100.0629948  39.2030753 131.3964523 101.4046599  34.3947541
 131.9471948 101.2763663  33.6224535 130.5575999 101.7041488  34.0442434
 138.7358640 100.1553598  37.8968264 138.7177115 100.9762479  37.4048533
 139.6578560 100.0307673  38.1218405 135.1931694  97.6697727  38.7391772
 135.7260031  96.9086015  38.5091080 134.6645775  97.3771379  39.4815927
 138.3601389  82.7757793  34.2685414 138.0165658  83.6659435  34.1924525
 138.7280352  82.5859451  33.4054999 126.4287240  95.0991324  27.0874016
 127.2662462  95.5088332  26.8707724 126.6065507  94.1590766  27.0574210
 135.9098783  87.6116105  27.8343088 135.0540379  87.2222956  27.6548726
 136.3225735  87.6908066  26.9742873 137.4397929  85.1462448  32.2334647
 136.9362725  85.1092584  31.4202453 137.7328536  86.0555191  32.2931304
 133.6840815  85.2301178  31.2400829 134.5493812  85.0343987  30.8806719
 133.7518324  85.0011530  32.1670186 138.1137975  90.6393496  24.6017630
 137.8088110  90.9539646  25.4527774 139.0668417  90.7174916  24.6444963
 131.2903134  87.4603386  28.6117196 131.8646886  87.2378568  27.8790389
 131.8774117  87.5292081  29.3645797 140.3482712  93.3477113  29.4181572
 140.8614593  93.9807105  29.9203282 140.9983935  92.7478308  29.0524932
 131.6172721  89.4907847  22.6313081 130.7810034  89.8282534  22.9522356
 131.4777491  89.3556827  21.6940218 133.5925802  84.3344635  27.3392265
 132.9390214  84.0193652  26.7148880 133.5506276  83.7120375  28.0652088
 136.8263542  90.8226568  31.6639913 135.9086104  91.0441515  31.5061601
 137.2423686  90.8972879  30.8051620 137.6098590  92.2217984  26.7942593
 138.3570409  92.7339381  26.4849715 137.8790180  91.9002037  27.6546987
 140.0577427  89.2575100  28.7761382 139.3200184  88.7452487  29.1071625
 140.3104201  88.8175482  27.9644659 140.1589055  82.0351352  29.3703152
 140.4647931  81.1748716  29.0829067 140.8841659  82.6268973  29.1702146
 126.4513411  92.4382039  27.7584750 126.2537811  91.8451400  27.0335816
 125.8960075  92.1334249  28.4760688 134.4310134  92.3305145  29.8779343
 134.4858744  91.3778982  29.8021819 133.6201336  92.4864585  30.3620641
 132.3702494  90.9482205  27.6369722 131.5570360  91.2476376  28.0434914
 132.8661489  90.5537894  28.3544204 134.5211072 100.9439962  29.5703986
 134.4787251 101.1700808  28.6412518 135.4373771 100.7103337  29.7189788
 137.9676706  91.4124030  36.4684616 138.3226094  91.6395503  37.3279081
 138.6148837  91.7442406  35.8461871 131.8616569  88.5200561  33.2530957
 132.5015948  88.3789320  32.5553920 131.0294100  88.2335074  32.8769559
 132.6376873  97.8202991  29.3665949 133.4317471  97.3253311  29.1648524
 131.9268565  97.2920854  29.0033655 137.4571717 100.2021087  33.7178317
 137.5108740 100.7712023  34.4856033 136.5886499 100.3722972  33.3532354
 128.9459636  91.9646073  25.4425702 128.0157225  91.9030528  25.6595664
 129.0417108  91.4422026  24.6462343 128.8645185  88.4900886  28.0303943
 129.1252003  89.4046219  27.9213104 129.6862358  88.0225328  28.1800556
 130.3370111  89.9038643  35.2002768 131.0093164  89.6956005  34.5515417
 129.5099897  89.7060729  34.7608000 136.2395683  86.5300584  37.2168429
 135.5923598  87.2290533  37.1232905 137.0096698  86.9636728  37.5844677
 139.6474481  96.7949436  40.2918982 139.4959987  96.5659988  39.3749066
 139.6379160  97.7520037  40.3050327 136.4159817  94.3681349  35.2765249
 137.3451877  94.5192508  35.1034216 135.9950847  94.4565370  34.4213895
 135.2148149  98.3932013  33.0463786 135.0759235  98.0250798  33.9189724
 134.4262745  98.9079653  32.8747744 136.7653364  97.7713616  30.4352624
 136.4303197  97.7314386  31.3310274 136.2657310  97.1058332  29.9623034
 130.7397608  93.1781246  35.9605205 130.6017406  92.4461485  36.5616744
 131.6502532  93.0890146  35.6789393 133.3679909  92.8901205  35.4488885
 134.0779527  92.2494397  35.4075503 133.3249217  93.1414100  36.3715066
 132.0808843  89.8766423  37.2684524 131.5446200  89.4257162  37.9206121
 131.4925551  90.0112332  36.5254989 130.3757386 106.6430472  31.1629183
 130.6153984 107.2748997  31.8408201 129.5326583 106.2918512  31.4494542
 123.0113242  94.1232234  29.9252495 123.6984282  93.8093964  29.3373510
 122.8561371  95.0273599  29.6519746 127.8147964  89.0122431  34.3537519
 127.7306153  88.4048100  33.6187929 126.9930670  89.5031449  34.3547015
 134.8885248 102.4509595  33.5670687 134.8155420 103.2564566  34.0789991
 134.4462641 102.6501561  32.7418708 137.9871678  87.4975994  29.7207714
 138.4840377  86.7445957  29.4008784 137.2158659  87.5340311  29.1550923
 137.3483932 102.3496429  35.7228846 138.0611904 102.9843894  35.6504747
 136.8573960 102.4460295  34.9068847 139.0701459  96.2547682  27.2946137
 138.1357737  96.3749144  27.1250842 139.2478127  95.3520148  27.0306147
 134.5706647  89.6393377  29.4479398 134.2004434  89.0864418  30.1360304
 135.0665739  89.0351511  28.8954398 132.3995845 100.0990872  36.5434416
 133.1005305 100.7327355  36.6963811 131.9290960 100.4405604  35.7830056
 140.4290673  84.4645588  31.8687073 139.5153752  84.6949815  32.0369280
 140.8583774  84.5484032  32.7201105 140.1997131  92.6535480  34.3686967
 139.5468581  92.9011387  33.7139419 140.5777511  91.8399618  34.0349444
 136.2484704  93.3955291  40.8553004 135.5725341  93.2949420  41.5255379
 137.0712338  93.2394505  41.3189001 127.9963563  99.6327227  33.4765519
 128.5817000  98.8870915  33.6093423 127.7988402  99.9431184  34.3602183
 130.8502218 102.6678475  28.4927961 130.1812594 103.1524602  28.0092001
 130.7115088 102.9147695  29.4071340 122.5881218  92.2032828  32.1969962
 122.6265317  91.6696418  32.9907080 122.0821511  91.6768033  31.5780939
 134.9907487 104.7022218  35.0910620 135.5425795 104.8653840  35.8559705
 135.3313680 105.2926656  34.4190645 129.9671980  87.0497368  35.6932504
 130.0313307  87.9112199  35.2809902 129.9039100  86.4371370  34.9604863
 129.4424253  89.1220501  39.3405539 130.0696292  88.7397578  39.9543063
 128.5852172  88.9034703  39.7061231 139.8418361  99.5283476  40.9459274
 140.3858265 100.1413434  40.4514229 139.2605206 100.0863054  41.4626287
 126.2189796  90.9296930  25.2723894 126.5143237  90.0207608  25.2190947
 125.3177831  90.9084669  24.9504896 138.1275874 102.6504194  32.0774302
 138.0027014 101.8493934  31.5685247 138.7854965 103.1450387  31.5888272
 129.7484043  89.0052926  31.2551442 129.0270628  89.6188894  31.1158915
 130.5377298  89.5410691  31.1768088 140.1910783 100.4513214  33.7053852
 139.2441118 100.3318565  33.6332179 140.5393556  99.5635712  33.7880113
 132.5510356  86.3407353  37.5292094 133.0744758  86.5869649  38.2918403
 132.3322689  87.1727388  37.1095231 127.9477637  88.6111027  25.3963219
 127.6190343  87.7308406  25.2138325 128.3017008  88.5558696  26.2839608
 137.1957216 100.2465930  29.9058204 137.0482178  99.3182638  30.0865774
 138.0210709 100.2686021  29.4215279 131.0619460  88.8983997  25.7638696
 131.4015533  89.4269918  25.0417305 131.5091581  89.2364403  26.5397263
 133.7562901  87.2821048  35.2141764 133.4159721  86.4828861  35.6162444
 133.0501907  87.5822759  34.6418598 134.4079373  84.3670360  33.6669087
 135.2305442  83.8930839  33.5447978 134.6517436  85.1460844  34.1667774
 133.0487607  87.3958619  23.9631989 133.7695970  87.7739872  23.4595706
 132.4252912  88.1147496  24.0666967 137.1918730  88.1003768  24.8990321
 137.4082345  88.9828406  24.5979150 136.7112797  87.7089981  24.1695963
 131.9317952  91.0589481  31.4761066 131.7862532  91.3729784  32.3685348
 131.4543155  91.6774381  30.9231965 133.7914335  88.0492029  31.5241956
 133.7775903  87.1533122  31.1874254 134.5086763  88.0562693  32.1580242
 135.6440465  88.4829369  33.5695083 135.3858243  89.4046440  33.5679413
 135.1125506  88.0859804  34.2595547 126.4063614  93.5994825  34.4148727
 125.8617082  94.3754633  34.5469002 127.2842964  93.9465630  34.2567849
 133.1951230  86.9306409  26.7929526 133.3167142  86.0023055  26.9920413
 132.9053273  86.9445095  25.8807841 136.0642421  84.6161320  29.9296246
 136.0864118  84.6800653  28.9748225 136.4810480  83.7765828  30.1236752
 127.1929636  92.7264722  37.3078884 126.4511372  92.8747357  37.8943515
 126.8722380  92.9872987  36.4445634 135.1373298 102.2680700  37.1059274
 135.4460425 102.0229847  37.9781974 135.9348780 102.4727338  36.6178144
 127.6386249 100.6130150  29.3389279 128.4644269 100.3133922  28.9587922
 127.2880301  99.8437773  29.7879067 132.6067783  99.9656619  31.4086952
 131.9847792  99.3027324  31.1089180 133.2772649  99.9917750  30.7260600
 125.8394854  98.5316477  30.2978212 125.0026763  98.1038651  30.1162214
 125.8118500  98.7248920  31.2349004 132.6792310  88.4438407  41.0019458
 132.7280465  89.3200529  40.6197228 133.2214824  87.9015800  40.4291102
 134.9091598  89.1969779  37.7565817 134.0394908  89.4903345  37.4848406
 135.1451079  89.7810224  38.4773081 129.9233922  94.5425720  25.8906482
 129.6779964  93.6388050  26.0886692 130.0929837  94.5442870  24.9485960
 137.6130632  85.4149396  35.2731237 138.1312576  86.1510423  34.9477726
 137.2585765  85.7213389  36.1077997 129.1929570  90.2754077  23.3892643
 128.4998815  90.3498432  22.7332679 128.9481322  89.5114421  23.9114160
 137.8643226  81.8349678  30.7932134 138.1444980  81.1672868  31.4192561
 138.6493833  82.0278774  30.2806798 139.7566464  87.3422896  34.7263110
 139.1616396  87.6227908  34.0309599 139.4716161  87.8316797  35.4979851
 135.9362186  96.3987231  41.1573870 136.8565195  96.5765830  41.3513916
 135.9011769  95.4543277  41.0053569 125.1544351  91.5925825  30.0827144
 124.8347135  90.7391133  29.7901518 124.6077779  91.8074403  30.8385112
 128.9324259  94.3088266  33.7996651 129.1510268  95.2405374  33.8184685
 129.3450032  93.9496240  34.5851455 135.8528476  84.8156351  25.7872339
 135.0429205  84.4703436  26.1627585 136.5412893  84.5063895  26.3759951
 137.7819025  83.8934398  27.4096636 138.3350063  84.3129851  28.0686659
 138.0189111  82.9670146  27.4519592 133.8052124  89.8821472  43.1899400
 133.7048851  90.8315829  43.1211491 133.5873666  89.5539711  42.3175470
 133.0065195  87.1306397  19.7740077 133.8684359  87.4561295  20.0335895
 133.1915539  86.3437893  19.2613143 125.0232611  95.2128736  32.0520266
 124.3296082  94.7982689  31.5390220 125.7705602  95.2549273  31.4553685
 139.6101398  85.4039981  29.1196621 140.1101176  85.5156515  28.3110939
 140.2537006  85.1001034  29.7597429 133.6683394  93.3118611  42.0064462
 133.1850476  94.1118971  42.2128351 133.7544333  93.3226555  41.0531906
 126.9369354  95.1446990  29.9286281 126.9140042  95.2434677  28.9768164
 127.2469990  95.9912141  30.2503447 129.5956731  97.2023145  34.0432895
 130.5499985  97.1707088  33.9762827 129.3969255  96.7413769  34.8583121
 130.1856114  95.7724261  36.6103693 131.0049003  96.2668340  36.6338530
 130.4592921  94.8556229  36.5821260 139.9422710  88.1635014  25.9731648
 139.0548565  88.4484664  25.7551843 140.3576699  88.0028777  25.1258925
 127.9506960 102.7442765  31.0603093 127.8161428 101.9843166  30.4941091
 127.5339022 103.4683665  30.5931882 131.1076086 103.6412082  31.2721536
 130.9908470 104.5857514  31.1700226 130.2868532 103.3385643  31.6607335
 125.4391028  90.1062395  37.3095890 126.0849891  89.5961349  37.7983115
 125.2308179  90.8431077  37.8839315 137.9644420  97.1743243  42.8088031
 138.8335580  97.3483895  42.4474666 137.4851171  97.9937659  42.6863760
 133.9594638  84.3702440  23.0619786 133.9473308  85.3144280  23.2188057
 134.8518060  84.1872585  22.7679247 132.1330600 104.2940344  34.4877464
 133.0357847 104.3263954  34.8043959 131.9067970 103.3640795  34.5023800
 133.8884202 103.0471330  31.1487543 132.9379833 103.0473192  31.0351915
 134.1916688 102.3004065  30.6323577 137.7746758  80.9645216  27.3165723
 137.0079154  80.4103703  27.4622405 138.1857463  81.0367085  28.1779875
 129.7788519  87.2530012  41.4070904 130.6419980  86.8966817  41.6174229
 129.2053929  86.9143907  42.0946309 136.6371952 106.2792250  33.3956540
 136.8879991 107.1639259  33.6614116 137.1731501 106.0996851  32.6231632
 140.3979319 107.2624975  38.2699362 140.2832834 106.3610232  38.5706461
 139.5423836 107.5088672  37.9184179 138.6541718 104.3414348  34.3537519
 138.5699907 103.7340018  33.6187929 137.8324425 104.8323367  34.3547015
 133.4274972 107.5324745  32.1969962 133.4659072 106.9988336  32.9907080
 132.9215265 107.0059951  31.5780939 140.8065735 102.3789286  35.6932504
 140.8707061 103.2404117  35.2809902 140.7432855 101.7663287  34.9604863
 140.2818007 104.4512418  39.3405539 140.9090046 104.0689496  39.9543063
 139.4245926 104.2326620  39.7061231 137.2457368 108.9286743  34.4148727
 136.7010836 109.7046551  34.5469002 138.1236718 109.2757548  34.2567849
 138.0323390 108.0556639  37.3078884 137.2905126 108.2039275  37.8943515
 137.7116134 108.3164905  36.4445634 136.2784782 105.4354313  37.3095890
 136.9243646 104.9253267  37.7983115 136.0701933 106.1722994  37.8839315
  83.1515160   2.7098963  22.4474152  83.8643133   3.3446428  22.3750054
  82.6605189   2.8062829  21.6314154  78.2027074   0.4593407  23.2679723
  78.9036533   1.0929890  23.4209117  77.7322189   0.8008138  22.5075362
  80.7938716   5.0624753  21.8155926  81.3457024   5.2256374  22.5805012
  81.1344909   5.6529190  21.1435951  80.9404527   2.6283234  23.8304581
  81.2491654   2.3832381  24.7027280  81.7380009   2.8329873  23.3423451
  77.9361829   4.6542878  21.2122771  78.8389076   4.6866488  21.5289266
  77.7099199   3.7243329  21.2269107  95.4268125   9.2434403  18.9378612
  96.0646534   9.1241150  18.2341952  95.3088967  10.1915247  18.9966564
  92.2357831   9.1961831  18.8740137  91.8976342   9.0802896  17.9860671
  93.1047599   8.7952996  18.8541143  88.0944646  11.0497307  14.8637028
  87.5309512  10.9587244  14.0953315  87.9797042  10.2297212  15.3439520
  92.7177614  10.3496683  24.8326342  92.7066255   9.9549481  23.9606846
  92.8798253   9.6162755  25.4260114  85.6409078  12.5448499  17.7021248
  86.4330370  12.2039324  17.2867547  85.8805729  12.6543474  18.6223401
  93.6744205  14.7168275  10.1751492  93.0232185  15.3022355   9.7885506
  94.4688568  15.2474470  10.2346530  89.4384875  13.1333794  23.7805526
  89.1474741  14.0379425  23.6652192  90.0741859  13.1750322  24.4949596
  90.3641082  10.5110643  20.3706886  90.9604654  10.2866665  19.6563849
  90.4216053   9.7695388  20.9732334  94.9809393   6.9685857  16.0131820
  95.7672482   6.5505280  15.6622237  95.2448097   7.8731949  16.1813468
  95.1519470  12.4058707  10.7120477  94.5165303  12.4793333  11.4241381
  94.8216877  12.9952306  10.0339556  91.9993940   9.3288331  14.1128141
  91.6352147   8.8018952  14.8241062  92.8561056   8.9386800  13.9394626
  94.3974760  12.8195210  20.7755320  94.0975483  13.7220249  20.6671127
  94.0525820  12.5527393  21.6276473  87.8487241   9.2709007  16.8092024
  86.9237738   9.1385221  17.0169716  88.0971655  10.0503226  17.3061967
  85.2096053   8.9142280  17.6435813  85.3388434   9.1676759  18.5575225
  84.5293504   9.5069988  17.3240468  89.3795540  19.5839530  13.7426287
  89.3019570  20.5347355  13.8214768  88.7757183  19.2385403  14.4001214
  91.8712770   6.7567396  26.3987654  91.0946104   7.3161316  26.3890519
  92.5103333   7.2424179  26.9202525  90.1259142   9.5652849  25.9605621
  90.8673826  10.1037893  25.6840445  89.4196127  10.1919138  26.1177173
  95.6014482  11.7081990  24.5577783  96.0097838  11.2664400  23.8132415
  94.8791743  11.1334617  24.8111976  91.9545552   6.6454596  21.9311340
  92.8006747   7.0694010  22.0745989  91.8944189   5.9888221  22.6249903
  95.9243296  12.2683180  18.3130072  95.2952159  12.4328894  17.6106140
  95.5368958  12.6824790  19.0841036  99.8032528  13.2037618  15.6674436
  99.1183566  13.5836519  15.1171469  99.8876377  13.8132945  16.4006383
  97.0583460  10.8497577  22.2669779  97.2700355  11.4929337  21.5904160
  97.0113208  10.0159894  21.7991709  91.4771258  12.0057588  15.5780157
  91.9409604  12.2845291  14.7884779  91.2128056  11.1041033  15.3953248
  88.3695339  11.5529070  18.5159920  88.9396696  11.9816338  17.8777405
  88.9603451  11.2711654  19.2144106  88.8620506   6.7192497  26.7620931
  88.2319166   7.4008778  26.9956328  88.7556594   6.6075579  25.8174070
  84.1565478   6.3864293  17.6886856  83.3664532   6.6421822  17.2126966
  84.6476725   7.2012631  17.7938896  98.1729288  13.7269532  20.4392136
  98.9946731  13.3249720  20.1574818  98.1691690  13.6237767  21.3908252
  91.9385891  13.2753576  22.5952847  92.0030324  13.7373983  23.4311019
  91.2296815  12.6450941  22.7235157  82.4403181   6.6394784  20.1201846
  82.6911219   7.5241794  20.3859422  82.9762729   6.4599385  19.3476938
  91.6533909  14.9421683  12.4631827  91.5179584  15.7873219  12.8916675
  92.1943721  15.1440961  11.6997761  85.1063306  12.4597121  13.0359752
  85.6187827  13.2540372  13.1865317  85.7586019  11.7623412  12.9693354
  86.9158191  15.5762878  15.1182505  87.0924819  16.4980842  14.9303489
  87.7115024  15.2621297  15.5476885  86.2010547   7.6227509  24.9944669
  86.0864062   6.7212767  25.2951768  85.3455065   7.8691206  24.6429485
  93.2802385  15.5645250  26.5932169  92.8366239  14.7781628  26.2753074
  93.9419599  15.7524400  25.9276060  88.0389506  17.0941051  21.1192848
  88.5896931  16.9658115  20.3469842  87.2000982  17.3935940  20.7687741
  95.3783623  15.8448050  24.6213571  95.3602099  16.6656931  24.1293840
  96.3003543  15.7202125  24.8463712  91.8356677  13.3592179  25.4637079
  92.3685014  12.5980467  25.2336387  91.3070758  13.0665831  26.2061233
  93.2009390  12.4878172  12.9755891  92.6730752  11.7530931  12.6629128
  92.6996893  13.2652848  12.7295859  98.1802236  10.6827192  18.0922937
  97.5225910  11.3726454  18.1803066  98.9842635  11.0723624  18.4356924
  96.9907695   9.0371565  16.1426879  97.5039577   9.6701557  16.6448589
  97.6408919   8.4372760  15.7770239  94.2530069  19.0155889   8.8987550
  93.5791768  19.3187586   9.5072508  94.6395891  19.8184969   8.5493007
  93.4688526   6.5121020  18.3885220  92.5511087   6.7335967  18.2306908
  93.8848669   6.5867331  17.5296927  94.2523573   7.9112436  13.5187900
  94.9995392   8.4233833  13.2095022  94.5215163   7.5896489  14.3792293
  97.7569491  14.0177566  14.2706022  97.3031818  13.1768476  14.3271212
  97.1263458  14.6538965  14.6080802  96.2002430  15.8554063  15.2055840
  96.4925405  16.4159120  14.4868205  96.7101051  16.1482624  15.9608999
  91.0735118   8.0199597  16.6024649  91.1283727   7.0673434  16.5267126
  90.2626320   8.1759036  17.0865948  89.0127478   6.6376657  14.3615028
  88.1995343   6.9370828  14.7680220  89.5086472   6.2432346  15.0789511
  91.1636055  16.6334414  16.2949293  91.1212234  16.8595260  15.3657825
  92.0798754  16.3997789  16.4435094  94.6101689   7.1018482  23.1929922
  94.9651077   7.3289955  24.0524388  95.2573821   7.4336858  22.5707177
  88.5041552   4.2095013  19.9776263  89.1440932   4.0683772  19.2799227
  87.6719083   3.9229526  19.6014865 100.3668806  12.2913444  18.9090523
 100.8005313  12.1988734  19.7573577 101.0800387  12.2670945  18.2710539
  89.2801856  13.5097443  16.0911256  90.0742455  13.0147763  15.8893831
  88.5693549  12.9815306  15.7278961  94.0996701  15.8915539  20.4423623
  94.1533723  16.4606475  21.2101339  93.2311482  16.0617424  20.0777660
  86.9795094   5.5933095  21.9248075  87.6518148   5.3850457  21.2760724
  86.1524881   5.3955181  21.4853307 101.2284355  12.3337145  21.4423408
 101.4220245  13.2382956  21.6882683 101.1284974  11.8744564  22.2761993
  96.2899464  12.4843888  27.0164289  96.1384970  12.2554440  26.0994372
  96.2804144  13.4414489  27.0295634  93.0584800  10.0575801  22.0010555
  93.9876860  10.2086960  21.8279523  92.6375831  10.1459821  21.1459202
  91.8573132  14.0826465  19.7709093  91.7184218  13.7145249  20.6435031
  91.0687728  14.5974104  19.5993051  92.4521284  19.1835562  11.1134629
  92.6273040  18.7123605  11.9280252  91.7654072  19.8101328  11.3415890
  93.4078347  13.4608068  17.1597931  93.0728180  13.4208838  18.0555580
  92.9082293  12.7952784  16.6868341  87.3822591   8.8675698  22.6850512
  87.2442389   8.1355937  23.2862051  88.2927515   8.7784598  22.4034700
  90.0104892   8.5795657  22.1734191  90.7204511   7.9388849  22.1320810
  89.9674200   8.8308552  23.0960372  97.9991671  15.5163010  25.0940771
  97.9404217  14.8322231  24.4271354  98.4011189  16.2582000  24.6421397
  88.7233826   5.5660875  23.9929831  88.1871183   5.1151613  24.6451427
  88.1350534   5.7006784  23.2500295  87.0182370  22.3324924  17.8874490
  87.2578968  22.9643448  18.5653508  86.1751566  21.9812964  18.1739849
  98.0009078  13.4802594  23.3254750  97.1135857  13.1428516  23.4481149
  98.5707629  12.7485626  23.5623516  79.6538225   9.8126686  16.6497802
  80.3409265   9.4988416  16.0618817  79.4986354  10.7168051  16.3765053
  84.4572947   4.7016883  21.0782825  84.3731136   4.0942552  20.3433235
  83.6355654   5.1925901  21.0792322  91.5310231  18.1404047  20.2915993
  91.4580403  18.9459018  20.8035298  91.0887624  18.3396013  19.4664015
  91.3200011  17.3775817  13.8018815  90.5367533  17.9197497  13.8957040
  92.0192756  17.8949796  14.2013056 102.4826419   8.8910812  18.0871312
 102.4716295   9.7735527  17.7165245 101.6143798   8.5382363  17.8925849
  93.9908915  18.0390881  22.4474152  94.7036887  18.6738346  22.3750054
  93.4998944  18.1354747  21.6314154  95.7126442  11.9442133  14.0191444
  94.7782721  12.0643596  13.8496148  95.8903110  11.0414600  13.7551454
  91.2131630   5.3287829  16.1724705  90.8429417   4.7758870  16.8605611
  91.7090722   4.7245963  15.6199705  89.0420828  15.7885324  23.2679723
  89.7430288  16.4221807  23.4209117  88.5715943  16.1300056  22.5075362
  97.1675224  14.1303274  11.5527630  97.4435068  14.0159869  12.4621504
  96.2979723  13.7320759  11.5139803  96.8422114   8.3429932  21.0932273
  96.1893565   8.5905839  20.4384726  97.2202494   7.5294070  20.7594751
  93.8029288  18.3789625  15.1960444  93.9851683  17.5611281  15.6588196
  94.6262274  18.5957317  14.7585334  94.1371454  17.3057810  12.4575492
  94.6659220  16.7950265  11.8445654  94.3999673  16.9900340  13.3221025
  92.8909687   9.0849743  27.5798310  92.2150324   8.9843872  28.2500686
  93.7137321   8.9288956  28.0434308  84.6388547  15.3221679  20.2010826
  85.2241983  14.5765367  20.3338730  84.4413385  15.6325636  21.0847490
  87.4927202  18.3572927  15.2173268  86.8237577  18.8419054  14.7337308
  87.3540071  18.6042147  16.1316647  79.2306201   7.8927279  18.9215269
  79.2690301   7.3590870  19.7152387  78.7246494   7.3662485  18.3026246
  91.6332470  20.3916670  21.8155926  92.1850778  20.5548292  22.5805012
  91.9738664  20.9821108  21.1435951  86.6096964   2.7391820  22.4177811
  86.6738290   3.6006651  22.0055209  86.5464084   2.1265822  21.6850170
  86.0849236   4.8114953  26.0650845  86.7121275   4.4292030  26.6788370
  85.2277155   4.5929154  26.4306538  96.4843345  15.2177928  27.6704581
  97.0283249  15.8307886  27.1759536  95.9030189  15.7757506  28.1871594
  94.7700858  18.3398646  18.8019609  94.6451997  17.5388386  18.2930554
  95.4279949  18.8344839  18.3133579  86.3909026   4.6947378  17.9796749
  85.6695612   5.3083346  17.8404222  87.1802282   5.2305143  17.9013395
  96.8335766  16.1407666  20.4299159  95.8866102  16.0213017  20.3577485
  97.1818539  15.2530164  20.5125420  93.8382199  15.9360382  16.6303511
  93.6907162  15.0077089  16.8111081  94.6635693  15.9580473  16.1460586
  97.4416321  16.7588941  17.7168384  98.3662869  16.5531802  17.5792835
  97.2731624  16.5105342  18.6257725  88.5742935   6.7483933  18.2006373
  88.4287516   7.0624236  19.0930654  88.0968139   7.3668833  17.6477271
  92.2865449   4.1723821  20.2940390  92.0283226   5.0940892  20.2924720
  91.7550489   3.7754256  20.9840854  97.2311637  17.2774608  13.0730475
  97.4048515  16.7121031  12.3204328  97.7240529  18.0775503  12.8909965
  83.0488597   9.2889277  21.1394034  82.5042065  10.0649085  21.2714308
  83.9267947   9.6360082  20.9813155  98.2186810  16.5941373  10.1727373
  98.9137714  17.2148065  10.3914688  98.5609960  15.7436724  10.4479751
  83.8354619   8.4159174  24.0324191  83.0936355   8.5641809  24.6188821
  83.5147363   8.6767439  23.1690940  91.7798282  17.9575152  23.8304581
  92.0885408  17.7124299  24.7027280  92.5773764  18.1621790  23.3423451
  91.8018894  20.1113061  16.0609957  91.3623884  19.6189440  16.7542814
  92.5527011  19.5686029  15.8202033  84.2811233  16.3024602  16.0634585
  85.1069253  16.0028374  15.6833229  83.9305285  15.5332225  16.5124374
  89.2492766  15.6551070  18.1332259  88.6272775  14.9921776  17.8334487
  89.9197633  15.6812202  17.4505907  82.4819838  14.2210929  17.0223519
  81.6451746  13.7933103  16.8407520  82.4543483  14.4143372  17.9594310
  89.3217293   4.1332859  27.7264765  89.3705449   5.0094981  27.3442535
  89.8639808   3.5910252  27.1536408  99.8072139  14.6773982  27.0065902
  99.0167683  14.6598121  26.4670402  99.5705494  15.2162275  27.7614939
  99.9270014  11.5266448  24.3198631  99.9768019  11.3616456  25.2614153
  99.8183937  10.6593707  23.9296511  88.8106273  14.2054994  11.6090720
  88.9594393  14.8890458  10.9557392  89.6172716  14.1860084  12.1240175
  97.2173776   7.5097376  25.6357937  98.1183639   7.3703841  25.3441935
  97.2921751   7.6751831  26.5756115  91.5516582   4.8864231  24.4811124
  90.6819891   5.1797797  24.2093712  91.7876062   5.4704676  25.2018387
 101.4288211  13.9463390  24.5640652 101.1373019  14.3093370  25.4004113
 100.8160342  13.2330398  24.3853984  99.6775399   9.0696004  23.0320710
 100.1529521   9.2623651  22.2239562  98.7540964   9.1255190  22.7864094
  92.3101678  16.7003124   9.0802467  91.7375645  17.3193311   8.6272939
  92.8834472  17.2502486   9.6142389  95.5298938  16.9840274  10.2111049
  96.4629611  16.9185836  10.4143925  95.4422151  17.8196541   9.7525582
 100.8565146   9.1667884  20.3791315 100.8241466   8.2283885  20.5650999
 101.4665770   9.2451921  19.6457140 104.7556993   8.3691753  20.1171803
 104.0290156   8.2347718  19.5088295 104.3404280   8.6768582  20.9228521
  92.5787169  12.0881683  27.8819176  93.4990179  12.2660282  28.0759223
  92.5436752  11.1437729  27.7298876  85.5749242   9.9982718  20.5241958
  85.7935252  10.9299826  20.5429991  85.9875016   9.6390692  21.3096761
  90.4477107   5.5715924  29.9144707  90.3473834   6.5210281  29.8456798
  90.2298649   5.2434162  29.0420777  81.6657594  10.9023188  18.7765573
  80.9721066  10.4877141  18.2635527  82.4130585  10.9443725  18.1798992
  90.3108377   9.0013062  28.7309768  89.8275459   9.8013423  28.9373657
  90.3969316   9.0121007  27.7777212  83.5794337  10.8341442  16.6531588
  83.5565025  10.9329129  15.7013471  83.8894973  11.6806593  16.9748754
  86.2381715  12.8917597  20.7678202  87.1924968  12.8601539  20.7008134
  86.0394238  12.4308221  21.5828428  86.8281097  11.4618713  23.3349000
  87.6473986  11.9562792  23.3583837  87.1017905  10.5450681  23.3066567
  84.5931943  18.4337217  17.7848400  84.4586411  17.6737618  17.2186398
  84.1764006  19.1578116  17.3177189  87.7501069  19.3306534  17.9966842
  87.6333454  20.2751966  17.8945533  86.9293516  19.0280095  18.3852642
  82.0816011   5.7956847  24.0341197  82.7274875   5.2855801  24.5228422
  81.8733162   6.5325529  24.6084622  94.6069403  12.8637695  29.5333337
  95.4760563  13.0378347  29.1719972  94.1276155  13.6832111  29.4109067
  88.7755583  19.9834796  21.2122771  89.6782830  20.0158406  21.5289266
  88.5492954  19.0535246  21.2269107  90.5309186  18.7365782  17.8732850
  89.5804817  18.7367644  17.7597222  90.8341672  17.9898517  17.3568884
  86.4213502   2.9424464  28.1316211  87.2844964   2.5861269  28.3419535
  85.8478913   2.6038359  28.8191615 106.2661879  24.5726320  18.9378612
 106.9040289  24.4533068  18.2341952 106.1482722  25.5207164  18.9966564
 103.0751585  24.5253749  18.8740137 102.7370097  24.4094813  17.9860671
 103.9441353  24.1244914  18.8541143  98.9338401  26.3789225  14.8637028
  98.3703266  26.2879162  14.0953315  98.8190796  25.5589129  15.3439520
 103.5571368  25.6788600  24.8326342 103.5460009  25.2841399  23.9606846
 103.7192008  24.9454673  25.4260114  96.4802833  27.8740417  17.7021248
  97.2724125  27.5331241  17.2867547  96.7199483  27.9835392  18.6223401
 104.5137960  30.0460193  10.1751492 103.8625939  30.6314273   9.7885506
 105.3082322  30.5766388  10.2346530  98.4393587  27.1349330  10.5738627
  99.2124463  26.5878317  10.4351503  98.7918986  27.9993579  10.7853088
 100.2778629  28.4625712  23.7805526  99.9868495  29.3671343  23.6652192
 100.9135614  28.5042240  24.4949596 101.2034836  25.8402561  20.3706886
 101.7998409  25.6158583  19.6563849 101.2609808  25.0987306  20.9732334
 105.8203147  22.2977774  16.0131820 106.6066237  21.8797197  15.6622237
 106.0841852  23.2023867  16.1813468 105.9913225  27.7350625  10.7120477
 105.3559058  27.8085251  11.4241381 105.6610631  28.3244223  10.0339556
 100.4956153  25.1970102  10.4081452 100.3792412  24.5215005  11.0762536
 100.6058413  24.7102476   9.5913605 102.8387694  24.6580249  14.1128141
 102.4745902  24.1310870  14.8241062 103.6954810  24.2678718  13.9394626
 108.7436995  15.9474582  21.3759407 108.4120320  16.8169993  21.1520622
 108.1482608  15.6310866  22.0553437 105.2368514  28.1487128  20.7755320
 104.9369238  29.0512166  20.6671127 104.8919574  27.8819311  21.6276473
  98.6880996  24.6000924  16.8092024  97.7631492  24.4677139  17.0169716
  98.9365409  25.3795144  17.3061967 108.6365658  20.6669668  18.4552757
 107.7282536  20.5985076  18.1611518 108.5853254  21.1441613  19.2834583
 102.4582402  22.1427806  10.0936156 102.3382027  22.5884857  10.9321637
 101.7634991  22.4913124   9.5349694  96.0489807  24.2434198  17.6435813
  96.1782188  24.4968677  18.5575225  95.3687258  24.8361906  17.3240468
 100.2189294  34.9131448  13.7426287 100.1413324  35.8639273  13.8214768
  99.6150938  34.5677320  14.4001214 102.7106524  22.0859313  26.3987654
 101.9339858  22.6453234  26.3890519 103.3497087  22.5716096  26.9202525
 110.5027305  18.8686106  20.2330631 109.8601685  19.1618639  19.5870426
 109.9982233  18.7539027  21.0383828 100.9652896  24.8944767  25.9605621
 101.7067581  25.4329811  25.6840445 100.2589882  25.5211056  26.1177173
 106.4408236  27.0373907  24.5577783 106.8491592  26.5956318  23.8132415
 105.7185498  26.4626535  24.8111976 102.7939306  21.9746514  21.9311340
 103.6400501  22.3985928  22.0745989 102.7337944  21.3180138  22.6249903
 106.7637051  27.5975098  18.3130072 106.1345913  27.7620812  17.6106140
 106.3762713  28.0116707  19.0841036 110.6426283  28.5329536  15.6674436
 109.9577321  28.9128437  15.1171469 110.7270132  29.1424862  16.4006383
 105.9438751  19.6350882  23.5892513 105.6999683  20.3892943  23.0526789
 106.2198682  20.0136230  24.4239761 107.8977214  26.1789495  22.2669779
 108.1094109  26.8221255  21.5904160 107.8506962  25.3451811  21.7991709
 105.5003443  18.7907315  19.1706351 104.6387922  19.0888569  19.4623089
 105.5265878  19.0077714  18.2387384 102.3165013  27.3349506  15.5780157
 102.7803358  27.6137209  14.7884779 102.0521811  26.4332951  15.3953248
  99.2089094  26.8820987  18.5159920  99.7790451  27.3108256  17.8777405
  99.7997205  26.6003572  19.2144106 101.2533899  23.4572658  12.3869722
 101.9557942  23.9093702  12.8543648 100.9214527  22.8156477  13.0149615
  99.7014260  22.0484415  26.7620931  99.0712921  22.7300696  26.9956328
  99.5950348  21.9367497  25.8174070  94.9959233  21.7156211  17.6886856
  94.2058287  21.9713739  17.2126966  95.4870480  22.5304549  17.7938896
 109.0123042  29.0561450  20.4392136 109.8340486  28.6541637  20.1574818
 109.0085445  28.9529684  21.3908252  96.9473978  22.0800790  14.6470332
  96.1505141  22.1919484  15.1653828  96.7199570  22.4187442  13.7811223
 102.7779646  28.6045493  22.5952847 102.8424078  29.0665901  23.4311019
 102.0690569  27.9742858  22.7235157  93.2796936  21.9686701  20.1201846
  93.5304974  22.8533711  20.3859422  93.8156484  21.7891303  19.3476938
 102.4927663  30.2713601  12.4631827 102.3573338  31.1165137  12.8916675
 103.0337476  30.4732879  11.6997761  98.9795003  16.3505181  29.1246182
  98.5861948  15.7971379  29.7993827  99.7961143  16.6615759  29.5152700
  95.9457061  27.7889039  13.0359752  96.4581581  28.5832289  13.1865317
  96.5979773  27.0915329  12.9693354  97.7551945  30.9054795  15.1182505
  97.9318574  31.8272760  14.9303489  98.5508779  30.5913214  15.5476885
 101.8962964  17.7663060  26.7166439 102.6372677  18.3670213  26.6370901
 102.1280887  17.0240698  26.1584482  97.0404302  22.9519427  24.9944669
  96.9257817  22.0504684  25.2951768  96.1848820  23.1983124  24.6429485
 104.1196140  30.8937167  26.5932169 103.6759994  30.1073546  26.2753074
 104.7813353  31.0816318  25.9276060  98.8783261  32.4232969  21.1192848
  99.4290686  32.2950032  20.3469842  98.0394737  32.7227858  20.7687741
 106.2177378  31.1739967  24.6213571 106.1995853  31.9948848  24.1293840
 107.1397298  31.0494043  24.8463712 102.6750432  28.6884097  25.4637079
 103.2078769  27.9272385  25.2336387 102.1464513  28.3957749  26.2061233
 105.8420127  13.7944163  20.9930721 105.4984396  14.6845804  20.9169831
 106.2099089  13.6045820  20.1300306  93.9105977  26.1177693  13.8119323
  94.7481199  26.5274702  13.5953031  94.0884245  25.1777135  13.7819517
 103.3917521  18.6302475  14.5588394 102.5359117  18.2409325  14.3794033
 103.8044472  18.7094435  13.6988180 104.9216667  16.1648818  18.9579954
 104.4181463  16.1278953  18.1447759 105.2147274  17.0741561  19.0176611
 101.1659553  16.2487548  17.9646136 102.0312550  16.0530356  17.6052025
 101.2337062  16.0197899  18.8915492 104.0403145  27.8170089  12.9755891
 103.5124506  27.0822849  12.6629128 103.5390647  28.5944766  12.7295859
 109.0195991  26.0119110  18.0922937 108.3619665  26.7018371  18.1803066
 109.8236390  26.4015542  18.4356924  98.7721872  18.4789756  15.3362502
  99.3465624  18.2564937  14.6035695  99.3592855  18.5478450  16.0891104
 107.8301449  24.3663483  16.1426879 108.3433331  24.9993474  16.6448589
 108.4802673  23.7664678  15.7770239  99.0991459  20.5094217   9.3558388
  98.2628771  20.8468903   9.6767662  98.9596229  20.3743196   8.4185525
 101.0744540  15.3531005  14.0637572 100.4208952  15.0380022  13.4394187
 101.0325014  14.7306745  14.7897395 105.0923824  34.3447807   8.8987550
 104.4185522  34.6479504   9.5072508 105.4789646  35.1476887   8.5493007
 104.3082280  21.8412938  18.3885220 103.3904842  22.0627885  18.2306908
 104.7242424  21.9159249  17.5296927 105.0917328  23.2404354  13.5187900
 105.8389147  23.7525751  13.2095022 105.3608918  22.9188406  14.3792293
 103.3643978  25.7362894  10.5014854 102.4555197  25.4521927  10.5987324
 103.3939062  26.1561973   9.6418161 108.5963246  29.3469484  14.2706022
 108.1425573  28.5060394  14.3271212 107.9657212  29.9830882  14.6080802
 107.0396185  31.1845981  15.2055840 107.3319159  31.7451038  14.4868205
 107.5494805  31.4774542  15.9608999  93.9332149  23.4568409  14.4830056
  93.7356548  22.8637769  13.7581123  93.3778813  23.1520619  15.2005995
 101.9128872  23.3491515  16.6024649 101.9677482  22.3965351  16.5267126
 101.1020074  23.5050954  17.0865948  99.8521232  21.9668575  14.3615028
  99.0389098  22.2662745  14.7680220 100.3480226  21.5724264  15.0789511
 102.0029810  31.9626332  16.2949293 101.9605989  32.1887178  15.3657825
 102.9192509  31.7289706  16.4435094 105.4495444  22.4310399  23.1929922
 105.8044832  22.6581872  24.0524388 106.0967575  22.7628776  22.5707177
  99.3435307  19.5386930  19.9776263  99.9834686  19.3975689  19.2799227
  98.5112837  19.2521444  19.6014865 111.2062560  27.6205362  18.9090523
 111.6399067  27.5280651  19.7573577 111.9194141  27.5962863  18.2710539
 100.1195611  28.8389361  16.0911256 100.9136209  28.3439681  15.8893831
  99.4087303  28.3107224  15.7278961 104.9390455  31.2207456  20.4423623
 104.9927478  31.7898393  21.2101339 104.0705237  31.3909341  20.0777660
  96.4278374  22.9832442  12.1671008  95.4975962  22.9216898  12.3840971
  96.5235846  22.4608395  11.3707650  96.3463923  19.5087255  14.7549250
  96.6070741  20.4232589  14.6458411  97.1681096  19.0411698  14.9045863
  97.8188849  20.9225012  21.9248075  98.4911902  20.7142375  21.2760724
  96.9918635  20.7247098  21.4853307 112.0678110  27.6629063  21.4423408
 112.2614000  28.5674873  21.6882683 111.9678728  27.2036482  22.2761993
 103.7214421  17.5486953  23.9413735 103.0742336  18.2476903  23.8478212
 104.4915436  17.9823097  24.3089984 107.1293219  27.8135806  27.0164289
 106.9778725  27.5846357  26.0994372 107.1197898  28.7706407  27.0295634
 103.8978555  25.3867718  22.0010555 104.8270615  25.5378878  21.8279523
 103.4769585  25.4751739  21.1459202 102.6966887  29.4118383  19.7709093
 102.5577972  29.0437167  20.6435031 101.9081483  29.9266022  19.5993051
 103.2915039  34.5127479  11.1134629 103.4666794  34.0415522  11.9280252
 102.6047827  35.1393245  11.3415890 104.2472102  28.7899985  17.1597931
 103.9121935  28.7500755  18.0555580 103.7476048  28.1244701  16.6868341
  98.2216346  24.1967615  22.6850512  98.0836144  23.4647854  23.2862051
  99.1321269  24.1076516  22.4034700 100.8498647  23.9087575  22.1734191
 101.5598265  23.2680767  22.1320810 100.8067955  24.1600470  23.0960372
 108.8385425  30.8454928  25.0940771 108.7797971  30.1614148  24.4271354
 109.2404944  31.5873918  24.6421397  99.5627581  20.8952793  23.9929831
  99.0264938  20.4443531  24.6451427  98.9744289  21.0298701  23.2500295
  97.8576124  37.6616842  17.8874490  98.0972722  38.2935366  18.5653508
  97.0145320  37.3104882  18.1739849 108.8402832  28.8094512  23.3254750
 107.9529611  28.4720434  23.4481149 109.4101384  28.0777543  23.5623516
  90.4931980  25.1418604  16.6497802  91.1803019  24.8280334  16.0618817
  90.3380108  26.0459968  16.3765053  95.2966702  20.0308800  21.0782825
  95.2124890  19.4234470  20.3433235  94.4749408  20.5217819  21.0792322
 102.3703986  33.4695964  20.2915993 102.2974157  34.2750936  20.8035298
 101.9281379  33.6687930  19.4664015 102.1593765  32.7067734  13.8018815
 101.3761287  33.2489415  13.8957040 102.8586511  33.2241714  14.2013056
 105.4690416  18.5162364  16.4453020 105.9659115  17.7632326  16.1254091
 104.6977397  18.5526681  15.8796230 113.3220173  24.2202729  18.0871312
 113.3110049  25.1027445  17.7165245 112.4537552  23.8674280  17.8925849
 104.8302669  33.3682798  22.4474152 105.5430642  34.0030263  22.3750054
 104.3392698  33.4646664  21.6314154 106.5520196  27.2734051  14.0191444
 105.6176475  27.3935514  13.8496148 106.7296865  26.3706518  13.7551454
 102.0525384  20.6579747  16.1724705 101.6823172  20.1050787  16.8605611
 102.5484477  20.0537880  15.6199705  99.8814583  31.1177242  23.2679723
 100.5824042  31.7513725  23.4209117  99.4109698  31.4591973  22.5075362
 108.0068979  29.4595192  11.5527630 108.2828823  29.3451786  12.4621504
 107.1373478  29.0612677  11.5139803 107.9109410  15.4831957  18.5932379
 106.9972490  15.7136184  18.7614586 108.3402512  15.5670401  19.4446412
 107.6815869  23.6721849  21.0932273 107.0287319  23.9197757  20.4384726
 108.0596249  22.8585988  20.7594751 104.6423043  33.7081543  15.1960444
 104.8245437  32.8903198  15.6588196 105.4656029  33.9249235  14.7585334
 104.9765208  32.6349728  12.4575492 105.5052975  32.1242182  11.8445654
 105.2393428  32.3192258  13.3221025 103.7303442  24.4141660  27.5798310
 103.0544079  24.3135790  28.2500686 104.5531076  24.2580874  28.0434308
  95.4782301  30.6513597  20.2010826  96.0635738  29.9057285  20.3338730
  95.2807139  30.9617554  21.0847490  98.3320956  33.6864844  15.2173268
  97.6631331  34.1710972  14.7337308  98.1933826  33.9334065  16.1316647
  90.0699956  23.2219197  18.9215269  90.1084055  22.6882788  19.7152387
  89.5640249  22.6954403  18.3026246 102.4726225  35.7208588  21.8155926
 103.0244533  35.8840209  22.5805012 102.8132418  36.3113026  21.1435951
  97.4490718  18.0683738  22.4177811  97.5132045  18.9298569  22.0055209
  97.3857838  17.4557739  21.6850170  96.9242991  20.1406870  26.0650845
  97.5515029  19.7583948  26.6788370  96.0670909  19.9221072  26.4306538
 107.3237099  30.5469845  27.6704581 107.8677003  31.1599804  27.1759536
 106.7423944  31.1049424  28.1871594  93.7008533  21.9483299  11.9969200
  93.9961974  21.0393978  11.9436254  92.7996569  21.9271039  11.6750203
 105.6094612  33.6690563  18.8019609 105.4845752  32.8680303  18.2930554
 106.2673703  34.1636757  18.3133579  97.2302780  20.0239296  17.9796749
  96.5089366  20.6375264  17.8404222  98.0196036  20.5597061  17.9013395
 107.6729520  31.4699583  20.4299159 106.7259856  31.3504935  20.3577485
 108.0212294  30.5822082  20.5125420 100.0329094  17.3593722  24.2537401
 100.5563496  17.6056019  25.0163710  99.8141427  18.1913757  23.8340538
  95.4296375  19.6297397  12.1208525  95.1009081  18.7494776  11.9383631
  95.7835746  19.5745066  13.0084915 104.6775954  31.2652300  16.6303511
 104.5300916  30.3369007  16.8111081 105.5029447  31.2872390  16.1460586
  98.5438198  19.9170367  12.4884003  98.8834271  20.4456288  11.7662611
  98.9910319  20.2550773  13.2642570 108.2810076  32.0880858  17.7168384
 109.2056623  31.8823720  17.5792835 108.1125379  31.8397260  18.6257725
 101.2381639  18.3007418  21.9387071 100.8978459  17.5015231  22.3407751
 100.5320645  18.6009128  21.3663904 101.8898111  15.3856730  20.3914394
 102.7124180  14.9117208  20.2693284 102.1336174  16.1647214  20.8913080
  99.4136689  22.0775851  18.2006373  99.2681270  22.3916154  19.0930654
  98.9361893  22.6960751  17.6477271 101.2733072  19.0678399  18.2487262
 101.2594641  18.1719492  17.9119560 101.9905500  19.0749062  18.8825548
 103.1259203  19.5015739  20.2940390 102.8676981  20.4232809  20.2924720
 102.5944243  19.1046173  20.9840854 108.0705392  32.6066526  13.0730475
 108.2442269  32.0412948  12.3204328 108.5634283  33.4067421  12.8909965
  93.8882352  24.6181195  21.1394034  93.3435820  25.3941003  21.2714308
  94.7661701  24.9651999  20.9813155 100.6769968  17.9492779  13.5174832
 100.7985879  17.0209425  13.7165720 100.3872011  17.9631465  12.6053148
 103.5461159  15.6347689  16.6541552 103.5682855  15.6987022  15.6993532
 103.9629218  14.7952198  16.8482058 109.0580564  31.9233290  10.1727373
 109.7531469  32.5439983  10.3914688 109.4003714  31.0728641  10.4479751
  94.6748373  23.7451091  24.0324191  93.9330110  23.8933727  24.6188821
  94.3541118  24.0059357  23.1690940 102.6192036  33.2867069  23.8304581
 102.9279163  33.0416216  24.7027280 103.4167518  33.4913708  23.3423451
 102.6412648  35.4404979  16.0609957 102.2017638  34.9481358  16.7542814
 103.3920765  34.8977947  15.8202033  95.1204987  31.6316520  16.0634585
  95.9463007  31.3320292  15.6833229  94.7699039  30.8624142  16.5124374
 100.0886520  30.9842988  18.1332259  99.4666530  30.3213693  17.8334487
 100.7591387  31.0104120  17.4505907  93.3213592  29.5502846  17.0223519
  92.4845501  29.1225021  16.8407520  93.2937238  29.7435290  17.9594310
 100.1611048  19.4624776  27.7264765 100.2099203  20.3386899  27.3442535
 100.7033562  18.9202169  27.1536408 110.6465893  30.0065899  27.0065902
 109.8561437  29.9890038  26.4670402 110.4099248  30.5454193  27.7614939
 110.7663769  26.8558366  24.3198631 110.8161773  26.6908373  25.2614153
 110.6577692  25.9885625  23.9296511  99.6500027  29.5346912  11.6090720
  99.7988148  30.2182376  10.9557392 100.4566471  29.5152002  12.1240175
 108.0567531  22.8389294  25.6357937 108.9577394  22.6995759  25.3441935
 108.1315505  23.0043749  26.5756115 102.3910336  20.2156149  24.4811124
 101.5213646  20.5089715  24.2093712 102.6269817  20.7996594  25.2018387
 112.2681965  29.2755307  24.5640652 111.9766774  29.6385288  25.4004113
 111.6554097  28.5622316  24.3853984 110.5169154  24.3987922  23.0320710
 110.9923275  24.5915568  22.2239562 109.5934719  24.4547108  22.7864094
  97.4052660  25.5612089  12.6151788  97.1598702  24.6574419  12.8131999
  97.5748575  25.5629240  11.6731266 105.0949370  16.4335766  21.9976544
 105.6131314  17.1696792  21.6723033 104.7404503  16.7399759  22.8323303
  96.6748308  21.2940447  10.1137950  95.9817553  21.3684802   9.4577986
  96.4300060  20.5300790  10.6359467 103.1495433  32.0295042   9.0802467
 102.5769400  32.6485229   8.6272939 103.7228226  32.5794404   9.6142389
 109.2170823  21.2753682  21.2649016 110.1688246  21.3751780  21.2861240
 109.0474273  20.4831951  21.7747100 107.2385202  18.3609265  21.4508417
 106.6435134  18.6414278  20.7554905 106.9534899  18.8503166  22.2225158
 106.3692693  32.3132192  10.2111049 107.3023366  32.2477754  10.4143925
 106.2815905  33.1488459   9.7525582 111.6958900  24.4959802  20.3791315
 111.6635220  23.5575802  20.5650999 112.3059524  24.5743838  19.6457140
 111.8453389  21.2870845  20.4249599 111.3292438  20.5029302  20.2379527
 112.7293337  20.9589562  20.5896118 115.5950747  23.6983671  20.1171803
 114.8683911  23.5639636  19.5088295 115.1798034  24.0060500  20.9228521
 103.4180924  27.4173601  27.8819176 104.3383933  27.5952200  28.0759223
 103.3830507  26.4729646  27.7298876  92.6363089  22.6112195  16.8072451
  92.3165873  21.7577503  16.5146825  92.0896517  22.8260773  17.5630418
  96.4142996  25.3274636  20.5241958  96.6329006  26.2591743  20.5429991
  96.8268770  24.9682610  21.3096761 101.2870862  20.9007841  29.9144707
 101.1867589  21.8502198  29.8456798 101.0692404  20.5726080  29.0420777
  92.5051349  26.2315106  18.7765573  91.8114820  25.8169059  18.2635527
  93.2524340  26.2735643  18.1798992 101.1502132  24.3304980  28.7309768
 100.6669213  25.1305340  28.9373657 101.2363071  24.3412925  27.7777212
  94.4188091  26.1633360  16.6531588  94.3958779  26.2621047  15.7013471
  94.7288728  27.0098511  16.9748754  97.0775469  28.2209515  20.7678202
  98.0318723  28.1893457  20.7008134  96.8787993  27.7600139  21.5828428
  97.6674851  26.7910631  23.3349000  98.4867740  27.2854710  23.3583837
  97.9411659  25.8742599  23.3066567  95.4325698  33.7629134  17.7848400
  95.2980166  33.0029535  17.2186398  95.0157760  34.4870034  17.3177189
  98.5894824  34.6598451  17.9966842  98.4727208  35.6043884  17.8945533
  97.7687270  34.3572013  18.3852642  92.9209766  21.1248765  24.0341197
  93.5668629  20.6147719  24.5228422  92.7126917  21.8617446  24.6084622
 105.4463158  28.1929612  29.5333337 106.3154317  28.3670264  29.1719972
 104.9669909  29.0124029  29.4109067  99.6149338  35.3126713  21.2122771
 100.5176585  35.3450323  21.5289266  99.3886708  34.3827164  21.2269107
 101.3702940  34.0657700  17.8732850 100.4198571  34.0659561  17.7597222
 101.6735426  33.3190434  17.3568884  97.2607257  18.2716382  28.1316211
  98.1238718  17.9153187  28.3419535  96.6872667  17.9330277  28.8191615
 117.1055633  39.9018238  18.9378612 117.7434043  39.7824986  18.2341952
 116.9876476  40.8499082  18.9966564 113.9145340  39.8545666  18.8740137
 113.5763851  39.7386731  17.9860671 114.7835108  39.4536831  18.8541143
 109.7732155  41.7081143  14.8637028 109.2097021  41.6171080  14.0953315
 109.6584551  40.8881047  15.3439520 114.3965123  41.0080518  24.8326342
 114.3853764  40.6133316  23.9606846 114.5585762  40.2746591  25.4260114
 107.3196587  43.2032334  17.7021248 108.1117879  42.8623159  17.2867547
 107.5593238  43.3127309  18.6223401 115.3531714  45.3752110  10.1751492
 114.7019694  45.9606191   9.7885506 116.1476077  45.9058305  10.2346530
 109.2787341  42.4641248  10.5738627 110.0518217  41.9170235  10.4351503
 109.6312740  43.3285497  10.7853088 111.1172384  43.7917630  23.7805526
 110.8262250  44.6963261  23.6652192 111.7529368  43.8334157  24.4949596
 112.0428591  41.1694478  20.3706886 112.6392163  40.9450501  19.6563849
 112.1003562  40.4279224  20.9732334 116.6596902  37.6269692  16.0131820
 117.4459991  37.2089115  15.6622237 116.9235606  38.5315784  16.1813468
 116.8306979  43.0642542  10.7120477 116.1952812  43.1377169  11.4241381
 116.5004386  43.6536141  10.0339556 111.3349908  40.5262020  10.4081452
 111.2186166  39.8506923  11.0762536 111.4452168  40.0394394   9.5913605
 113.6781449  39.9872167  14.1128141 113.3139656  39.4602788  14.8241062
 114.5348565  39.5970636  13.9394626 119.5830749  31.2766499  21.3759407
 119.2514074  32.1461910  21.1520622 118.9876363  30.9602783  22.0553437
 116.0762269  43.4779045  20.7755320 115.7762992  44.3804084  20.6671127
 115.7313329  43.2111229  21.6276473 109.5274750  39.9292842  16.8092024
 108.6025247  39.7969056  17.0169716 109.7759164  40.7087061  17.3061967
 119.4759413  35.9961585  18.4552757 118.5676290  35.9276994  18.1611518
 119.4247009  36.4733530  19.2834583 113.2976157  37.4719724  10.0936156
 113.1775782  37.9176775  10.9321637 112.6028745  37.8205042   9.5349694
 106.8883562  39.5726116  17.6435813 107.0175943  39.8260595  18.5575225
 106.2081013  40.1653824  17.3240468 111.0583049  50.2423366  13.7426287
 110.9807078  51.1931191  13.8214768 110.4544692  49.8969238  14.4001214
 113.5500279  37.4151231  26.3987654 112.7733613  37.9745151  26.3890519
 114.1890842  37.9008014  26.9202525 121.3421059  34.1978024  20.2330631
 120.6995439  34.4910557  19.5870426 120.8375988  34.0830944  21.0383828
 111.8046651  40.2236684  25.9605621 112.5461335  40.7621728  25.6840445
 111.0983636  40.8502973  26.1177173 117.2801991  42.3665825  24.5577783
 117.6885347  41.9248235  23.8132415 116.5579252  41.7918452  24.8111976
 113.6333061  37.3038432  21.9311340 114.4794256  37.7277845  22.0745989
 113.5731698  36.6472056  22.6249903 117.6030805  42.9267016  18.3130072
 116.9739668  43.0912730  17.6106140 117.2156467  43.3408625  19.0841036
 121.4820037  43.8621453  15.6674436 120.7971075  44.2420355  15.1171469
 121.5663886  44.4716780  16.4006383 116.7832506  34.9642800  23.5892513
 116.5393438  35.7184861  23.0526789 117.0592436  35.3428148  24.4239761
 118.7370969  41.5081412  22.2669779 118.9487864  42.1513172  21.5904160
 118.6900717  40.6743729  21.7991709 116.3397198  34.1199233  19.1706351
 115.4781677  34.4180487  19.4623089 116.3659632  34.3369632  18.2387384
 113.1558767  42.6641424  15.5780157 113.6197113  42.9429127  14.7884779
 112.8915565  41.7624868  15.3953248 110.0482848  42.2112905  18.5159920
 110.6184205  42.6400174  17.8777405 110.6390960  41.9295490  19.2144106
 112.0927653  38.7864576  12.3869722 112.7951696  39.2385620  12.8543648
 111.7608282  38.1448395  13.0149615 110.5408015  37.3776333  26.7620931
 109.9106675  38.0592613  26.9956328 110.4344102  37.2659414  25.8174070
 105.8352987  37.0448129  17.6886856 105.0452041  37.3005657  17.2126966
 106.3264234  37.8596467  17.7938896 119.8516797  44.3853368  20.4392136
 120.6734240  43.9833555  20.1574818 119.8479199  44.2821602  21.3908252
 107.7867732  37.4092708  14.6470332 106.9898896  37.5211402  15.1653828
 107.5593325  37.7479360  13.7811223 113.6173400  43.9337411  22.5952847
 113.6817833  44.3957818  23.4311019 112.9084324  43.3034776  22.7235157
 104.1190690  37.2978619  20.1201846 104.3698728  38.1825629  20.3859422
 104.6550238  37.1183221  19.3476938 113.3321418  45.6005519  12.4631827
 113.1967092  46.4457054  12.8916675 113.8731230  45.8024796  11.6997761
 109.8188757  31.6797098  29.1246182 109.4255703  31.1263297  29.7993827
 110.6354898  31.9907677  29.5152700 106.7850815  43.1180957  13.0359752
 107.2975336  43.9124207  13.1865317 107.4373528  42.4207247  12.9693354
 108.5945700  46.2346713  15.1182505 108.7712328  47.1564678  14.9303489
 109.3902533  45.9205132  15.5476885 112.7356718  33.0954978  26.7166439
 113.4766432  33.6962131  26.6370901 112.9674641  32.3532615  26.1584482
 107.8798056  38.2811345  24.9944669 107.7651571  37.3796602  25.2951768
 107.0242574  38.5275042  24.6429485 114.9589894  46.2229085  26.5932169
 114.5153748  45.4365464  26.2753074 115.6207108  46.4108236  25.9276060
 109.7177015  47.7524887  21.1192848 110.2684440  47.6241950  20.3469842
 108.8788491  48.0519776  20.7687741 117.0571132  46.5031885  24.6213571
 117.0389608  47.3240766  24.1293840 117.9791052  46.3785960  24.8463712
 113.5144186  44.0176015  25.4637079 114.0472523  43.2564303  25.2336387
 112.9858267  43.7249666  26.2061233 116.6813881  29.1236080  20.9930721
 116.3378151  30.0137722  20.9169831 117.0492844  28.9337738  20.1300306
 104.7499732  41.4469611  13.8119323 105.5874954  41.8566619  13.5953031
 104.9278000  40.5069053  13.7819517 114.2311275  33.9594392  14.5588394
 113.3752871  33.5701243  14.3794033 114.6438227  34.0386353  13.6988180
 115.7610422  31.4940736  18.9579954 115.2575217  31.4570871  18.1447759
 116.0541029  32.4033478  19.0176611 112.0053308  31.5779465  17.9646136
 112.8706304  31.3822274  17.6052025 112.0730816  31.3489817  18.8915492
 114.8796899  43.1462007  12.9755891 114.3518261  42.4114767  12.6629128
 114.3784402  43.9236683  12.7295859 119.8589745  41.3411027  18.0922937
 119.2013419  42.0310289  18.1803066 120.6630144  41.7307459  18.4356924
 109.6115627  33.8081673  15.3362502 110.1859379  33.5856855  14.6035695
 110.1986609  33.8770368  16.0891104 118.6695204  39.6955400  16.1426879
 119.1827086  40.3285392  16.6448589 119.3196428  39.0956596  15.7770239
 109.9385214  35.8386134   9.3558388 109.1022526  36.1760821   9.6767662
 109.7989983  35.7035114   8.4185525 111.9138294  30.6822922  14.0637572
 111.2602707  30.3671939  13.4394187 111.8718768  30.0598663  14.7897395
 115.9317578  49.6739724   8.8987550 115.2579277  49.9771421   9.5072508
 116.3183400  50.4768805   8.5493007 115.1476035  37.1704856  18.3885220
 114.2298596  37.3919803  18.2306908 115.5636178  37.2451166  17.5296927
 115.9311082  38.5696271  13.5187900 116.6782901  39.0817669  13.2095022
 116.2002672  38.2480324  14.3792293 114.2037733  41.0654812  10.5014854
 113.2948952  40.7813845  10.5987324 114.2332816  41.4853891   9.6418161
 119.4357000  44.6761402  14.2706022 118.9819327  43.8352312  14.3271212
 118.8050967  45.3122800  14.6080802 117.8789939  46.5137898  15.2055840
 118.1712914  47.0742955  14.4868205 118.3888560  46.8066459  15.9608999
 104.7725903  38.7860326  14.4830056 104.5750303  38.1929687  13.7581123
 104.2172567  38.4812536  15.2005995 112.7522627  38.6783433  16.6024649
 112.8071236  37.7257269  16.5267126 111.9413829  38.8342872  17.0865948
 110.6914987  37.2960492  14.3615028 109.8782852  37.5954663  14.7680220
 111.1873981  36.9016181  15.0789511 112.8423564  47.2918249  16.2949293
 112.7999743  47.5179096  15.3657825 113.7586263  47.0581624  16.4435094
 116.2889198  37.7602317  23.1929922 116.6438586  37.9873790  24.0524388
 116.9361329  38.0920694  22.5707177 110.1829061  34.8678848  19.9776263
 110.8228441  34.7267607  19.2799227 109.3506592  34.5813361  19.6014865
 122.0456315  42.9497280  18.9090523 122.4792821  42.8572569  19.7573577
 122.7587896  42.9254780  18.2710539 110.9589365  44.1681278  16.0911256
 111.7529964  43.6731599  15.8893831 110.2481058  43.6399142  15.7278961
 115.7784210  46.5499374  20.4423623 115.8321232  47.1190310  21.2101339
 114.9098991  46.7201259  20.0777660 107.2672129  38.3124360  12.1671008
 106.3369717  38.2508816  12.3840971 107.3629601  37.7900313  11.3707650
 107.1857678  34.8379173  14.7549250 107.4464495  35.7524506  14.6458411
 108.0074850  34.3703616  14.9045863 108.6582603  36.2516930  21.9248075
 109.3305657  36.0434292  21.2760724 107.8312390  36.0539016  21.4853307
 122.9071864  42.9920981  21.4423408 123.1007754  43.8966791  21.6882683
 122.8072483  42.5328400  22.2761993 114.5608175  32.8778871  23.9413735
 113.9136090  33.5768821  23.8478212 115.3309191  33.3115015  24.3089984
 117.9686973  43.1427723  27.0164289 117.8172479  42.9138275  26.0994372
 117.9591653  44.0998325  27.0295634 114.7372309  40.7159636  22.0010555
 115.6664369  40.8670796  21.8279523 114.3163339  40.8043657  21.1459202
 113.5360641  44.7410300  19.7709093 113.3971727  44.3729085  20.6435031
 112.7475237  45.2557940  19.5993051 114.1308793  49.8419397  11.1134629
 114.3060549  49.3707440  11.9280252 113.4441581  50.4685163  11.3415890
 115.0865856  44.1191903  17.1597931 114.7515689  44.0792673  18.0555580
 114.5869802  43.4536619  16.6868341 109.0610100  39.5259533  22.6850512
 108.9229898  38.7939772  23.2862051 109.9715024  39.4368433  22.4034700
 111.6892401  39.2379492  22.1734191 112.3992020  38.5972685  22.1320810
 111.6461709  39.4892387  23.0960372 119.6779180  46.1746846  25.0940771
 119.6191726  45.4906066  24.4271354 120.0798698  46.9165836  24.6421397
 110.4021335  36.2244710  23.9929831 109.8658692  35.7735449  24.6451427
 109.8138043  36.3590619  23.2500295 108.6969879  52.9908760  17.8874490
 108.9366477  53.6227284  18.5653508 107.8539075  52.6396800  18.1739849
 119.6796587  44.1386430  23.3254750 118.7923366  43.8012352  23.4481149
 120.2495138  43.4069461  23.5623516 101.3325734  40.4710521  16.6497802
 102.0196774  40.1572252  16.0618817 101.1773863  41.3751886  16.3765053
 106.1360456  35.3600718  21.0782825 106.0518645  34.7526388  20.3433235
 105.3143163  35.8509736  21.0792322 113.2097740  48.7987882  20.2915993
 113.1367912  49.6042854  20.8035298 112.7675133  48.9979848  19.4664015
 112.9987520  48.0359652  13.8018815 112.2155042  48.5781332  13.8957040
 113.6980265  48.5533632  14.2013056 116.3084170  33.8454282  16.4453020
 116.8052870  33.0924244  16.1254091 115.5371152  33.8818598  15.8796230
 124.1613928  39.5494647  18.0871312 124.1503804  40.4319363  17.7165245
 123.2931307  39.1966198  17.8925849 115.6696424  48.6974716  22.4474152
 116.3824396  49.3322181  22.3750054 115.1786453  48.7938582  21.6314154
 117.3913951  42.6025969  14.0191444 116.4570230  42.7227431  13.8496148
 117.5690619  41.6998436  13.7551454 112.8919139  35.9871665  16.1724705
 112.5216926  35.4342705  16.8605611 113.3878231  35.3829798  15.6199705
 110.7208337  46.4469160  23.2679723 111.4217797  47.0805643  23.4209117
 110.2503452  46.7883891  22.5075362 118.8462733  44.7887109  11.5527630
 119.1222577  44.6743704  12.4621504 117.9767232  44.3904594  11.5139803
 118.7503165  30.8123875  18.5932379 117.8366245  31.0428102  18.7614586
 119.1796266  30.8962319  19.4446412 118.5209623  39.0013767  21.0932273
 117.8681074  39.2489674  20.4384726 118.8990003  38.1877905  20.7594751
 115.4816797  49.0373460  15.1960444 115.6639192  48.2195116  15.6588196
 116.3049783  49.2541152  14.7585334 115.8158963  47.9641645  12.4575492
 116.3446729  47.4534100  11.8445654 116.0787182  47.6484176  13.3221025
 114.5697196  39.7433578  27.5798310 113.8937833  39.6427707  28.2500686
 115.3924830  39.5872792  28.0434308 106.3176055  45.9805515  20.2010826
 106.9029492  45.2349203  20.3338730 106.1200894  46.2909471  21.0847490
 109.1714711  49.0156762  15.2173268 108.5025086  49.5002890  14.7337308
 109.0327580  49.2625982  16.1316647 100.9093710  38.5511115  18.9215269
 100.9477810  38.0174706  19.7152387 100.4034003  38.0246320  18.3026246
 113.3119979  51.0500506  21.8155926 113.8638287  51.2132127  22.5805012
 113.6526173  51.6404943  21.1435951 108.2884473  33.3975655  22.4177811
 108.3525799  34.2590486  22.0055209 108.2251593  32.7849657  21.6850170
 107.7636745  35.4698788  26.0650845 108.3908784  35.0875865  26.6788370
 106.9064664  35.2512990  26.4306538 118.1630854  45.8761763  27.6704581
 118.7070758  46.4891721  27.1759536 117.5817698  46.4341341  28.1871594
 104.5402288  37.2775217  11.9969200 104.8355729  36.3685895  11.9436254
 103.6390324  37.2562956  11.6750203 116.4488367  48.9982481  18.8019609
 116.3239506  48.1972221  18.2930554 117.1067458  49.4928674  18.3133579
 108.0696535  35.3531214  17.9796749 107.3483121  35.9667181  17.8404222
 108.8589791  35.8888978  17.9013395 118.5123275  46.7991501  20.4299159
 117.5653610  46.6796852  20.3577485 118.8606048  45.9113999  20.5125420
 110.8722848  32.6885640  24.2537401 111.3957250  32.9347937  25.0163710
 110.6535182  33.5205675  23.8340538 106.2690129  34.9589315  12.1208525
 105.9402836  34.0786694  11.9383631 106.6229500  34.9036983  13.0084915
 115.5169708  46.5944217  16.6303511 115.3694671  45.6660925  16.8111081
 116.3423202  46.6164308  16.1460586 109.3831953  35.2462284  12.4884003
 109.7228025  35.7748206  11.7662611 109.8304073  35.5842691  13.2642570
 119.1203830  47.4172776  17.7168384 120.0450378  47.2115637  17.5792835
 118.9519133  47.1689177  18.6257725 112.0775393  33.6299335  21.9387071
 111.7372214  32.8307148  22.3407751 111.3714400  33.9301046  21.3663904
 112.7291865  30.7148648  20.3914394 113.5517935  30.2409126  20.2693284
 112.9729929  31.4939131  20.8913080 110.2530444  37.4067768  18.2006373
 110.1075025  37.7208071  19.0930654 109.7755648  38.0252669  17.6477271
 112.1126827  34.3970316  18.2487262 112.0988396  33.5011410  17.9119560
 112.8299255  34.4040980  18.8825548 113.9652958  34.8307656  20.2940390
 113.7070735  35.7524727  20.2924720 113.4337998  34.4338091  20.9840854
 118.9099146  47.9358444  13.0730475 119.0836024  47.3704866  12.3204328
 119.4028038  48.7359338  12.8909965 104.7276106  39.9473113  21.1394034
 104.1829574  40.7232921  21.2714308 105.6055456  40.2943917  20.9813155
 111.5163723  33.2784697  13.5174832 111.6379634  32.3501343  13.7165720
 111.2265765  33.2923382  12.6053148 114.3854913  30.9639607  16.6541552
 114.4076610  31.0278940  15.6993532 114.8022972  30.1244116  16.8482058
 119.8974319  47.2525208  10.1727373 120.5925223  47.8731901  10.3914688
 120.2397469  46.4020559  10.4479751 105.5142128  39.0743009  24.0324191
 104.7723864  39.2225644  24.6188821 105.1934872  39.3351275  23.1690940
 113.4585791  48.6158987  23.8304581 113.7672917  48.3708134  24.7027280
 114.2561273  48.8205626  23.3423451 113.4806403  50.7696897  16.0609957
 113.0411393  50.2773275  16.7542814 114.2314520  50.2269864  15.8202033
 105.9598742  46.9608438  16.0634585 106.7856762  46.6612209  15.6833229
 105.6092794  46.1916060  16.5124374 110.9280275  46.3134906  18.1332259
 110.3060284  45.6505611  17.8334487 111.5985142  46.3396038  17.4505907
 104.1607347  44.8794764  17.0223519 103.3239255  44.4516938  16.8407520
 104.1330992  45.0727207  17.9594310 111.0004802  34.7916694  27.7264765
 111.0492958  35.6678817  27.3442535 111.5427317  34.2494087  27.1536408
 121.4859648  45.3357817  27.0065902 120.6955192  45.3181956  26.4670402
 121.2493003  45.8746111  27.7614939 121.6057523  42.1850283  24.3198631
 121.6555528  42.0200291  25.2614153 121.4971446  41.3177543  23.9296511
 110.4893782  44.8638829  11.6090720 110.6381902  45.5474294  10.9557392
 111.2960225  44.8443919  12.1240175 118.8961285  38.1681212  25.6357937
 119.7971148  38.0287676  25.3441935 118.9709260  38.3335666  26.5756115
 113.2304091  35.5448066  24.4811124 112.3607400  35.8381632  24.2093712
 113.4663571  36.1288511  25.2018387 123.1075720  44.6047225  24.5640652
 122.8160528  44.9677206  25.4004113 122.4947851  43.8914233  24.3853984
 121.3562908  39.7279840  23.0320710 121.8317030  39.9207486  22.2239562
 120.4328473  39.7839025  22.7864094 108.2446415  40.8904007  12.6151788
 107.9992457  39.9866337  12.8131999 108.4142329  40.8921157  11.6731266
 115.9343125  31.7627683  21.9976544 116.4525068  32.4988710  21.6723033
 115.5798257  32.0691676  22.8323303 107.5142062  36.6232364  10.1137950
 106.8211307  36.6976719   9.4577986 107.2693814  35.8592708  10.6359467
 113.9889187  47.3586960   9.0802467 113.4163154  47.9777147   8.6272939
 114.5621981  47.9086321   9.6142389 120.0564577  36.6045600  21.2649016
 121.0082000  36.7043697  21.2861240 119.8868028  35.8123868  21.7747100
 118.0778957  33.6901183  21.4508417 117.4828889  33.9706196  20.7554905
 117.7928653  34.1795084  22.2225158 117.2086447  47.6424110  10.2111049
 118.1417120  47.5769671  10.4143925 117.1209660  48.4780377   9.7525582
 122.5352655  39.8251719  20.3791315 122.5028975  38.8867720  20.5650999
 123.1453279  39.9035756  19.6457140 122.6847143  36.6162763  20.4249599
 122.1686192  35.8321219  20.2379527 123.5687092  36.2881479  20.5896118
 126.4344502  39.0275589  20.1171803 125.7077665  38.8931554  19.5088295
 126.0191789  39.3352417  20.9228521 114.2574678  42.7465519  27.8819176
 115.1777688  42.9244118  28.0759223 114.2224261  41.8021564  27.7298876
 103.4756843  37.9404112  16.8072451 103.1559628  37.0869420  16.5146825
 102.9290271  38.1552690  17.5630418 107.2536751  40.6566553  20.5241958
 107.4722761  41.5883661  20.5429991 107.6662525  40.2974528  21.3096761
 112.1264616  36.2299759  29.9144707 112.0261343  37.1794116  29.8456798
 111.9086158  35.9017998  29.0420777 103.3445103  41.5607024  18.7765573
 102.6508575  41.1460976  18.2635527 104.0918094  41.6027560  18.1798992
 111.9895886  39.6596898  28.7309768 111.5062968  40.4597258  28.9373657
 112.0756825  39.6704843  27.7777212 105.2581846  41.4925277  16.6531588
 105.2352534  41.5912965  15.7013471 105.5682482  42.3390428  16.9748754
 107.9169224  43.5501432  20.7678202 108.8712477  43.5185375  20.7008134
 107.7181747  43.0892056  21.5828428 108.5068606  42.1202549  23.3349000
 109.3261495  42.6146627  23.3583837 108.7805414  41.2034517  23.3066567
 106.2719452  49.0921052  17.7848400 106.1373920  48.3321453  17.2186398
 105.8551515  49.8161952  17.3177189 109.4288578  49.9890369  17.9966842
 109.3120962  50.9335801  17.8945533 108.6081025  49.6863931  18.3852642
 116.2856912  43.5221530  29.5333337 117.1548072  43.6962182  29.1719972
 115.8063664  44.3415947  29.4109067 110.4543092  50.6418631  21.2122771
 111.3570339  50.6742241  21.5289266 110.2280463  49.7119082  21.2269107
 112.2096694  49.3949617  17.8732850 111.2592326  49.3951479  17.7597222
 112.5129181  48.6482352  17.3568884 108.1001011  33.6008299  28.1316211
 108.9632473  33.2445104  28.3419535 107.5266422  33.2622194  28.8191615
 127.9449388  55.2310156  18.9378612 128.5827798  55.1116903  18.2341952
 127.8270231  56.1791000  18.9966564 124.7539094  55.1837584  18.8740137
 124.4157606  55.0678649  17.9860671 125.6228862  54.7828749  18.8541143
 120.6125910  57.0373060  14.8637028 120.0490775  56.9462997  14.0953315
 120.4978305  56.2172965  15.3439520 125.2358877  56.3372436  24.8326342
 125.2247518  55.9425234  23.9606846 125.3979517  55.6038508  25.4260114
 118.1590342  58.5324252  17.7021248 118.9511634  58.1915077  17.2867547
 118.3986992  58.6419227  18.6223401 126.1925469  60.7044028  10.1751492
 125.5413448  61.2898108   9.7885506 126.9869831  61.2350223  10.2346530
 120.1181096  57.7933165  10.5738627 120.8911972  57.2462152  10.4351503
 120.4706495  58.6577415  10.7853088 121.9566138  59.1209547  23.7805526
 121.6656004  60.0255178  23.6652192 122.5923123  59.1626075  24.4949596
 122.8822345  56.4986396  20.3706886 123.4785917  56.2742418  19.6563849
 122.9397317  55.7571141  20.9732334 127.4990656  52.9561610  16.0131820
 128.2853746  52.5381033  15.6622237 127.7629361  53.8607702  16.1813468
 127.6700734  58.3934460  10.7120477 127.0346567  58.4669086  11.4241381
 127.3398140  58.9828059  10.0339556 122.1743662  55.8553937  10.4081452
 122.0579920  55.1798841  11.0762536 122.2845922  55.3686311   9.5913605
 124.5175203  55.3164084  14.1128141 124.1533411  54.7894705  14.8241062
 125.3742319  54.9262553  13.9394626 130.4224504  46.6058417  21.3759407
 130.0907829  47.4753828  21.1520622 129.8270117  46.2894701  22.0553437
 126.9156023  58.8070963  20.7755320 126.6156747  59.7096002  20.6671127
 126.5707083  58.5403146  21.6276473 120.3668505  55.2584760  16.8092024
 119.4419001  55.1260974  17.0169716 120.6152918  56.0378979  17.3061967
 130.3153167  51.3253503  18.4552757 129.4070045  51.2568912  18.1611518
 130.2640763  51.8025448  19.2834583 124.1369911  52.8011642  10.0936156
 124.0169536  53.2468692  10.9321637 123.4422500  53.1496959   9.5349694
 117.7277316  54.9018033  17.6435813 117.8569697  55.1552512  18.5575225
 117.0474767  55.4945741  17.3240468 121.8976803  65.5715283  13.7426287
 121.8200833  66.5223108  13.8214768 121.2938447  65.2261156  14.4001214
 124.3894033  52.7443149  26.3987654 123.6127367  53.3037069  26.3890519
 125.0284596  53.2299932  26.9202525 132.1814814  49.5269942  20.2330631
 131.5389194  49.8202475  19.5870426 131.6769742  49.4122862  21.0383828
 122.6440405  55.5528602  25.9605621 123.3855090  56.0913646  25.6840445
 121.9377391  56.1794891  26.1177173 128.1195745  57.6957743  24.5577783
 128.5279101  57.2540153  23.8132415 127.3973007  57.1210370  24.8111976
 124.4726815  52.6330349  21.9311340 125.3188010  53.0569763  22.0745989
 124.4125453  51.9763974  22.6249903 128.4424560  58.2558933  18.3130072
 127.8133422  58.4204647  17.6106140 128.0550222  58.6700543  19.0841036
 132.3213792  59.1913371  15.6674436 131.6364830  59.5712272  15.1171469
 132.4057641  59.8008698  16.4006383 127.6226260  50.2934718  23.5892513
 127.3787192  51.0476778  23.0526789 127.8986191  50.6720065  24.4239761
 129.5764723  56.8373330  22.2669779 129.7881618  57.4805090  21.5904160
 129.5294471  56.0035647  21.7991709 127.1790952  49.4491151  19.1706351
 126.3175431  49.7472404  19.4623089 127.2053387  49.6661550  18.2387384
 123.9952522  57.9933341  15.5780157 124.4590867  58.2721044  14.7884779
 123.7309320  57.0916786  15.3953248 120.8876603  57.5404823  18.5159920
 121.4577960  57.9692091  17.8777405 121.4784714  57.2587408  19.2144106
 122.9321408  54.1156494  12.3869722 123.6345451  54.5677537  12.8543648
 122.6002036  53.4740313  13.0149615 121.3801769  52.7068250  26.7620931
 120.7500430  53.3884531  26.9956328 121.2737857  52.5951332  25.8174070
 116.6746742  52.3740046  17.6886856 115.8845796  52.6297575  17.2126966
 117.1657989  53.1888384  17.7938896 130.6910551  59.7145285  20.4392136
 131.5127995  59.3125473  20.1574818 130.6872954  59.6113520  21.3908252
 118.6261487  52.7384626  14.6470332 117.8292650  52.8503320  15.1653828
 118.3987079  53.0771278  13.7811223 124.4567155  59.2629329  22.5952847
 124.5211587  59.7249736  23.4311019 123.7478078  58.6326694  22.7235157
 114.9584445  52.6270537  20.1201846 115.2092483  53.5117547  20.3859422
 115.4943993  52.4475138  19.3476938 124.1715172  60.9297436  12.4631827
 124.0360847  61.7748972  12.8916675 124.7124985  61.1316714  11.6997761
 120.6582512  47.0089016  29.1246182 120.2649457  46.4555215  29.7993827
 121.4748652  47.3199595  29.5152700 117.6244570  58.4472874  13.0359752
 118.1369090  59.2416125  13.1865317 118.2767282  57.7499165  12.9693354
 119.4339454  61.5638631  15.1182505 119.6106083  62.4856595  14.9303489
 120.2296288  61.2497050  15.5476885 123.5750473  48.4246895  26.7166439
 124.3160186  49.0254048  26.6370901 123.8068396  47.6824533  26.1584482
 118.7191811  53.6103262  24.9944669 118.6045326  52.7088520  25.2951768
 117.8636329  53.8566959  24.6429485 125.7983649  61.5521003  26.5932169
 125.3547503  60.7657381  26.2753074 126.4600862  61.7400153  25.9276060
 120.5570770  63.0816804  21.1192848 121.1078195  62.9533868  20.3469842
 119.7182246  63.3811693  20.7687741 127.8964887  61.8323803  24.6213571
 127.8783362  62.6532684  24.1293840 128.8184807  61.7077878  24.8463712
 124.3537941  59.3467932  25.4637079 124.8866278  58.5856220  25.2336387
 123.8252022  59.0541584  26.2061233 127.5207636  44.4527998  20.9930721
 127.1771905  45.3429640  20.9169831 127.8886598  44.2629656  20.1300306
 115.5893486  56.7761529  13.8119323 116.4268708  57.1858537  13.5953031
 115.7671754  55.8360971  13.7819517 125.0705030  49.2886310  14.5588394
 124.2146626  48.8993160  14.3794033 125.4831981  49.3678271  13.6988180
 126.6004176  46.8232653  18.9579954 126.0968972  46.7862788  18.1447759
 126.8934783  47.7325396  19.0176611 122.8447062  46.9071383  17.9646136
 123.7100059  46.7114192  17.6052025 122.9124571  46.6781735  18.8915492
 125.7190654  58.4753925  12.9755891 125.1912015  57.7406684  12.6629128
 125.2178156  59.2528601  12.7295859 130.6983500  56.6702945  18.0922937
 130.0407174  57.3602207  18.1803066 131.5023899  57.0599377  18.4356924
 120.4509381  49.1373591  15.3362502 121.0253133  48.9148772  14.6035695
 121.0380364  49.2062285  16.0891104 129.5088958  55.0247318  16.1426879
 130.0220840  55.6577310  16.6448589 130.1590182  54.4248513  15.7770239
 120.7778968  51.1678052   9.3558388 119.9416280  51.5052739   9.6767662
 120.6383738  51.0327032   8.4185525 122.7532049  46.0114840  14.0637572
 122.0996461  45.6963857  13.4394187 122.7112523  45.3890580  14.7897395
 126.7711333  65.0031642   8.8987550 126.0973031  65.3063339   9.5072508
 127.1577155  65.8060722   8.5493007 125.9869789  52.4996773  18.3885220
 125.0692351  52.7211720  18.2306908 126.4029933  52.5743084  17.5296927
 126.7704837  53.8988189  13.5187900 127.5176656  54.4109586  13.2095022
 127.0396426  53.5772242  14.3792293 125.0431487  56.3946730  10.5014854
 124.1342706  56.1105763  10.5987324 125.0726571  56.8145808   9.6418161
 130.2750755  60.0053319  14.2706022 129.8213082  59.1644229  14.3271212
 129.6444721  60.6414718  14.6080802 128.7183694  61.8429816  15.2055840
 129.0106668  62.4034873  14.4868205 129.2282314  62.1358377  15.9608999
 115.6119658  54.1152244  14.4830056 115.4144057  53.5221605  13.7581123
 115.0566321  53.8104454  15.2005995 123.5916381  54.0075350  16.6024649
 123.6464991  53.0549187  16.5267126 122.7807583  54.1634790  17.0865948
 121.5308741  52.6252410  14.3615028 120.7176607  52.9246581  14.7680220
 122.0267735  52.2308099  15.0789511 123.6817319  62.6210167  16.2949293
 123.6393498  62.8471013  15.3657825 124.5980018  62.3873542  16.4435094
 127.1282953  53.0894235  23.1929922 127.4832340  53.3165708  24.0524388
 127.7755084  53.4212611  22.5707177 121.0222816  50.1970766  19.9776263
 121.6622195  50.0559525  19.2799227 120.1900346  49.9105279  19.6014865
 132.8850069  58.2789198  18.9090523 133.3186576  58.1864487  19.7573577
 133.5981650  58.2546698  18.2710539 121.7983120  59.4973196  16.0911256
 122.5923718  59.0023516  15.8893831 121.0874812  58.9691059  15.7278961
 126.6177964  61.8791292  20.4423623 126.6714986  62.4482228  21.2101339
 125.7492746  62.0493177  20.0777660 118.1065883  53.6416278  12.1671008
 117.1763471  53.5800733  12.3840971 118.2023355  53.1192231  11.3707650
 118.0251432  50.1671091  14.7549250 118.2858250  51.0816424  14.6458411
 118.8468605  49.6995533  14.9045863 119.4976358  51.5808848  21.9248075
 120.1699411  51.3726210  21.2760724 118.6706144  51.3830934  21.4853307
 133.7465619  58.3212898  21.4423408 133.9401509  59.2258709  21.6882683
 133.6466237  57.8620317  22.2761993 125.4001930  48.2070789  23.9413735
 124.7529845  48.9060738  23.8478212 126.1702945  48.6406933  24.3089984
 128.8080728  58.4719641  27.0164289 128.6566234  58.2430193  26.0994372
 128.7985407  59.4290242  27.0295634 125.5766064  56.0451554  22.0010555
 126.5058124  56.1962713  21.8279523 125.1557094  56.1335574  21.1459202
 124.3754396  60.0702218  19.7709093 124.2365481  59.7021002  20.6435031
 123.5868992  60.5849858  19.5993051 124.9702548  65.1711315  11.1134629
 125.1454303  64.6999358  11.9280252 124.2835336  65.7977081  11.3415890
 125.9259611  59.4483821  17.1597931 125.5909443  59.4084591  18.0555580
 125.4263557  58.7828537  16.6868341 119.9003855  54.8551451  22.6850512
 119.7623653  54.1231690  23.2862051 120.8108778  54.7660351  22.4034700
 122.5286156  54.5671410  22.1734191 123.2385774  53.9264602  22.1320810
 122.4855464  54.8184305  23.0960372 130.5172934  61.5038763  25.0940771
 130.4585480  60.8197984  24.4271354 130.9192453  62.2457753  24.6421397
 121.2415089  51.5536628  23.9929831 120.7052447  51.1027366  24.6451427
 120.6531798  51.6882537  23.2500295 119.5363633  68.3200677  17.8874490
 119.7760231  68.9519201  18.5653508 118.6932829  67.9688717  18.1739849
 130.5190341  59.4678347  23.3254750 129.6317120  59.1304269  23.4481149
 131.0888893  58.7361379  23.5623516 112.1719489  55.8002439  16.6497802
 112.8590528  55.4864169  16.0618817 112.0167617  56.7043804  16.3765053
 116.9754211  50.6892636  21.0782825 116.8912399  50.0818305  20.3433235
 116.1536917  51.1801654  21.0792322 124.0491495  64.1279800  20.2915993
 123.9761666  64.9334771  20.8035298 123.6068888  64.3271766  19.4664015
 123.8381274  63.3651570  13.8018815 123.0548796  63.9073250  13.8957040
 124.5374020  63.8825549  14.2013056 127.1477925  49.1746199  16.4453020
 127.6446624  48.4216162  16.1254091 126.3764906  49.2110516  15.8796230
 135.0007682  54.8786565  18.0871312 134.9897558  55.7611280  17.7165245
 134.1325061  54.5258116  17.8925849 126.5090178  64.0266634  22.4474152
 127.2218151  64.6614099  22.3750054 126.0180207  64.1230500  21.6314154
 128.2307705  57.9317886  14.0191444 127.2963984  58.0519349  13.8496148
 128.4084374  57.0290353  13.7551454 123.7312893  51.3163582  16.1724705
 123.3610681  50.7634623  16.8605611 124.2271986  50.7121716  15.6199705
 121.5602092  61.7761077  23.2679723 122.2611551  62.4097560  23.4209117
 121.0897207  62.1175809  22.5075362 129.6856488  60.1179027  11.5527630
 129.9616332  60.0035622  12.4621504 128.8160986  59.7196512  11.5139803
 129.5896919  46.1415793  18.5932379 128.6759999  46.3720020  18.7614586
 130.0190021  46.2254237  19.4446412 129.3603378  54.3305685  21.0932273
 128.7074828  54.5781592  20.4384726 129.7383758  53.5169823  20.7594751
 126.3210552  64.3665378  15.1960444 126.5032946  63.5487034  15.6588196
 127.1443538  64.5833070  14.7585334 126.6552717  63.2933563  12.4575492
 127.1840484  62.7826018  11.8445654 126.9180937  62.9776093  13.3221025
 125.4090951  55.0725496  27.5798310 124.7331588  54.9719625  28.2500686
 126.2318585  54.9164710  28.0434308 117.1569810  61.3097432  20.2010826
 117.7423247  60.5641120  20.3338730 116.9594648  61.6201389  21.0847490
 120.0108465  64.3448680  15.2173268 119.3418840  64.8294807  14.7337308
 119.8721335  64.5917900  16.1316647 111.7487465  53.8803033  18.9215269
 111.7871564  53.3466623  19.7152387 111.2427758  53.3538238  18.3026246
 124.1513734  66.3792423  21.8155926 124.7032042  66.5424045  22.5805012
 124.4919927  66.9696861  21.1435951 119.1278227  48.7267573  22.4177811
 119.1919553  49.5882404  22.0055209 119.0645347  48.1141575  21.6850170
 118.6030500  50.7990706  26.0650845 119.2302538  50.4167783  26.6788370
 117.7458418  50.5804907  26.4306538 129.0024608  61.2053681  27.6704581
 129.5464512  61.8183639  27.1759536 128.4211453  61.7633259  28.1871594
 115.3796042  52.6067135  11.9969200 115.6749483  51.6977813  11.9436254
 114.4784078  52.5854874  11.6750203 127.2882121  64.3274399  18.8019609
 127.1633261  63.5264139  18.2930554 127.9461212  64.8220592  18.3133579
 118.9090289  50.6823131  17.9796749 118.1876875  51.2959099  17.8404222
 119.6983545  51.2180896  17.9013395 129.3517029  62.1283419  20.4299159
 128.4047365  62.0088770  20.3577485 129.6999803  61.2405917  20.5125420
 121.7116603  48.0177558  24.2537401 122.2351005  48.2639854  25.0163710
 121.4928936  48.8497593  23.8340538 117.1083884  50.2881232  12.1208525
 116.7796590  49.4078611  11.9383631 117.4623255  50.2328901  13.0084915
 126.3563463  61.9236135  16.6303511 126.2088425  60.9952842  16.8111081
 127.1816956  61.9456226  16.1460586 120.2225707  50.5754202  12.4884003
 120.5621780  51.1040123  11.7662611 120.6697828  50.9134608  13.2642570
 129.9597585  62.7464694  17.7168384 130.8844132  62.5407555  17.5792835
 129.7912888  62.4981095  18.6257725 122.9169148  48.9591253  21.9387071
 122.5765968  48.1599066  22.3407751 122.2108154  49.2592964  21.3663904
 123.5685620  46.0440565  20.3914394 124.3911689  45.5701043  20.2693284
 123.8123683  46.8231049  20.8913080 121.0924198  52.7359686  18.2006373
 120.9468779  53.0499989  19.0930654 120.6149402  53.3544586  17.6477271
 122.9520581  49.7262234  18.2487262 122.9382150  48.8303327  17.9119560
 123.6693009  49.7332898  18.8825548 124.8046712  50.1599574  20.2940390
 124.5464490  51.0816645  20.2924720 124.2731752  49.7630009  20.9840854
 129.7492901  63.2650361  13.0730475 129.9229778  62.6996784  12.3204328
 130.2421792  64.0651256  12.8909965 115.5669861  55.2765030  21.1394034
 115.0223329  56.0524838  21.2714308 116.4449210  55.6235835  20.9813155
 122.3557477  48.6076614  13.5174832 122.4773388  47.6793260  13.7165720
 122.0659520  48.6215300  12.6053148 125.2248668  46.2931525  16.6541552
 125.2470364  46.3570858  15.6993532 125.6416727  45.4536033  16.8482058
 130.7368073  62.5817126  10.1727373 131.4318978  63.2023818  10.3914688
 131.0791223  61.7312477  10.4479751 116.3535882  54.4034927  24.0324191
 115.6117618  54.5517562  24.6188821 116.0328627  54.6643192  23.1690940
 124.2979545  63.9450905  23.8304581 124.6066672  63.7000052  24.7027280
 125.0955027  64.1497543  23.3423451 124.3200157  66.0988814  16.0609957
 123.8805147  65.6065193  16.7542814 125.0708274  65.5561782  15.8202033
 116.7992496  62.2900355  16.0634585 117.6250516  61.9904127  15.6833229
 116.4486548  61.5207978  16.5124374 121.7674029  61.6426824  18.1332259
 121.1454039  60.9797529  17.8334487 122.4378896  61.6687955  17.4505907
 115.0001101  60.2086682  17.0223519 114.1633009  59.7808856  16.8407520
 114.9724747  60.4019125  17.9594310 121.8398557  50.1208612  27.7264765
 121.8886712  50.9970734  27.3442535 122.3821071  49.5786005  27.1536408
 132.3253402  60.6649735  27.0065902 131.5348946  60.6473874  26.4670402
 132.0886757  61.2038028  27.7614939 132.4451278  57.5142201  24.3198631
 132.4949282  57.3492209  25.2614153 132.3365201  56.6469460  23.9296511
 121.3287536  60.1930747  11.6090720 121.4775657  60.8766211  10.9557392
 122.1353980  60.1735837  12.1240175 129.7355040  53.4973129  25.6357937
 130.6364903  53.3579594  25.3441935 129.8103014  53.6627584  26.5756115
 124.0697845  50.8739984  24.4811124 123.2001155  51.1673550  24.2093712
 124.3057326  51.4580429  25.2018387 133.9469474  59.9339143  24.5640652
 133.6554283  60.2969123  25.4004113 133.3341606  59.2206151  24.3853984
 132.1956663  55.0571757  23.0320710 132.6710784  55.2499404  22.2239562
 131.2722228  55.1130943  22.7864094 119.0840169  56.2195925  12.6151788
 118.8386211  55.3158254  12.8131999 119.2536084  56.2213075  11.6731266
 126.7736879  47.0919601  21.9976544 127.2918823  47.8280628  21.6723033
 126.4192012  47.3983594  22.8323303 118.3535817  51.9524282  10.1137950
 117.6605062  52.0268637   9.4577986 118.1087569  51.1884626  10.6359467
 124.8282942  62.6878877   9.0802467 124.2556909  63.3069064   8.6272939
 125.4015735  63.2378239   9.6142389 130.8958332  51.9337517  21.2649016
 131.8475754  52.0335615  21.2861240 130.7261782  51.1415786  21.7747100
 128.9172711  49.0193101  21.4508417 128.3222643  49.2998113  20.7554905
 128.6322408  49.5087002  22.2225158 128.0480202  62.9716027  10.2111049
 128.9810875  62.9061589  10.4143925 127.9603414  63.8072294   9.7525582
 133.3746409  55.1543637  20.3791315 133.3422729  54.2159638  20.5650999
 133.9847033  55.2327674  19.6457140 133.5240898  51.9454681  20.4249599
 133.0079947  51.1613137  20.2379527 134.4080846  51.6173397  20.5896118
 137.2738256  54.3567507  20.1171803 136.5471420  54.2223471  19.5088295
 136.8585543  54.6644335  20.9228521 125.0968433  58.0757436  27.8819176
 126.0171442  58.2536035  28.0759223 125.0618016  57.1313482  27.7298876
 114.3150598  53.2696030  16.8072451 113.9953382  52.4161338  16.5146825
 113.7684026  53.4844608  17.5630418 118.0930505  55.9858471  20.5241958
 118.3116515  56.9175579  20.5429991 118.5056279  55.6266445  21.3096761
 122.9658371  51.5591677  29.9144707 122.8655098  52.5086034  29.8456798
 122.7479913  51.2309916  29.0420777 114.1838858  56.8898941  18.7765573
 113.4902329  56.4752894  18.2635527 114.9311849  56.9319478  18.1798992
 122.8289641  54.9888815  28.7309768 122.3456722  55.7889176  28.9373657
 122.9150580  54.9996760  27.7777212 116.0975600  56.8217195  16.6531588
 116.0746288  56.9204882  15.7013471 116.4076237  57.6682346  16.9748754
 118.7562978  58.8793350  20.7678202 119.7106232  58.8477292  20.7008134
 118.5575502  58.4183974  21.5828428 119.3462360  57.4494466  23.3349000
 120.1655249  57.9438545  23.3583837 119.6199168  56.5326434  23.3066567
 117.1113207  64.4212970  17.7848400 116.9767675  63.6613371  17.2186398
 116.6945269  65.1453870  17.3177189 120.2682333  65.3182287  17.9966842
 120.1514717  66.2627719  17.8945533 119.4474779  65.0155848  18.3852642
 114.5997275  51.7832600  24.0341197 115.2456138  51.2731554  24.5228422
 114.3914426  52.5201282  24.6084622 127.1250667  58.8513448  29.5333337
 127.9941826  59.0254100  29.1719972 126.6457418  59.6707864  29.4109067
 121.2936847  65.9710549  21.2122771 122.1964094  66.0034159  21.5289266
 121.0674217  65.0411000  21.2269107 123.0490449  64.7241535  17.8732850
 122.0986080  64.7243397  17.7597222 123.3522935  63.9774270  17.3568884
 118.9394766  48.9300217  28.1316211 119.8026227  48.5737022  28.3419535
 118.3660176  48.5914112  28.8191615 138.7843142  70.5602074  18.9378612
 139.4221552  70.4408821  18.2341952 138.6663985  71.5082917  18.9966564
 135.5932849  70.5129502  18.8740137 135.2551360  70.3970566  17.9860671
 136.4622617  70.1120667  18.8541143 131.4519664  72.3664978  14.8637028
 130.8884530  72.2754915  14.0953315 131.3372059  71.5464882  15.3439520
 136.0752632  71.6664353  24.8326342 136.0641273  71.2717152  23.9606846
 136.2373271  70.9330426  25.4260114 128.9984096  73.8616170  17.7021248
 129.7905388  73.5206994  17.2867547 129.2380747  73.9711145  18.6223401
 132.7959893  74.4501465  23.7805526 132.5049759  75.3547096  23.6652192
 133.4316877  74.4917993  24.4949596 133.7216100  71.8278314  20.3706886
 134.3179672  71.6034336  19.6563849 133.7791071  71.0863059  20.9732334
 138.3384411  68.2853527  16.0131820 139.1247500  67.8672951  15.6622237
 138.6023115  69.1899620  16.1813468 135.3568958  70.6456002  14.1128141
 134.9927165  70.1186623  14.8241062 136.2136074  70.2554471  13.9394626
 137.7549778  74.1362881  20.7755320 137.4550501  75.0387919  20.6671127
 137.4100837  73.8695064  21.6276473 131.2062259  70.5876677  16.8092024
 130.2812756  70.4552892  17.0169716 131.4546673  71.3670897  17.3061967
 141.1546922  66.6545421  18.4552757 140.2463799  66.5860829  18.1611518
 141.1034518  67.1317366  19.2834583 134.9763666  68.1303559  10.0936156
 134.8563291  68.5760610  10.9321637 134.2816254  68.4788877   9.5349694
 128.5671070  70.2309951  17.6435813 128.6963452  70.4844430  18.5575225
 127.8868522  70.8237659  17.3240468 135.2287788  68.0735066  26.3987654
 134.4521122  68.6328987  26.3890519 135.8678351  68.5591849  26.9202525
 133.4834160  70.8820520  25.9605621 134.2248844  71.4205564  25.6840445
 132.7771145  71.5086809  26.1177173 138.9589499  73.0249660  24.5577783
 139.3672856  72.5832071  23.8132415 138.2366761  72.4502288  24.8111976
 135.3120570  67.9622267  21.9311340 136.1581765  68.3861681  22.0745989
 135.2519207  67.3055891  22.6249903 139.2818314  73.5850851  18.3130072
 138.6527177  73.7496565  17.6106140 138.8943976  73.9992460  19.0841036
 138.4620015  65.6226635  23.5892513 138.2180947  66.3768696  23.0526789
 138.7379945  66.0011983  24.4239761 140.4158478  72.1665248  22.2669779
 140.6275373  72.8097008  21.5904160 140.3688226  71.3327564  21.7991709
 138.0184707  64.7783068  19.1706351 137.1569186  65.0764322  19.4623089
 138.0447141  64.9953467  18.2387384 134.8346276  73.3225259  15.5780157
 135.2984622  73.6012962  14.7884779 134.5703074  72.4208704  15.3953248
 131.7270357  72.8696741  18.5159920 132.2971714  73.2984009  17.8777405
 132.3178469  72.5879325  19.2144106 133.7715162  69.4448411  12.3869722
 134.4739205  69.8969455  12.8543648 133.4395791  68.8032230  13.0149615
 132.2195524  68.0360168  26.7620931 131.5894184  68.7176449  26.9956328
 132.1131611  67.9243250  25.8174070 127.5140496  67.7031964  17.6886856
 126.7239550  67.9589493  17.2126966 128.0051743  68.5180302  17.7938896
 129.4655241  68.0676543  14.6470332 128.6686405  68.1795237  15.1653828
 129.2380834  68.4063195  13.7811223 135.2960909  74.5921246  22.5952847
 135.3605342  75.0541654  23.4311019 134.5871833  73.9618611  22.7235157
 125.7978199  67.9562454  20.1201846 126.0486237  68.8409464  20.3859422
 126.3337747  67.7767056  19.3476938 131.4976266  62.3380934  29.1246182
 131.1043212  61.7847132  29.7993827 132.3142407  62.6491512  29.5152700
 128.4638324  73.7764792  13.0359752 128.9762845  74.5708042  13.1865317
 129.1161037  73.0791082  12.9693354 130.2733209  76.8930548  15.1182505
 130.4499837  77.8148513  14.9303489 131.0690042  76.5788967  15.5476885
 134.4144227  63.7538813  26.7166439 135.1553941  64.3545966  26.6370901
 134.6462150  63.0116451  26.1584482 129.5585565  68.9395180  24.9944669
 129.4439080  68.0380437  25.2951768 128.7030083  69.1858877  24.6429485
 136.6377403  76.8812920  26.5932169 136.1941257  76.0949299  26.2753074
 137.2994617  77.0692071  25.9276060 131.3964524  78.4108722  21.1192848
 131.9471949  78.2825785  20.3469842 130.5576000  78.7103611  20.7687741
 138.7358641  77.1615720  24.6213571 138.7177116  77.9824601  24.1293840
 139.6578561  77.0369796  24.8463712 135.1931695  74.6759850  25.4637079
 135.7260032  73.9148138  25.2336387 134.6645776  74.3833502  26.2061233
 138.3601390  59.7819916  20.9930721 138.0165660  60.6721558  20.9169831
 138.7280353  59.5921573  20.1300306 126.4287241  72.1053446  13.8119323
 127.2662463  72.5150455  13.5953031 126.6065509  71.1652888  13.7819517
 135.9098784  64.6178228  14.5588394 135.0540380  64.2285078  14.3794033
 136.3225736  64.6970189  13.6988180 137.4397931  62.1524571  18.9579954
 136.9362726  62.1154706  18.1447759 137.7328538  63.0617314  19.0176611
 133.6840817  62.2363301  17.9646136 134.5493813  62.0406109  17.6052025
 133.7518325  62.0073652  18.8915492 131.2903136  64.4665509  15.3362502
 131.8646888  64.2440690  14.6035695 131.8774118  64.5354203  16.0891104
 140.3482713  70.3539236  16.1426879 140.8614595  70.9869227  16.6448589
 140.9983937  69.7540431  15.7770239 131.6172723  66.4969970   9.3558388
 130.7810035  66.8344656   9.6767662 131.4777492  66.3618949   8.4185525
 133.5925803  61.3406758  14.0637572 132.9390216  61.0255775  13.4394187
 133.5506277  60.7182498  14.7897395 136.8263544  67.8288691  18.3885220
 135.9086105  68.0503638  18.2306908 137.2423687  67.9035002  17.5296927
 137.6098591  69.2280107  13.5187900 138.3570410  69.7401504  13.2095022
 137.8790181  68.9064159  14.3792293 126.4513412  69.4444162  14.4830056
 126.2537812  68.8513522  13.7581123 125.8960076  69.1396372  15.2005995
 134.4310136  69.3367268  16.6024649 134.4858745  68.3841104  16.5267126
 133.6201338  69.4926707  17.0865948 132.3702496  67.9544328  14.3615028
 131.5570361  68.2538498  14.7680220 132.8661490  67.5600017  15.0789511
 134.5211073  77.9502085  16.2949293 134.4787252  78.1762931  15.3657825
 135.4373772  77.7165459  16.4435094 137.9676707  68.4186152  23.1929922
 138.3226095  68.6457625  24.0524388 138.6148838  68.7504529  22.5707177
 131.8616570  65.5262683  19.9776263 132.5015950  65.3851442  19.2799227
 131.0294101  65.2397197  19.6014865 132.6376874  74.8265114  16.0911256
 133.4317473  74.3315434  15.8893831 131.9268567  74.2982977  15.7278961
 137.4571719  77.2083209  20.4423623 137.5108741  77.7774146  21.2101339
 136.5886500  77.3785094  20.0777660 128.9459638  68.9708196  12.1671008
 128.0157226  68.9092651  12.3840971 129.0417110  68.4484148  11.3707650
 128.8645187  65.4963008  14.7549250 129.1252004  66.4108342  14.6458411
 129.6862359  65.0287451  14.9045863 130.3370112  66.9100766  21.9248075
 131.0093166  66.7018128  21.2760724 129.5099899  66.7122852  21.4853307
 136.2395684  63.5362706  23.9413735 135.5923599  64.2352656  23.8478212
 137.0096699  63.9698850  24.3089984 139.6474482  73.8011559  27.0164289
 139.4959988  73.5722110  26.0994372 139.6379162  74.7582160  27.0295634
 136.4159818  71.3743471  22.0010555 137.3451878  71.5254631  21.8279523
 135.9950848  71.4627492  21.1459202 135.2148150  75.3994136  19.7709093
 135.0759236  75.0312920  20.6435031 134.4262746  75.9141775  19.5993051
 136.7653365  74.7775738  17.1597931 136.4303198  74.7376508  18.0555580
 136.2657311  74.1120454  16.6868341 130.7397609  70.1843368  22.6850512
 130.6017407  69.4523607  23.2862051 131.6502533  70.0952269  22.4034700
 133.3679910  69.8963328  22.1734191 134.0779529  69.2556520  22.1320810
 133.3249218  70.1476223  23.0960372 132.0808844  66.8828546  23.9929831
 131.5446201  66.4319284  24.6451427 131.4925552  67.0174455  23.2500295
 130.3757387  83.6492595  17.8874490 130.6153986  84.2811119  18.5653508
 129.5326584  83.2980635  18.1739849 123.0113243  71.1294357  16.6497802
 123.6984283  70.8156087  16.0618817 122.8561372  72.0335721  16.3765053
 127.8147965  66.0184553  21.0782825 127.7306154  65.4110223  20.3433235
 126.9930672  66.5093572  21.0792322 134.8885249  79.4571717  20.2915993
 134.8155421  80.2626689  20.8035298 134.4462642  79.6563683  19.4664015
 137.9871679  64.5038117  16.4453020 138.4840379  63.7508079  16.1254091
 137.2158661  64.5402434  15.8796230 137.3483933  79.3558551  22.4474152
 138.0611905  79.9906016  22.3750054 136.8573962  79.4522417  21.6314154
 139.0701460  73.2609804  14.0191444 138.1357739  73.3811267  13.8496148
 139.2478128  72.3582271  13.7551454 134.5706648  66.6455500  16.1724705
 134.2004435  66.0926540  16.8605611 135.0665740  66.0413633  15.6199705
 132.3995846  77.1052995  23.2679723 133.1005306  77.7389478  23.4209117
 131.9290961  77.4467726  22.5075362 140.4290674  61.4707710  18.5932379
 139.5153754  61.7011937  18.7614586 140.8583775  61.5546154  19.4446412
 140.1997132  69.6597602  21.0932273 139.5468583  69.9073510  20.4384726
 140.5777512  68.8461741  20.7594751 136.2484705  70.4017413  27.5798310
 135.5725342  70.3011543  28.2500686 137.0712339  70.2456627  28.0434308
 127.9963564  76.6389350  20.2010826 128.5817001  75.8933038  20.3338730
 127.7988403  76.9493307  21.0847490 130.8502220  79.6740597  15.2173268
 130.1812595  80.1586725  14.7337308 130.7115089  79.9209818  16.1316647
 122.5881219  69.2094950  18.9215269 122.6265319  68.6758541  19.7152387
 122.0821512  68.6830156  18.3026246 134.9907488  81.7084341  21.8155926
 135.5425796  81.8715962  22.5805012 135.3313682  82.2988779  21.1435951
 129.9671981  64.0559491  22.4177811 130.0313308  64.9174322  22.0055209
 129.9039102  63.4433492  21.6850170 129.4424254  66.1282623  26.0650845
 130.0696293  65.7459701  26.6788370 128.5852173  65.9096825  26.4306538
 139.8418363  76.5345598  27.6704581 140.3858267  77.1475557  27.1759536
 139.2605207  77.0925177  28.1871594 126.2189797  67.9359052  11.9969200
 126.5143238  67.0269731  11.9436254 125.3177833  67.9146792  11.6750203
 138.1275876  79.6566316  18.8019609 138.0027015  78.8556056  18.2930554
 138.7854967  80.1512510  18.3133579 129.7484044  66.0115049  17.9796749
 129.0270630  66.6251017  17.8404222 130.5377300  66.5472814  17.9013395
 140.1910784  77.4575337  20.4299159 139.2441119  77.3380688  20.3577485
 140.5393557  76.5697835  20.5125420 132.5510357  63.3469475  24.2537401
 133.0744759  63.5931772  25.0163710 132.3322691  64.1789510  23.8340538
 127.9477638  65.6173150  12.1208525 127.6190345  64.7370529  11.9383631
 128.3017009  65.5620819  13.0084915 137.1957217  77.2528053  16.6303511
 137.0482180  76.3244760  16.8111081 138.0210711  77.2748143  16.1460586
 131.0619462  65.9046120  12.4884003 131.4015534  66.4332041  11.7662611
 131.5091582  66.2426526  13.2642570 133.7562902  64.2883171  21.9387071
 133.4159723  63.4890984  22.3407751 133.0501909  64.5884881  21.3663904
 134.4079374  61.3732483  20.3914394 135.2305443  60.8992961  20.2693284
 134.6517438  62.1522967  20.8913080 131.9317953  68.0651604  18.2006373
 131.7862534  68.3791907  19.0930654 131.4543157  68.6836504  17.6477271
 133.7914336  65.0554152  18.2487262 133.7775905  64.1595245  17.9119560
 134.5086764  65.0624815  18.8825548 135.6440467  65.4891492  20.2940390
 135.3858244  66.4108562  20.2924720 135.1125507  65.0921926  20.9840854
 126.4063615  70.6056948  21.1394034 125.8617083  71.3816756  21.2714308
 127.2842965  70.9527752  20.9813155 133.1951232  63.9368532  13.5174832
 133.3167143  63.0085178  13.7165720 132.9053274  63.9507218  12.6053148
 136.0642422  61.6223442  16.6541552 136.0864119  61.6862775  15.6993532
 136.4810481  60.7827951  16.8482058 127.1929637  69.7326844  24.0324191
 126.4511373  69.8809480  24.6188821 126.8722381  69.9935110  23.1690940
 135.1373300  79.2742822  23.8304581 135.4460426  79.0291969  24.7027280
 135.9348782  79.4789461  23.3423451 127.6386251  77.6192273  16.0634585
 128.4644271  77.3196045  15.6833229 127.2880303  76.8499895  16.5124374
 132.6067784  76.9718741  18.1332259 131.9847793  76.3089446  17.8334487
 133.2772651  76.9979873  17.4505907 125.8394856  75.5378599  17.0223519
 125.0026764  75.1100774  16.8407520 125.8118501  75.7311043  17.9594310
 132.6792311  65.4500529  27.7264765 132.7280467  66.3262652  27.3442535
 133.2214825  64.9077922  27.1536408 134.9091600  66.2031902  24.4811124
 134.0394909  66.4965468  24.2093712 135.1451080  66.7872347  25.2018387
 129.9233924  71.5487842  12.6151788 129.6779966  70.6450172  12.8131999
 130.0929838  71.5504993  11.6731266 137.6130634  62.4211519  21.9976544
 138.1312577  63.1572545  21.6723033 137.2585766  62.7275512  22.8323303
 129.1929571  67.2816200  10.1137950 128.4998816  67.3560555   9.4577986
 128.9481323  66.5176543  10.6359467 139.7566466  64.3485018  21.4508417
 139.1616398  64.6290031  20.7554905 139.4716162  64.8378919  22.2225158
 135.9362187  73.4049354  27.8819176 136.8565197  73.5827953  28.0759223
 135.9011770  72.4605399  27.7298876 125.1544352  68.5987948  16.8072451
 124.8347137  67.7453256  16.5146825 124.6077780  68.8136526  17.5630418
 128.9324260  71.3150389  20.5241958 129.1510270  72.2467496  20.5429991
 129.3450034  70.9558363  21.3096761 133.8052125  66.8883594  29.9144707
 133.7048852  67.8377951  29.8456798 133.5873667  66.5601833  29.0420777
 125.0232612  72.2190859  18.7765573 124.3296084  71.8044812  18.2635527
 125.7705603  72.2611396  18.1798992 133.6683395  70.3180733  28.7309768
 133.1850477  71.1181093  28.9373657 133.7544334  70.3288678  27.7777212
 126.9369355  72.1509113  16.6531588 126.9140043  72.2496800  15.7013471
 127.2469991  72.9974264  16.9748754 129.5956733  74.2085268  20.7678202
 130.5499986  74.1769210  20.7008134 129.3969256  73.7475892  21.5828428
 130.1856115  72.7786384  23.3349000 131.0049004  73.2730463  23.3583837
 130.4592923  71.8618352  23.3066567 127.9506961  79.7504887  17.7848400
 127.8161429  78.9905288  17.2186398 127.5339024  80.4745787  17.3177189
 131.1076087  80.6474204  17.9966842 130.9908471  81.5919637  17.8945533
 130.2868534  80.3447766  18.3852642 125.4391029  67.1124518  24.0341197
 126.0849893  66.6023472  24.5228422 125.2308180  67.8493199  24.6084622
 137.9644421  74.1805365  29.5333337 138.8335581  74.3546018  29.1719972
 137.4851173  74.9999782  29.4109067 132.1330601  81.3002466  21.2122771
 133.0357848  81.3326077  21.5289266 131.9067972  80.3702917  21.2269107
 133.8884203  80.0533453  17.8732850 132.9379834  80.0535314  17.7597222
 134.1916690  79.3066187  17.3568884 129.7788520  64.2592135  28.1316211
 130.6419982  63.9028940  28.3419535 129.2053931  63.9206030  28.8191615
 136.6371954  83.2854372  20.1201846 136.8879992  84.1701382  20.3859422
 137.1731502  83.1058974  19.3476938 140.3979320  84.2687098  24.9944669
 140.2832835  83.3672355  25.2951768 139.5423838  84.5150795  24.6429485
 138.6541720  81.3476471  21.0782825 138.5699908  80.7402141  20.3433235
 137.8324426  81.8385489  21.0792322 133.4274974  84.5386868  18.9215269
 133.4659073  84.0050459  19.7152387 132.9215267  84.0122073  18.3026246
 140.8065736  79.3851408  22.4177811 140.8707062  80.2466239  22.0055209
 140.7432856  78.7725410  21.6850170 140.2818009  81.4574541  26.0650845
 140.9090047  81.0751618  26.6788370 139.4245927  81.2388743  26.4306538
 137.2457370  85.9348866  21.1394034 136.7010838  86.7108674  21.2714308
 138.1236719  86.2819670  20.9813155 138.0323391  85.0618762  24.0324191
 137.2905127  85.2101397  24.6188821 137.7116136  85.3227028  23.1690940
 136.2784784  82.4416435  24.0341197 136.9243647  81.9315389  24.5228422
 136.0701935  83.1785117  24.6084622   2.8274021  75.8874726 109.8447649
   3.5599193  75.3173942 110.0785478   2.0713377  75.4996326 110.2854154
   2.1089751  72.5207824 113.1613481   1.4664131  72.8140357 112.5153276
   1.6044680  72.4060745 113.9666678   2.2488729  82.1851254 108.5957286
   1.5639767  82.5650155 108.0454319   2.3332578  82.7946580 109.3289234
   0.6185488  82.7083168 113.3674987   1.4402932  82.3063356 113.0857668
   0.6147891  82.6051402 114.3191103   8.7091481  79.0521917 109.7159958
   7.9555190  78.4829315 109.5603963   8.8439023  79.0184581 110.6630593
   2.3867130  80.1906847 104.3639180   1.6096573  79.8518006 103.9194342
   3.0658611  80.1959470 103.6894145   2.7855627  79.2050553 106.8262102
   2.6473526  79.3952149 105.8983291   2.4291846  79.9669936 107.2830153
   2.8125007  81.2727080 111.8373373   3.2461513  81.1802369 112.6856427
   3.5256587  81.2484581 111.1993389   3.6740556  81.3150781 114.3706259
   3.8676446  82.2196591 114.6165534   3.5741174  80.8558200 115.2044844
   4.9282619  77.8724448 111.0154162   4.9172496  78.7549163 110.6448095
   4.0599999  77.5195998 110.8208699   1.5455194  76.7673088 107.4824328
   2.0115646  77.6001080 107.4084631   1.9962694  76.3018070 108.1869587
   5.5307229  79.0224667 107.6203625   5.9738375  78.2731992 107.2222749
   4.6533740  79.0134803 107.2377357   0.6643011  85.5755008 103.1010224
   1.3593915  86.1961701 103.3197538   1.0066161  84.7250360 103.3762602
   2.5634434  83.0254714 104.6297555   3.0885758  83.3641987 103.9046875
   2.4756786  82.0901729 104.4460689   2.2528340  83.6587618 119.9348753
   1.4623883  83.6411756 119.3953252   2.0161694  84.1975911 120.6897789
   2.3726215  80.5080084 117.2481481   2.4224220  80.3430091 118.1897004
   2.2640138  79.6407343 116.8579362   3.8744412  82.9277025 117.4923503
   3.5829220  83.2907006 118.3286964   3.2616543  82.2144034 117.3136835
   5.0740094  80.4929905 110.0126073   5.9086985  80.9319709 110.1763633
   5.2099223  80.0168558 109.1934319   2.1231600  78.0509640 115.9603561
   2.5985721  78.2437286 115.1522412   1.1997165  78.1068826 115.7146944
   0.8233269  74.9275400 114.1931866   1.7750692  75.0273498 114.2144090
   0.6536719  74.1353669 114.7029951   0.6043156  85.2819781 100.0997847
   0.5256787  84.9479644 100.9933605   1.4252822  85.7741548 100.0989320
   3.3021347  78.1481520 113.3074166   3.2697667  77.2097521 113.4933850
   3.9121970  78.2265557 112.5739991   3.4515835  74.9392563 113.3532449
   2.9354884  74.1551020 113.1662378   4.3355784  74.6111280 113.5178969
   1.1126562  68.6833579 109.3128262   0.9151383  68.3748667 110.1971594
   1.7226268  69.4095218 109.4426192   9.1197897  79.2097527 112.4480203
   9.8501285  78.9482815 113.0087906   8.5104842  78.4726249 112.4882271
   7.2013194  77.3505389 113.0454654   6.4746357  77.2161354 112.4371145
   6.7860481  77.6582218 113.8511372   2.3818430  72.8589622 109.3414145
   3.1578820  73.3486075 109.6138762   1.6566564  73.2847676 109.7986014
   4.8190989  73.5717241 110.3988085   5.4135479  73.3312977 109.6881394
   4.8917572  72.8524372 111.0261622   2.8149723  74.1387369 106.6660215
   2.5586658  73.7384005 107.4968423   2.1902592  74.8531163 106.5410354
   7.1262061  76.8783442 109.1731507   6.5661619  76.9476632 109.9463069
   6.5205565  76.7024427 108.4531003   8.7118080  93.5539956 111.8661462
   9.3496490  93.4346704 111.1624802   8.5938923  94.5020800 111.9249415
   5.5207786  93.5067384 111.8022987   5.1826298  93.3908449 110.9143522
   6.3897554  93.1058549 111.7823993   1.3794602  95.3602861 107.7919878
   0.8159467  95.2692798 107.0236166   1.2646997  94.5402765 108.2722371
   6.0027569  94.6602236 117.7609193   5.9916210  94.2655034 116.8889696
   6.1648209  93.9268309 118.3542964   6.9594160  99.0273828 103.1034343
   6.3082140  99.6127909 102.7168357   7.7538523  99.5580023 103.1629380
   0.8849788  96.1162966 103.5021477   1.6580664  95.5691953 103.3634353
   1.2375187  96.9807215 103.7135939   3.6491037  94.8216196 113.2989736
   4.2454609  94.5972219 112.5846699   3.7066009  94.0800942 113.9015184
   3.2216065  92.2755632 101.1339927   3.4741586  91.7537153 100.3723390
   2.2840625  92.1121777 101.2366611   8.2659348  91.2791410 108.9414670
   9.0522438  90.8610833 108.5905087   8.5298053  92.1837502 109.1096319
   8.4369426  96.7164260 103.6403327   7.8015259  96.7898887 104.3524232
   8.1066832  97.3057859 102.9622406  13.6667775  91.2166643 109.8447649
  14.3992947  90.6465860 110.0785478  12.9107131  90.8288244 110.2854154
   2.9412354  94.1783738 103.3364302   2.8248612  93.5028641 104.0045386
   3.0514614  93.6916112 102.5196455   5.2843895  93.6393885 107.0410991
   4.9202102  93.1124506 107.7523913   6.1411011  93.2492354 106.8677477
  11.1893196  84.9288217 114.3042258  10.8576521  85.7983628 114.0803472
  10.5938809  84.6124501 114.9836288   4.9249382  88.6683784 102.0372340
   5.0923784  89.5364021 102.4042811   4.7346551  88.8311066 101.1133629
   7.6824715  97.1300763 113.7038170   7.3825438  98.0325802 113.5953977
   7.3375775  96.8632947 114.5559323  11.0821859  89.6483304 111.3835608
  10.1738736  89.5798712 111.0894369  11.0309455  90.1255249 112.2117433
   4.9038603  91.1241442 103.0219007   4.7838228  91.5698493 103.8604487
   4.2091191  91.4726760 102.4632545   2.6645495 103.8945084 106.6709138
   2.5869525 104.8452909 106.7497619   2.0607139 103.5490956 107.3284064
  12.9483505  87.8499742 113.1613481  12.3057886  88.1432275 112.5153276
  12.4438434  87.7352662 113.9666678  10.6023669  91.5962915 103.8499341
  11.5141525  91.8290302 103.6747038  10.0933316  92.1799959 103.2874419
   8.8864437  96.0187543 117.4860633   9.2947793  95.5769954 116.7415266
   8.1641698  95.4440171 117.7394826   5.2395507  90.9560150 114.8594190
   6.0856702  91.3799563 115.0028839   5.1794145  90.2993774 115.5532753
   9.2093251  96.5788734 111.2412922   8.5802114  96.7434448 110.5388990
   8.8218914  96.9930343 112.0123886  13.0882483  97.5143171 108.5957286
  12.4033521  97.8942073 108.0454319  13.1726333  98.1238498 109.3289234
   8.3894952  88.6164518 116.5175364   8.1455884  89.3706579 115.9809640
   8.6654883  88.9949866 117.3522611  10.3433415  95.1603130 115.1952630
  10.5550310  95.8034890 114.5187011  10.2963163  94.3265447 114.7274560
   7.9459644  87.7720951 112.0989202   7.0844123  88.0702205 112.3905939
   7.9722079  87.9891350 111.1670234   4.7621213  96.3163142 108.5063007
   5.2259559  96.5950845 107.7167630   4.4978011  95.4146586 108.3236098
   1.6545294  95.8634623 111.4442771   2.2246651  96.2921892 110.8060255
   2.2453406  95.5817208 112.1426956   3.6990099  92.4386294 105.3152572
   4.4014143  92.8907338 105.7826499   3.3670728  91.7970113 105.9432466
  11.4579243  98.0375086 113.3674987  12.2796687  97.6355273 113.0857668
  11.4541646  97.9343320 114.3191103  19.5485236  94.3813834 109.7159958
  18.7948944  93.8121232 109.5603963  19.6832777  94.3476499 110.6630593
   4.9383864  99.2527237 105.3914678   4.8029539 100.0978772 105.8199525
   5.4793677  99.4546514 104.6280611   4.3419165  86.7476696 119.6449289
   5.0828878  87.3483849 119.5653752   4.5737087  86.0054333 119.0867332
   8.6633578 100.1553603 117.5496421   8.6452054 100.9762484 117.0576690
   9.5853498 100.0307678 117.7746562   8.2876328  82.7757799 113.9213571
   7.9440597  83.6659440 113.8452682   8.6555290  82.5859456 113.0583156
   8.2526610  92.7666410 102.4286006   7.7373234  93.5371014 102.6674394
   7.9803919  92.0931546 103.0519068   5.8373721  87.6116110 107.4871245
   4.9815318  87.2222961 107.3076883   6.2500673  87.6908071 106.6271030
   7.3672868  85.1462454 111.8862804   6.8637664  85.1092589 111.0730610
   7.6603475  86.0555196 111.9459461   3.6115754  85.2301183 110.8928986
   4.4768751  85.0343992 110.5334876   3.6793263  85.0011535 111.8198343
  13.2260884  95.5198764 104.3639180  12.4490327  95.1809924 103.9194342
  13.9052365  95.5251387 103.6894145   8.0412913  90.6393502 104.2545787
   7.7363049  90.9539651 105.1055931   8.9943356  90.7174922 104.2973120
   6.4859345  96.7983725 105.9038741   5.9580707  96.0636485 105.5911979
   5.9846848  97.5758401 105.6578710  11.4652191  94.9932746 111.0205788
  10.8075866  95.6832007 111.1085916  12.2692591  95.3829178 111.3639774
   1.2178073  87.4603391 108.2645353   1.7921825  87.2378573 107.5318546
   1.8049055  87.5292086 109.0173954  10.2757650  93.3477118 109.0709729
  10.7889532  93.9807110 109.5731439  10.9258874  92.7478314 108.7053089
   1.5447660  89.4907852 102.2841238   0.7084972  89.8282539 102.6050513
   1.4052430  89.3556832 101.3468375   3.5200741  84.3344640 106.9920422
   2.8665153  84.0193657 106.3677037   3.4781215  83.7120381 107.7180245
   4.6311945  94.6163935  98.9073714   3.7239007  94.3853189  99.1064863
   5.1282977  93.8201555  99.0947696   7.5380024 103.3261443 101.8270401
   6.8641723 103.6293139 102.4355358   7.9245846 104.1290523 101.4775858
   6.7538481  90.8226574 111.3168070   5.8361042  91.0441521 111.1589758
   7.1698625  90.8972884 110.4579777   7.5373529  92.2217990 106.4470750
   8.2845348  92.7339387 106.1377872   7.8065118  91.9002042 107.3075144
   5.8100179  94.7176530 103.4297705   4.9011398  94.4335563 103.5270174
   5.8395263  95.1375609 102.5701011  11.0419446  98.3283120 107.1988872
  10.5881773  97.4874030 107.2554063  10.4113413  98.9644518 107.5363652
   9.9852366  89.2575106 108.4289540   9.2475123  88.7452492 108.7599782
  10.2379139  88.8175487 107.6172816   9.4852386 100.1659616 108.1338690
   9.7775360 100.7264674 107.4151056   9.9951006 100.4588177 108.8891849
  10.0863993  82.0351358 109.0231309  10.3922870  81.1748721 108.7357224
  10.8116598  82.6268978 108.8230303   4.3585073  92.3305151 109.5307500
   4.4133683  91.3778987 109.4549976   3.5476275  92.4864590 110.0148798
   5.5076267  96.2585274 100.7685783   5.0695697  95.5421133 100.3091420
   6.2486708  96.4861389 100.2070875   2.2977433  90.9482211 107.2897879
   1.4845298  91.2476381 107.6963071   2.7936427  90.5537899 108.0072361
   4.4486011 100.9439968 109.2232143   4.4062190 101.1700814 108.2940675
   5.3648710 100.7103342 109.3717945   7.8951645  91.4124035 116.1212773
   8.2501032  91.6395508 116.9807238   8.5423776  91.7442412 115.4990028
  13.6249382  94.5342471 106.8262102  13.4867280  94.7244067 105.8983291
  13.2685600  95.2961854 107.2830153   1.7891508  88.5200566 112.9059114
   2.4290887  88.3789325 112.2082077   0.9569038  88.2335079 112.5297716
  13.6518761  96.6018998 111.8373373  14.0855268  96.5094287 112.6856427
  14.3650342  96.5776498 111.1993389   2.5651812  97.8202997 109.0194106
   3.3592410  97.3253317 108.8176681   1.8543504  97.2920860 108.6561812
   7.3846656 100.2021092 113.3706474   7.4383678 100.7712028 114.1384190
   6.5161437 100.3722977 113.0060511  14.5134311  96.6442699 114.3706259
  14.7070201  97.5488509 114.6165534  14.4134929  96.1850118 115.2044844
   6.1670621  86.5300589 116.8696586   5.5198536  87.2290539 116.7761062
   6.9371637  86.9636733 117.2372834   9.5749419  96.7949441 119.9447139
   9.4234926  96.5659993 119.0277223   9.5654099  97.7520043 119.9578484
   6.3434756  94.3681354 114.9293406   7.2726816  94.5192514 114.7562373
   5.9225786  94.4565375 114.0742052   5.1423088  98.3932019 112.6991943
   5.0034173  98.0250803 113.5717881   4.3537684  98.9079658 112.5275901
   5.7371240 103.4941115 104.0417480   5.9122995 103.0229158 104.8563102
   5.0504028 104.1206881 104.2698741   6.6928303  97.7713621 110.0880781
   6.3578135  97.7314391 110.9838431   6.1932248  97.1058337 109.6151191
   9.6287494  95.1169656 100.3617841   9.0116665  94.3916484 100.2650893
   9.1603983  95.8779016 100.0184915   3.2954847  92.8901211 115.1017042
   4.0054466  92.2494403 115.0603660   3.2524155  93.1414105 116.0243223
  11.2841626  99.8268564 118.0223621  11.2254172  99.1427784 117.3554204
  11.6861144 100.5687554 117.5704247   2.0083781  89.8766428 116.9212681
   1.4721138  89.4257167 117.5734278   1.4200490  90.0112337 116.1783146
   1.4186040  89.3355080  99.4839145   0.5415507  89.2143881  99.1201392
   1.8943793  88.5441158  99.2318034  11.2859033  97.7908148 116.2537601
  10.3985812  97.4534070 116.3764000  11.8557584  97.0591179 116.4906366
   4.6049966 101.6881370 106.7301665   3.8217488 102.2303050 106.8239890
   5.3042711 102.2055350 107.1295907   7.9146616  87.4976000 109.3735871
   8.4115316  86.7445962 109.0536941   7.1433598  87.5340316 108.8079080
  15.7676374  93.2016365 111.0154162  15.7566250  94.0841081 110.6448095
  14.8993753  92.8487916 110.8208699   7.2758870 102.3496434 115.3757003
   7.9886842 102.9843899 115.3032904   6.7848899 102.4460300 114.5597004
   8.9976397  96.2547687 106.9474294   8.0632676  96.3749149 106.7778999
   9.1753066  95.3520154 106.6834304   4.4981585  89.6393383 109.1007555
   4.1279373  89.0864423 109.7888461   4.9940678  89.0351516 108.5482556
  12.3848948  92.0965006 107.4824328  12.8509401  92.9292998 107.4084631
  12.8356449  91.6309988 108.1869587  10.4525180  98.4408827 104.4810480
  10.7285023  98.3265422 105.3904355   9.5829678  98.0426312 104.4422654
  10.3565611  84.4645593 111.5215230   9.4428691  84.6949820 111.6897437
  10.7858713  84.5484037 112.3729262  10.1272070  92.6535485 114.0215124
   9.4743520  92.9011393 113.3667577  10.5052450  91.8399623 113.6877601
   7.0879244 102.6895178 108.1243294   7.2701638 101.8716834 108.5871046
   7.9112230 102.9062871 107.6868184   7.4221409 101.6163363 105.3858343
   7.9509175 101.1055818 104.7728505   7.6849629 101.3005894 106.2503876
   8.0550813 102.6504199 111.7302459   7.9301952 101.8493939 111.2213405
   8.7129904 103.1450393 111.2416429  10.1185721 100.4513219 113.3582009
   9.1716057 100.3318570 113.2860336  10.4668494  99.5635717 113.4408271
   2.4785295  86.3407358 117.1820251   3.0019696  86.5869655 117.9446560
   2.2597628  87.1727393 116.7623388   7.1232155 100.2465935 109.5586361
   6.9757117  99.3182643 109.7393931   7.9485648 100.2686026 109.0743437
   0.9894399  88.8984003 105.4166853   1.3290471  89.4269924 104.6945462
   1.4366519  89.2364409 106.1925420  10.7266276 101.0694494 110.6451234
  11.6512824 100.8637356 110.5075685  10.5581580 100.8210895 111.5540576
   3.6837840  87.2821053 114.8669922   3.3434660  86.4828866 115.2690601
   2.9776846  87.5822764 114.2946755   4.3354311  84.3670366 113.3197245
   5.1580381  83.8930844 113.1976135   4.5792375  85.1460849 113.8195931
   2.9762546  87.3958624 103.6160146   3.6970908  87.7739877 103.1123863
   2.3527850  88.1147501 103.7195124   7.1193669  88.1003773 104.5518479
   7.3357283  88.9828411 104.2507307   6.6387736  87.7089987 103.8224121
   1.8592890  91.0589486 111.1289223   1.7137471  91.3729789 112.0213505
   1.3818094  91.6774387 110.5760122   3.7189273  88.0492034 111.1770113
   3.7050842  87.1533128 110.8402411   4.4361701  88.0562698 111.8108399
   5.5715404  88.4829375 113.2223240   5.3133182  89.4046445 113.2207571
   5.0400444  88.0859809 113.9123704  10.5161593 101.5880162 106.0013326
  10.6898470 101.0226584 105.2487178  11.0090484 102.3881057 105.8192815
   3.1226169  86.9306415 106.4457683   3.2442080  86.0023061 106.6448570
   2.8328211  86.9445101 105.5335998   5.9917359  84.6161325 109.5824403
   6.0139056  84.6800658 108.6276382   6.4085418  83.7765834 109.7764909
  16.3700984  94.3516585 107.6203625  16.8132130  93.6023910 107.2222749
  15.4927494  94.3426721 107.2377357  11.5036765 100.9046926 103.1010224
  12.1987670 101.5253619 103.3197538  11.8459915 100.0542277 103.3762602
  13.4028188  98.3546632 104.6297555  13.9279512  98.6933904 103.9046875
  13.3150541  97.4193647 104.4460689   5.0868849 104.4218615 108.9892808
   4.6473839 103.9294994 109.6825664   5.8376966 103.8791583 108.7484883
   2.5342721  99.9656624 111.0615109   1.9122730  99.3027329 110.7617337
   3.2047588  99.9917756 110.3788757  13.0922094  98.9879535 119.9348753
  12.3017638  98.9703674 119.3953252  12.8555449  99.5267829 120.6897789
  13.2119969  95.8372002 117.2481481  13.2617974  95.6722009 118.1897004
  13.1033893  94.9699261 116.8579362   2.0956228  98.5160547 104.5373570
   2.2444348  99.1996012 103.8840243   2.9022671  98.4965637 105.0523026
  10.5023732  91.8202930 118.5640788  11.4033594  91.6809394 118.2724786
  10.5771706  91.9857384 119.5038965   4.8366537  89.1969784 117.4093974
   3.9669846  89.4903350 117.1376563   5.0726017  89.7810229 118.1301238
  14.7138166  98.2568943 117.4923503  14.4222974  98.6198924 118.3286964
  14.1010297  97.5435951 117.3136835  15.9133848  95.8221823 110.0126073
  16.7480740  96.2611627 110.1763633  16.0492977  95.3460476 109.1934319
  12.9625354  93.3801558 115.9603561  13.4379476  93.5729204 115.1522412
  12.0390920  93.4360744 115.7146944   7.5405571  85.4149401 114.9259395
   8.0587515  86.1510428 114.6005883   7.1860704  85.7213395 115.7606154
   7.7918165  81.8349684 110.4460291   8.0719919  81.1672873 111.0720718
   8.5768772  82.0278779 109.9334955   5.5951634 101.0108678 102.0085317
   5.0225601 101.6298865 101.5555789   6.1684427 101.5608039 102.5425239
  11.6627023  90.2567318 114.1931866  12.6144446  90.3565415 114.2144090
  11.4930474  89.4645586 114.7029951   9.6841403  87.3422901 114.3791267
   9.0891335  87.6227914 113.6837756   9.3991100  87.8316802 115.1508008
   8.8148893 101.2945828 103.1393900   9.7479566 101.2291390 103.3426775
   8.7272106 102.1302095 102.6808432  11.4436910 100.6111698 100.0997847
  11.3650542 100.2771562 100.9933605  12.2646577 101.1033466 100.0989320
  14.1415101  93.4773438 113.3074166  14.1091421  92.5389438 113.4933850
  14.7515725  93.5557474 112.5739991   5.9798432  92.3469490  99.3501370
   6.9257537  92.2175699  99.4189788   5.6012677  91.6084152  99.8270798
  14.2909590  90.2684481 113.3532449  13.7748638  89.4842938 113.1662378
  15.1749538  89.9403198 113.5178969  11.9520317  84.0125497 109.3128262
  11.7545138  83.7040585 110.1971594  12.5620022  84.7387135 109.4426192
  19.9591651  94.5389444 112.4480203  20.6895040  94.2774732 113.0087906
  19.3498597  93.8018166 112.4882271  18.0406948  92.6797307 113.0454654
  17.3140112  92.5453272 112.4371145  17.6254235  92.9874136 113.8511372
   4.1641349  90.2719467  99.2856255   3.2572805  89.9752580  99.3618969
   4.4417330  89.9749285  98.4190541   5.7803415  84.8156357 105.4400496
   4.9704143  84.4703442 105.8155743   6.4687832  84.5063900 106.0288108
   7.7093963  83.8934403 107.0624793   8.2625002  84.3129857 107.7214816
   7.9464050  82.9670152 107.1047749   2.9340134  87.1306402  99.4268234
   3.7959298  87.4561300  99.6864052   3.1190478  86.3437898  98.9141300
  11.0872770  86.0034929 106.5703457  10.5071439  86.6619733 106.1881510
  10.8208703  85.1812273 106.1590875   9.5376337  85.4039986 108.7724778
  10.0376115  85.5156521 107.9639096  10.1811945  85.1001039 109.4125586
   9.8697648  88.1635019 105.6259806   8.9823503  88.4484670 105.4080000
  10.2851637  88.0028782 104.7787082  13.2212184  88.1881540 109.3414145
  13.9972575  88.6777992 109.6138762  12.4960319  88.6139594 109.7986014
  15.6584743  88.9009159 110.3988085  16.2529234  88.6604895 109.6881394
  15.7311327  88.1816290 111.0261622   9.0140862  97.9279694  99.7207826
   9.7176712  98.1329696 100.3365481   8.2903511  98.4956455  99.9856909
   9.8438672  93.6789555 105.8410096   9.7873873  94.1358106 105.0017728
  10.3967015  92.9180239 105.6632938  13.6543478  89.4679287 106.6660215
  13.3980412  89.0675922 107.4968423  13.0296346  90.1823081 106.5410354
  17.9655816  92.2075360 109.1731507  17.4055374  92.2768549 109.9463069
  17.3599319  92.0316345 108.4531003  10.9227559  98.3662223 101.7706286
  11.7573163  97.9343421 101.5883760  10.7611902  98.1944236 102.6983180
  10.5773451  94.8694336 103.1362625  10.5222255  94.7038608 102.1951069
   9.9519507  95.5770369 103.2924815   3.8869577  84.3702445 102.7147943
   3.8748247  85.3144285 102.8716214   4.7792999  84.1872591 102.4207405
   3.8159141 103.0471336 110.8015700   2.8654772 103.0473197 110.6880072
   4.1191627 102.3004070 110.2851735   7.7021696  80.9645222 106.9693880
   6.9354092  80.4103708 107.1150562   8.1132401  81.0367091 107.8308032
  19.5511834 108.8831874 111.8661462  20.1890244 108.7638621 111.1624802
  19.4332677 109.8312718 111.9249415  16.3601541 108.8359302 111.8022987
  16.0220052 108.7200367 110.9143522  17.2291309 108.4350467 111.7823993
  12.2188356 110.6894778 107.7919878  11.6553221 110.5984715 107.0236166
  12.1040751 109.8694683 108.2722371  16.8421324 109.9894154 117.7609193
  16.8309964 109.5946952 116.8889696  17.0041963 109.2560226 118.3542964
   9.7652788 112.1845970 110.6304098  10.5574080 111.8436795 110.2150398
  10.0049438 112.2940945 111.5506252  17.7987915 114.3565746 103.1034343
  17.1475895 114.9419827 102.7168357  18.5932278 114.8871941 103.1629380
  11.7243542 111.4454883 103.5021477  12.4974418 110.8983870 103.3634353
  12.0768941 112.3099133 103.7135939  14.4884792 110.1508114 113.2989736
  15.0848364 109.9264136 112.5846699  14.5459763 109.4092860 113.9015184
  14.0609820 107.6047549 101.1339927  14.3135341 107.0829071 100.3723390
  13.1234379 107.4413695 101.2366611  19.1053103 106.6083328 108.9414670
  19.8916192 106.1902751 108.5905087  19.3691807 107.5129420 109.1096319
  19.2763180 112.0456178 103.6403327  18.6409013 112.1190805 104.3524232
  18.9460587 112.6349777 102.9622406  24.5061530 106.5458561 109.8447649
  25.2386702 105.9757778 110.0785478  23.7500886 106.1580161 110.2854154
  13.7806109 109.5075655 103.3364302  13.6642367 108.8320559 104.0045386
  13.8908369 109.0208029 102.5196455  16.1237650 108.9685802 107.0410991
  15.7595857 108.4416423 107.7523913  16.9804766 108.5784272 106.8677477
  22.0286950 100.2580135 114.3042258  21.6970275 101.1275546 114.0803472
  21.4332564  99.9416419 114.9836288  15.7643137 103.9975702 102.0372340
  15.9317539 104.8655939 102.4042811  15.5740306 104.1602984 101.1133629
  18.5218470 112.4592681 113.7038170  18.2219193 113.3617720 113.5953977
  18.1769529 112.1924864 114.5559323  11.9730951 108.9106478 109.7374875
  11.0481448 108.7782692 109.9452566  12.2215364 109.6900697 110.2344817
  21.9215614 104.9775221 111.3835608  21.0132491 104.9090630 111.0894369
  21.8703209 105.4547166 112.2117433  15.7432357 106.4533360 103.0219007
  15.6231983 106.8990410 103.8604487  15.0484946 106.8018677 102.4632545
   9.3339762 108.5539751 110.5718664   9.4632143 108.8074230 111.4858075
   8.6537214 109.1467459 110.2523319  13.5039250 119.2237001 106.6709138
  13.4263279 120.1744826 106.7497619  12.9000893 118.8782874 107.3284064
  23.7877260 103.1791660 113.1613481  23.1451640 103.4724193 112.5153276
  23.2832188 103.0644580 113.9666678  21.4417424 106.9254833 103.8499341
  22.3535280 107.1582220 103.6747038  20.9327071 107.5091877 103.2874419
  19.7258191 111.3479461 117.4860633  20.1341547 110.9061871 116.7415266
  19.0035453 110.7732088 117.7394826  16.0789261 106.2852067 114.8594190
  16.9250457 106.7091481 115.0028839  16.0187899 105.6285692 115.5532753
  20.0487006 111.9080651 111.2412922  19.4195868 112.0726365 110.5388990
  19.6612668 112.3222261 112.0123886  23.9276238 112.8435089 108.5957286
  23.2427276 113.2233990 108.0454319  24.0120087 113.4530416 109.3289234
  19.2288707 103.9456436 116.5175364  18.9849639 104.6998496 115.9809640
  19.5048637 104.3241783 117.3522611  21.1827169 110.4895048 115.1952630
  21.3944065 111.1326808 114.5187011  21.1356918 109.6557365 114.7274560
  18.7853398 103.1012869 112.0989202  17.9237877 103.3994122 112.3905939
  18.8115833 103.3183268 111.1670234  15.6014968 111.6455059 108.5063007
  16.0653313 111.9242762 107.7167630  15.3371766 110.7438504 108.3236098
  12.4939049 111.1926541 111.4442771  13.0640406 111.6213809 110.8060255
  13.0847161 110.9109126 112.1426956  14.5383854 107.7678212 105.3152572
  15.2407897 108.2199255 105.7826499  14.2064482 107.1262031 105.9432466
   8.2809188 106.0261764 110.6169706   7.4908242 106.2819293 110.1409817
   8.7720435 106.8410102 110.7221747  22.2972997 113.3667004 113.3674987
  23.1190441 112.9647191 113.0857668  22.2935400 113.2635238 114.3191103
  10.2323933 106.3906344 107.5753183   9.4355096 106.5025038 108.0936678
  10.0049525 106.7292996 106.7094073  30.3878990 109.7105752 109.7159958
  29.6342699 109.1413150 109.5603963  30.5226532 109.6768417 110.6630593
  15.7777618 114.5819154 105.3914678  15.6423293 115.4270690 105.8199525
  16.3187431 114.7838432 104.6280611   9.2307016 112.0994592 105.9642603
   9.7431536 112.8937843 106.1148167   9.8829729 111.4020883 105.8976204
  11.0401901 115.2160349 108.0465356  11.2168529 116.1378313 107.8586340
  11.8358734 114.9018768 108.4759736  15.1812919 102.0768613 119.6449289
  15.9222632 102.6775766 119.5653752  15.4130842 101.3346251 119.0867332
  19.5027333 115.4845521 117.5496421  19.4845808 116.3054402 117.0576690
  20.4247253 115.3599596 117.7746562  19.1270082  98.1049716 113.9213571
  18.7834351  98.9951358 113.8452682  19.4949045  97.9151374 113.0583156
   7.1955933 110.4283247 106.7402173   8.0331155 110.8380255 106.5235881
   7.3734200 109.4882689 106.7102367  19.0920365 108.0958327 102.4286006
  18.5766988 108.8662932 102.6674394  18.8197673 107.4223464 103.0519068
  16.6767476 102.9408028 107.4871245  15.8209072 102.5514879 107.3076883
  17.0894428 103.0199989 106.6271030  18.2066622 100.4754371 111.8862804
  17.7031418 100.4384507 111.0730610  18.4997229 101.3847114 111.9459461
  14.4509508 100.5593101 110.8928986  15.3162505 100.3635910 110.5334876
  14.5187017 100.3303453 111.8198343  24.0654639 110.8490682 104.3639180
  23.2884082 110.5101841 103.9194342  24.7446120 110.8543305 103.6894145
  18.8806668 105.9685419 104.2545787  18.5756804 106.2831569 105.1055931
  19.8337110 106.0466839 104.2973120  17.3253100 112.1275643 105.9038741
  16.7974461 111.3928402 105.5911979  16.8240603 112.9050319 105.6578710
  22.3045946 110.3224663 111.0205788  21.6469620 111.0123925 111.1085916
  23.1086345 110.7121095 111.3639774  12.0571827 102.7895309 108.2645353
  12.6315579 102.5670491 107.5318546  12.6442810 102.8584004 109.0173954
  21.1151405 108.6769036 109.0709729  21.6283286 109.3099028 109.5731439
  21.7652629 108.0770231 108.7053089  12.3841415 104.8199770 102.2841238
  11.5478727 105.1574457 102.6050513  12.2446184 104.6848750 101.3468375
  14.3594495  99.6636558 106.9920422  13.7058907  99.3485575 106.3677037
  14.3174969  99.0412298 107.7180245  15.4705700 109.9455853  98.9073714
  14.5632762 109.7145106  99.1064863  15.9676732 109.1493472  99.0947696
  18.3773779 118.6553360 101.8270401  17.7035478 118.9585057 102.4355358
  18.7639601 119.4582441 101.4775858  17.5932235 106.1518491 111.3168070
  16.6754797 106.3733439 111.1589758  18.0092379 106.2264802 110.4579777
  18.3767283 107.5509907 106.4470750  19.1239102 108.0631304 106.1377872
  18.6458873 107.2293960 107.3075144  16.6493933 110.0468448 103.4297705
  15.7405153 109.7627481 103.5270174  16.6789017 110.4667526 102.5701011
  21.8813201 113.6575037 107.1988872  21.4275528 112.8165947 107.2554063
  21.2507168 114.2936436 107.5363652  20.8246120 104.5867023 108.4289540
  20.0868877 104.0744410 108.7599782  21.0772894 104.1467405 107.6172816
  20.3246140 115.4951534 108.1338690  20.6169114 116.0556591 107.4151056
  20.8344761 115.7880095 108.8891849  20.9257748  97.3643275 109.0231309
  21.2316625  96.5040639 108.7357224  21.6510353  97.9560896 108.8230303
   7.2182104 107.7673962 107.4112907   7.0206504 107.1743323 106.6863973
   6.6628768 107.4626172 108.1288846  15.1978827 107.6597068 109.5307500
  15.2527437 106.7070905 109.4549976  14.3870029 107.8156508 110.0148798
  16.3470021 111.5877192 100.7685783  15.9089451 110.8713050 100.3091420
  17.0880462 111.8153306 100.2070875  13.1371187 106.2774128 107.2897879
  12.3239053 106.5768299 107.6963071  13.6330182 105.8829817 108.0072361
  15.2879765 116.2731885 109.2232143  15.2455944 116.4992731 108.2940675
  16.2042464 116.0395260 109.3717945  18.7345399 106.7415953 116.1212773
  19.0894787 106.9687426 116.9807238  19.3817530 107.0734330 115.4990028
  24.4643136 109.8634389 106.8262102  24.3261035 110.0535985 105.8983291
  24.1079355 110.6253771 107.2830153  12.6285262 103.8492484 112.9059114
  13.2684641 103.7081243 112.2082077  11.7962793 103.5626997 112.5297716
  24.4912516 111.9310916 111.8373373  24.9249022 111.8386205 112.6856427
  25.2044096 111.9068416 111.1993389  13.4045566 113.1494914 109.0194106
  14.1986165 112.6545234 108.8176681  12.6937258 112.6212777 108.6561812
  18.2240411 115.5313010 113.3706474  18.2777433 116.1003946 114.1384190
  17.3555192 115.7014895 113.0060511   9.7128330 107.2937996 105.0953859
   8.7825918 107.2322451 105.3123821   9.8085801 106.7713949 104.2990500
   9.6313879 103.8192809 107.6832101   9.8920696 104.7338142 107.5741261
  10.4531051 103.3517251 107.8328713  11.1038804 105.2330566 114.8530925
  11.7761857 105.0247928 114.2043574  10.2768590 105.0352652 114.4136157
  25.3528065 111.9734616 114.3706259  25.5463955 112.8780427 114.6165534
  25.2528683 111.5142035 115.2044844  17.0064376 101.8592507 116.8696586
  16.3592291 102.5582457 116.7761062  17.7765391 102.2928651 117.2372834
  20.4143174 112.1241359 119.9447139  20.2628680 111.8951911 119.0277223
  20.4047853 113.0811960 119.9578484  17.1828510 109.6973272 114.9293406
  18.1120570 109.8484431 114.7562373  16.7619540 109.7857293 114.0742052
  15.9816842 113.7223936 112.6991943  15.8427928 113.3542721 113.5717881
  15.1931438 114.2371576 112.5275901  16.5764994 118.8233033 104.0417480
  16.7516750 118.3521076 104.8563102  15.8897782 119.4498799 104.2698741
  17.5322057 113.1005539 110.0880781  17.1971890 113.0606309 110.9838431
  17.0326003 112.4350255 109.6151191  20.4681249 110.4461573 100.3617841
  19.8510419 109.7208401 100.2650893  19.9997737 111.2070933 100.0184915
  14.1348602 108.2193128 115.1017042  14.8448220 107.5786320 115.0603660
  14.0917910 108.4706023 116.0243223  22.1235380 115.1560482 118.0223621
  22.0647927 114.4719702 117.3554204  22.5254899 115.8979472 117.5704247
  12.8477536 105.2058346 116.9212681  12.3114893 104.7549085 117.5734278
  12.2594244 105.3404255 116.1783146  12.2579795 104.6646998  99.4839145
  11.3809261 104.5435798  99.1201392  12.7337548 103.8733076  99.2318034
  22.1252788 113.1200066 116.2537601  21.2379567 112.7825987 116.3764000
  22.6951339 112.3883097 116.4906366   8.5816657 104.3414354 114.0065676
   8.4974846 103.7340023 113.2716086   7.7599363 104.8323372 114.0075172
  15.4443721 117.0173288 106.7301665  14.6611243 117.5594968 106.8239890
  16.1436466 117.5347268 107.1295907  18.7540371 102.8267917 109.3735871
  19.2509070 102.0737880 109.0536941  17.9827352 102.8632234 108.8079080
  26.6070128 108.5308283 111.0154162  26.5960005 109.4132998 110.6448095
  25.7387508 108.1779834 110.8208699  18.1152625 117.6788352 115.3757003
  18.8280597 118.3135817 115.3032904  17.6242653 117.7752218 114.5597004
  19.8370152 111.5839605 106.9474294  18.9026430 111.7041067 106.7778999
  20.0146820 110.6812071 106.6834304  15.3375340 104.9685300 109.1007555
  14.9673127 104.4156341 109.7888461  15.8334432 104.3643434 108.5482556
  23.2242703 107.4256924 107.4824328  23.6903155 108.2584915 107.4084631
  23.6750203 106.9601905 108.1869587  21.2918934 113.7700745 104.4810480
  21.5678778 113.6557340 105.3904355  20.4223433 113.3718230 104.4422654
  21.1959366  99.7937511 111.5215230  20.2822445 100.0241738 111.6897437
  21.6252467  99.8775955 112.3729262  20.9665824 107.9827403 114.0215124
  20.3137274 108.2303310 113.3667577  21.3446204 107.1691541 113.6877601
  17.9272998 118.0187096 108.1243294  18.1095393 117.2008752 108.5871046
  18.7505984 118.2354788 107.6868184  18.2615164 116.9455281 105.3858343
  18.7902930 116.4347736 104.7728505  18.5243383 116.6297811 106.2503876
  11.6170911 117.9970398 108.1456118  10.9481287 118.4816525 107.6620159
  11.4783781 118.2439618 109.0599497  10.7340673 102.3789291 115.3460662
  10.7982000 103.2404122 114.9338059  10.6707794 101.7663293 114.6133020
   6.9858489 106.2588853 104.9252051   7.2811930 105.3499531 104.8719104
   6.0846524 106.2376592 104.6033053  18.8944567 117.9796117 111.7302459
  18.7695707 117.1785857 111.2213405  19.5523658 118.4742310 111.2416429
  10.5152736 104.3344849 110.9079599   9.7939321 104.9480817 110.7687073
  11.3045991 104.8702614 110.8296245  20.9579476 115.7805137 113.3582009
  20.0109811 115.6610488 113.2860336  21.3062249 114.8927635 113.4408271
  13.3179049 101.6699276 117.1820251  13.8413451 101.9161572 117.9446560
  13.0991382 102.5019311 116.7623388   8.7146330 103.9402950 105.0491376
   8.3859036 103.0600329 104.8666482   9.0685701 103.8850619 105.9367765
  17.9625909 115.5757853 109.5586361  17.8150871 114.6474561 109.7393931
  18.7879403 115.5977944 109.0743437  11.8288153 104.2275920 105.4166853
  12.1684226 104.7561841 104.6945462  12.2760274 104.5656326 106.1925420
  21.5660031 116.3986412 110.6451234  22.4906578 116.1929273 110.5075685
  21.3975334 116.1502813 111.5540576  14.5231594 102.6112971 114.8669922
  14.1828415 101.8120784 115.2690601  13.8170600 102.9114682 114.2946755
  15.1748066  99.6962283 113.3197245  15.9974135  99.2222762 113.1976135
  15.4186130 100.4752767 113.8195931  13.8156300 102.7250542 103.6160146
  14.5364663 103.1031795 103.1123863  13.1921605 103.4439419 103.7195124
  17.9587423 103.4295691 104.5518479  18.1751038 104.3120329 104.2507307
  17.4781490 103.0381904 103.8224121  12.6986645 106.3881404 111.1289223
  12.5531225 106.7021707 112.0213505  12.2211848 107.0066304 110.5760122
  14.5583028 103.3783952 111.1770113  14.5444596 102.4825045 110.8402411
  15.2755456 103.3854616 111.8108399  16.4109158 103.8121292 113.2223240
  16.1526936 104.7338363 113.2207571  15.8794199 103.4151727 113.9123704
  21.3555347 116.9172079 106.0013326  21.5292225 116.3518502 105.2487178
  21.8484238 117.7172974 105.8192815  13.9619924 102.2598332 106.4457683
  14.0835835 101.3314978 106.6448570  13.6721966 102.2737018 105.5335998
  16.8311114  99.9453243 109.5824403  16.8532811 100.0092576 108.6276382
  17.2479173  99.1057751 109.7764909  27.2094738 109.6808502 107.6203625
  27.6525884 108.9315827 107.2222749  26.3321249 109.6718639 107.2377357
  22.3430520 116.2338844 103.1010224  23.0381424 116.8545536 103.3197538
  22.6853670 115.3834195 103.3762602  24.2421943 113.6838549 104.6297555
  24.7673267 114.0225822 103.9046875  24.1544295 112.7485565 104.4460689
  15.9262603 119.7510533 108.9892808  15.4867594 119.2586911 109.6825664
  16.6770720 119.2083500 108.7484883  13.3736476 115.2948542 111.0615109
  12.7516485 114.6319247 110.7617337  14.0441342 115.3209674 110.3788757
  23.9315849 114.3171453 119.9348753  23.1411392 114.2995592 119.3953252
  23.6949203 114.8559747 120.6897789  24.0513724 111.1663919 117.2481481
  24.1011729 111.0013927 118.1897004  23.9427647 110.2991178 116.8579362
  12.9349982 113.8452465 104.5373570  13.0838103 114.5287929 103.8840243
  13.7416426 113.8257555 105.0523026  21.3417486 107.1494847 118.5640788
  22.2427349 107.0101312 118.2724786  21.4165461 107.3149302 119.5038965
  15.6760292 104.5261702 117.4093974  14.8063601 104.8195268 117.1376563
  15.9119772 105.1102147 118.1301238  25.5531921 113.5860861 117.4923503
  25.2616729 113.9490841 118.3286964  24.9404052 112.8727869 117.3136835
  26.7527603 111.1513741 110.0126073  27.5874494 111.5903545 110.1763633
  26.8886732 110.6752394 109.1934319  23.8019109 108.7093475 115.9603561
  24.2773230 108.9021122 115.1522412  22.8784674 108.7652661 115.7146944
  10.6902615 109.8717643 105.5434639  10.4448657 108.9679973 105.7414849
  10.8598530 109.8734793 104.6014117  18.3799325 100.7441319 114.9259395
  18.8981269 101.4802346 114.6005883  18.0254458 101.0505312 115.7606154
   9.9598263 105.6046000 103.0420800   9.2667508 105.6790355 102.3860836
   9.7150015 104.8406344 103.5642317  18.6311920  97.1641602 110.4460291
  18.9113673  96.4964791 111.0720718  19.4162526  97.3570697 109.9334955
  16.4345388 116.3400595 102.0085317  15.8619355 116.9590783 101.5555789
  17.0078182 116.8899957 102.5425239  22.5020778 105.5859235 114.1931866
  23.4538201 105.6857333 114.2144090  22.3324228 104.7937504 114.7029951
  20.5235157 102.6714819 114.3791267  19.9285089 102.9519831 113.6837756
  20.2384854 103.1608720 115.1508008  19.6542648 116.6237746 103.1393900
  20.5873321 116.5583307 103.3426775  19.5665861 117.4594012 102.6808432
  22.2830664 115.9403616 100.0997847  22.2044296 115.6063479 100.9933605
  23.1040331 116.4325384 100.0989320  24.9808856 108.8065355 113.3074166
  24.9485176 107.8681356 113.4933850  25.5909479 108.8849392 112.5739991
  16.8192187 107.6761408  99.3501370  17.7651291 107.5467616  99.4189788
  16.4406431 106.9376070  99.8270798  25.1303344 105.5976399 113.3532449
  24.6142393 104.8134855 113.1662378  26.0143293 105.2695115 113.5178969
  22.7914071  99.3417414 109.3128262  22.5938892  99.0332502 110.1971594
  23.4013777 100.0679053 109.4426192  30.7985406 109.8681362 112.4480203
  31.5288794 109.6066650 113.0087906  30.1892351 109.1310084 112.4882271
  28.8800703 108.0089225 113.0454654  28.1533866 107.8745190 112.4371145
  28.4647990 108.3166053 113.8511372  15.0035104 105.6011385  99.2856255
  14.0966559 105.3044497  99.3618969  15.2811085 105.3041203  98.4190541
   5.9213044 106.9217748 109.7355302   5.6015828 106.0683056 109.4429676
   5.3746472 107.1366326 110.4913269  16.6197169 100.1448274 105.4400496
  15.8097898  99.7995359 105.8155743  17.3081586  99.8355818 106.0288108
  18.5487718  99.2226321 107.0624793  19.1018756  99.6421774 107.7214816
  18.7857804  98.2962069 107.1047749  13.7733888 102.4598320  99.4268234
  14.6353052 102.7853218  99.6864052  13.9584232 101.6729816  98.9141300
  21.9266525 101.3326846 106.5703457  21.3465194 101.9911650 106.1881510
  21.6602457 100.5104191 106.1590875  20.3770091 100.7331904 108.7724778
  20.8769870 100.8448438 107.9639096  21.0205699 100.4292957 109.4125586
   7.7038047 110.4738913 109.5814438   7.6808735 110.5726601 108.6296321
   8.0138683 111.3204064 109.9031604  20.7091403 103.4926937 105.6259806
  19.8217258 103.7776587 105.4080000  21.1245392 103.3320700 104.7787082
  24.0605939 103.5173458 109.3414145  24.8366329 104.0069910 109.6138762
  23.3354073 103.9431512 109.7986014  26.4978498 104.2301077 110.3988085
  27.0922988 103.9896813 109.6881394  26.5705081 103.5108207 111.0261622
  19.8534616 113.2571611  99.7207826  20.5570466 113.4621614 100.3365481
  19.1297265 113.8248373  99.9856909  20.6832427 109.0081473 105.8410096
  20.6267628 109.4650024 105.0017728  21.2360769 108.2472157 105.6632938
  24.4937232 104.7971204 106.6660215  24.2374167 104.3967840 107.4968423
  23.8690100 105.5114998 106.5410354  28.8049570 107.5367278 109.1731507
  28.2449128 107.6060467 109.9463069  28.1993074 107.3608262 108.4531003
  21.7621314 113.6954140 101.7706286  22.5966918 113.2635339 101.5883760
  21.6005657 113.5236154 102.6983180  21.4167206 110.1986254 103.1362625
  21.3616010 110.0330525 102.1951069  20.7913261 110.9062287 103.2924815
  14.7263331  99.6994363 102.7147943  14.7142001 100.6436203 102.8716214
  15.6186753  99.5164508 102.4207405  14.6552895 118.3763253 110.8015700
  13.7048526 118.3765115 110.6880072  14.9585381 117.6295988 110.2851735
  18.5415451  96.2937139 106.9693880  17.7747847  95.7395626 107.1150562
  18.9526156  96.3659008 107.8308032  30.3905589 124.2123792 111.8661462
  31.0283999 124.0930539 111.1624802  30.2726432 125.1604636 111.9249415
  27.1995295 124.1651220 111.8022987  26.8613807 124.0492284 110.9143522
  28.0685063 123.7642385 111.7823993  23.0582111 126.0186696 107.7919878
  22.4946976 125.9276633 107.0236166  22.9434506 125.1986601 108.2722371
  27.6815078 125.3186071 117.7609193  27.6703719 124.9238870 116.8889696
  27.8435718 124.5852144 118.3542964  20.6046543 127.5137888 110.6304098
  21.3967835 127.1728712 110.2150398  20.8443193 127.6232863 111.5506252
  22.5637297 126.7746801 103.5021477  23.3368173 126.2275788 103.3634353
  22.9162695 127.6391050 103.7135939  25.3278546 125.4800032 113.2989736
  25.9242118 125.2556054 112.5846699  25.3853518 124.7384777 113.9015184
  24.9003574 122.9339467 101.1339927  25.1529095 122.4120988 100.3723390
  23.9628134 122.7705613 101.2366611  29.9446857 121.9375245 108.9414670
  30.7309946 121.5194669 108.5905087  30.2085562 122.8421338 109.1096319
  30.1156935 127.3748096 103.6403327  29.4802768 127.4482722 104.3524232
  29.7854341 127.9641695 102.9622406  35.3455284 121.8750479 109.8447649
  36.0780456 121.3049695 110.0785478  34.5894640 121.4872079 110.2854154
  24.6199863 124.8367573 103.3364302  24.5036121 124.1612476 104.0045386
  24.7302123 124.3499947 102.5196455  26.9631404 124.2977720 107.0410991
  26.5989611 123.7708341 107.7523913  27.8198520 123.9076189 106.8677477
  32.8680705 115.5872053 114.3042258  32.5364030 116.4567464 114.0803472
  32.2726318 115.2708337 114.9836288  26.6036891 119.3267620 102.0372340
  26.7711293 120.1947856 102.4042811  26.4134060 119.4894902 101.1133629
  29.3612224 127.7884599 113.7038170  29.0612947 128.6909638 113.5953977
  29.0163284 127.5216782 114.5559323  22.8124706 124.2398396 109.7374875
  21.8875202 124.1074610 109.9452566  23.0609119 125.0192615 110.2344817
  32.7609368 120.3067139 111.3835608  31.8526245 120.2382547 111.0894369
  32.7096964 120.7839084 112.2117433  26.5826112 121.7825277 103.0219007
  26.4625737 122.2282328 103.8604487  25.8878700 122.1310595 102.4632545
  20.1733517 123.8831669 110.5718664  20.3025898 124.1366148 111.4858075
  19.4930968 124.4759377 110.2523319  34.6271014 118.5083577 113.1613481
  33.9845395 118.8016110 112.5153276  34.1225943 118.3936498 113.9666678
  32.2811178 122.2546751 103.8499341  33.1929034 122.4874137 103.6747038
  31.7720825 122.8383795 103.2874419  30.5651946 126.6771378 117.4860633
  30.9735302 126.2353789 116.7415266  29.8429207 126.1024006 117.7394826
  26.9183016 121.6143985 114.8594190  27.7644211 122.0383399 115.0028839
  26.8581653 120.9577609 115.5532753  30.8880760 127.2372569 111.2412922
  30.2589623 127.4018283 110.5388990  30.5006423 127.6514179 112.0123886
  34.7669992 128.1727007 108.5957286  34.0821030 128.5525908 108.0454319
  34.8513842 128.7822333 109.3289234  30.0682461 119.2748353 116.5175364
  29.8243393 120.0290414 115.9809640  30.3442392 119.6533701 117.3522611
  32.0220924 125.8186966 115.1952630  32.2337819 126.4618726 114.5187011
  31.9750672 124.9849282 114.7274560  29.6247153 118.4304786 112.0989202
  28.7631632 118.7286040 112.3905939  29.6509588 118.6475185 111.1670234
  26.4408722 126.9746977 108.5063007  26.9047068 127.2534680 107.7167630
  26.1765520 126.0730422 108.3236098  23.3332803 126.5218459 111.4442771
  23.9034160 126.9505727 110.8060255  23.9240915 126.2401043 112.1426956
  25.3777608 123.0970129 105.3152572  26.0801652 123.5491173 105.7826499
  25.0458237 122.4553948 105.9432466  19.1202942 121.3553682 110.6169706
  18.3301996 121.6111211 110.1409817  19.6114190 122.1702020 110.7221747
  33.1366752 128.6958921 113.3674987  33.9584196 128.2939109 113.0857668
  33.1329155 128.5927155 114.3191103  21.0717688 121.7198261 107.5753183
  20.2748851 121.8316956 108.0936678  20.8443280 122.0584914 106.7094073
  41.2272745 125.0397670 109.7159958  40.4736453 124.4705068 109.5603963
  41.3620286 125.0060334 110.6630593  26.0206674 117.4060531 119.6449289
  26.7616387 118.0067684 119.5653752  26.2524596 116.6638169 119.0867332
  29.9663837 113.4341634 113.9213571  29.6228106 114.3243276 113.8452682
  30.3342799 113.2443292 113.0583156  18.0349687 125.7575164 106.7402173
  18.8724909 126.1672173 106.5235881  18.2127955 124.8174607 106.7102367
  29.9314119 123.4250245 102.4286006  29.4160743 124.1954850 102.6674394
  29.6591428 122.7515381 103.0519068  27.5161230 118.2699946 107.4871245
  26.6602827 117.8806796 107.3076883  27.9288182 118.3491907 106.6271030
  29.0460377 115.8046289 111.8862804  28.5425173 115.7676424 111.0730610
  29.3390984 116.7139032 111.9459461  25.2903263 115.8885019 110.8928986
  26.1556260 115.6927827 110.5334876  25.3580772 115.6595371 111.8198343
  34.9048393 126.1782600 104.3639180  34.1277836 125.8393759 103.9194342
  35.5839874 126.1835223 103.6894145  29.7200422 121.2977337 104.2545787
  29.4150558 121.6123486 105.1055931  30.6730865 121.3758757 104.2973120
  28.1646854 127.4567560 105.9038741  27.6368216 126.7220320 105.5911979
  27.6634357 128.2342237 105.6578710  33.1439700 125.6516581 111.0205788
  32.4863375 126.3415842 111.1085916  33.9480100 126.0413013 111.3639774
  22.8965582 118.1187227 108.2645353  23.4709334 117.8962408 107.5318546
  23.4836564 118.1875921 109.0173954  31.9545159 124.0060954 109.0709729
  32.4677041 124.6390945 109.5731439  32.6046383 123.4062149 108.7053089
  23.2235169 120.1491688 102.2841238  22.3872481 120.4866374 102.6050513
  23.0839939 120.0140668 101.3468375  25.1988250 114.9928476 106.9920422
  24.5452662 114.6777493 106.3677037  25.1568724 114.3704216 107.7180245
  26.3099454 125.2747771  98.9073714  25.4026516 125.0437024  99.1064863
  26.8070486 124.4785390  99.0947696  28.4325990 121.4810409 111.3168070
  27.5148551 121.7025356 111.1589758  28.8486134 121.5556720 110.4579777
  29.2161038 122.8801825 106.4470750  29.9632857 123.3923222 106.1377872
  29.4852627 122.5585878 107.3075144  27.4887688 125.3760366 103.4297705
  26.5798907 125.0919398 103.5270174  27.5182772 125.7959444 102.5701011
  32.7206955 128.9866955 107.1988872  32.2669282 128.1457865 107.2554063
  32.0900922 129.6228353 107.5363652  31.6639875 119.9158941 108.4289540
  30.9262632 119.4036327 108.7599782  31.9166648 119.4759323 107.6172816
  31.1639895 130.8243452 108.1338690  31.4562869 131.3848509 107.4151056
  31.6738515 131.1172013 108.8891849  31.7651502 112.6935193 109.0231309
  32.0710379 111.8332557 108.7357224  32.4904107 113.2852813 108.8230303
  18.0575858 123.0965880 107.4112907  17.8600258 122.5035240 106.6863973
  17.5022522 122.7918090 108.1288846  26.0372582 122.9888986 109.5307500
  26.0921192 122.0362823 109.4549976  25.2263784 123.1448425 110.0148798
  27.1863776 126.9169109 100.7685783  26.7483206 126.2004968 100.3091420
  27.9274217 127.1445224 100.2070875  23.9764942 121.6066046 107.2897879
  23.1632807 121.9060216 107.6963071  24.4723936 121.2121735 108.0072361
  29.5739154 122.0707870 116.1212773  29.9288541 122.2979344 116.9807238
  30.2211285 122.4026247 115.4990028  35.3036890 125.1926306 106.8262102
  35.1654789 125.3827902 105.8983291  34.9473109 125.9545689 107.2830153
  23.4679017 119.1784401 112.9059114  24.1078396 119.0373161 112.2082077
  22.6356547 118.8918915 112.5297716  35.3306270 127.2602833 111.8373373
  35.7642777 127.1678122 112.6856427  36.0437851 127.2360334 111.1993389
  24.2439321 128.4786832 109.0194106  25.0379919 127.9837152 108.8176681
  23.5331013 127.9504695 108.6561812  20.5522084 122.6229914 105.0953859
  19.6219672 122.5614369 105.3123821  20.6479556 122.1005866 104.2990500
  20.4707633 119.1484726 107.6832101  20.7314450 120.0630060 107.5741261
  21.2924805 118.6809169 107.8328713  21.9432558 120.5622484 114.8530925
  22.6155612 120.3539846 114.2043574  21.1162345 120.3644570 114.4136157
  36.1921820 127.3026534 114.3706259  36.3857710 128.2072344 114.6165534
  36.0922438 126.8433953 115.2044844  27.8458130 117.1884425 116.8696586
  27.1986045 117.8874374 116.7761062  28.6159146 117.6220568 117.2372834
  31.2536928 127.4533277 119.9447139  31.1022435 127.2243828 119.0277223
  31.2441608 128.4103878 119.9578484  28.0222265 125.0265189 114.9293406
  28.9514325 125.1776349 114.7562373  27.6013295 125.1149210 114.0742052
  28.3715812 128.4297457 110.0880781  28.0365644 128.3898227 110.9838431
  27.8719757 127.7642172 109.6151191  31.3075003 125.7753491 100.3617841
  30.6904174 125.0500319 100.2650893  30.8391492 126.5362851 100.0184915
  24.9742356 123.5485046 115.1017042  25.6841975 122.9078238 115.0603660
  24.9311664 123.7997941 116.0243223  32.9629135 130.4852399 118.0223621
  32.9041681 129.8011619 117.3554204  33.3648653 131.2271389 117.5704247
  23.6871290 120.5350264 116.9212681  23.1508647 120.0841002 117.5734278
  23.0987999 120.6696173 116.1783146  23.0973549 119.9938915  99.4839145
  22.2203016 119.8727716  99.1201392  23.5731302 119.2024993  99.2318034
  32.9646542 128.4491983 116.2537601  32.0773321 128.1117905 116.3764000
  33.5345093 127.7175014 116.4906366  19.4210412 119.6706271 114.0065676
  19.3368600 119.0631941 113.2716086  18.5993118 120.1615290 114.0075172
  29.5934125 118.1559835 109.3735871  30.0902825 117.4029797 109.0536941
  28.8221107 118.1924152 108.8079080  37.4463883 123.8600201 111.0154162
  37.4353759 124.7424916 110.6448095  36.5781262 123.5071751 110.8208699
  30.6763906 126.9131522 106.9474294  29.7420185 127.0332985 106.7778999
  30.8540575 126.0103989 106.6834304  26.1769094 120.2977218 109.1007555
  25.8066882 119.7448258 109.7888461  26.6728187 119.6935351 108.5482556
  34.0636457 122.7548842 107.4824328  34.5296910 123.5876833 107.4084631
  34.5143958 122.2893823 108.1869587  32.1312689 129.0992663 104.4810480
  32.4072532 128.9849257 105.3904355  31.2617187 128.7010148 104.4422654
  32.0353120 115.1229429 111.5215230  31.1216200 115.3533655 111.6897437
  32.4646222 115.2067873 112.3729262  31.8059579 123.3119320 114.0215124
  31.1531029 123.5595228 113.3667577  32.1839959 122.4983459 113.6877601
  21.5734428 117.7081209 115.3460662  21.6375754 118.5696040 114.9338059
  21.5101548 117.0955210 114.6133020  17.8252243 121.5880770 104.9252051
  18.1205684 120.6791449 104.8719104  16.9240279 121.5668510 104.6033053
  21.3546490 119.6636767 110.9079599  20.6333076 120.2772735 110.7687073
  22.1439746 120.1994532 110.8296245  31.7973230 131.1097055 113.3582009
  30.8503566 130.9902406 113.2860336  32.1456003 130.2219553 113.4408271
  24.1572804 116.9991194 117.1820251  24.6807205 117.2453490 117.9446560
  23.9385137 117.8311228 116.7623388  19.5540085 119.2694868 105.0491376
  19.2252791 118.3892247 104.8666482  19.9079455 119.2142537 105.9367765
  22.6681908 119.5567838 105.4166853  23.0077980 120.0853759 104.6945462
  23.1154028 119.8948244 106.1925420  32.4053785 131.7278330 110.6451234
  33.3300333 131.5221191 110.5075685  32.2369089 131.4794731 111.5540576
  25.3625349 117.9404889 114.8669922  25.0222169 117.1412702 115.2690601
  24.6564355 118.2406599 114.2946755  26.0141820 115.0254201 113.3197245
  26.8367890 114.5514679 113.1976135  26.2579884 115.8044685 113.8195931
  24.6550055 118.0542459 103.6160146  25.3758417 118.4323712 103.1123863
  24.0315359 118.7731336 103.7195124  28.7981178 118.7587608 104.5518479
  29.0144792 119.6412246 104.2507307  28.3175245 118.3673822 103.8224121
  23.5380399 121.7173322 111.1289223  23.3924980 122.0313625 112.0213505
  23.0605603 122.3358222 110.5760122  25.3976782 118.7075870 111.1770113
  25.3838351 117.8116963 110.8402411  26.1149210 118.7146533 111.8108399
  27.2502913 119.1413210 113.2223240  26.9920691 120.0630281 113.2207571
  26.7187953 118.7443644 113.9123704  24.8013678 117.5890250 106.4457683
  24.9229589 116.6606896 106.6448570  24.5115720 117.6028936 105.5335998
  27.6704868 115.2745160 109.5824403  27.6926565 115.3384493 108.6276382
  28.0872927 114.4349669 109.7764909  38.0488493 125.0100420 107.6203625
  38.4919639 124.2607745 107.2222749  37.1715003 125.0010556 107.2377357
  33.1824274 131.5630761 103.1010224  33.8775179 132.1837454 103.3197538
  33.5247424 130.7126113 103.3762602  35.0815697 129.0130467 104.6297555
  35.6067021 129.3517740 103.9046875  34.9938050 128.0777482 104.4460689
  34.7709603 129.6463371 119.9348753  33.9805147 129.6287509 119.3953252
  34.5342958 130.1851664 120.6897789  34.8907478 126.4955837 117.2481481
  34.9405483 126.3305844 118.1897004  34.7821402 125.6283096 116.8579362
  32.1811241 122.4786765 118.5640788  33.0821103 122.3393230 118.2724786
  32.2559215 122.6441220 119.5038965  26.5154046 119.8553620 117.4093974
  25.6457355 120.1487186 117.1376563  26.7513526 120.4394065 118.1301238
  36.3925675 128.9152778 117.4923503  36.1010483 129.2782759 118.3286964
  35.7797806 128.2019787 117.3136835  37.5921357 126.4805658 110.0126073
  38.4268249 126.9195462 110.1763633  37.7280486 126.0044311 109.1934319
  34.6412863 124.0385393 115.9603561  35.1166985 124.2313039 115.1522412
  33.7178429 124.0944579 115.7146944  21.5296370 125.2009560 105.5434639
  21.2842412 124.2971890 105.7414849  21.6992285 125.2026711 104.6014117
  29.2193080 116.0733237 114.9259395  29.7375024 116.8094264 114.6005883
  28.8648213 116.3797230 115.7606154  20.7992018 120.9337918 103.0420800
  20.1061262 121.0082273 102.3860836  20.5543769 120.1698261 103.5642317
  29.4705674 112.4933519 110.4460291  29.7507428 111.8256708 111.0720718
  30.2556281 112.6862615 109.9334955  33.3414532 120.9151153 114.1931866
  34.2931955 121.0149251 114.2144090  33.1717983 120.1229422 114.7029951
  31.3628912 118.0006736 114.3791267  30.7678844 118.2811749 113.6837756
  31.0778609 118.4900637 115.1508008  33.1224419 131.2695534 100.0997847
  33.0438051 130.9355397 100.9933605  33.9434086 131.7617301 100.0989320
  35.8202610 124.1357273 113.3074166  35.7878930 123.1973274 113.4933850
  36.4303234 124.2141310 112.5739991  27.6585941 123.0053326  99.3501370
  28.6045046 122.8759534  99.4189788  27.2800186 122.2667988  99.8270798
  35.9697099 120.9268316 113.3532449  35.4536147 120.1426773 113.1662378
  36.8537047 120.5987033 113.5178969  33.6307826 114.6709332 109.3128262
  33.4332647 114.3624420 110.1971594  34.2407531 115.3970971 109.4426192
  41.6379160 125.1973280 112.4480203  42.3682548 124.9358568 113.0087906
  41.0286105 124.4602002 112.4882271  39.7194457 123.3381142 113.0454654
  38.9927621 123.2037107 112.4371145  39.3041744 123.6457971 113.8511372
  25.8428858 120.9303302  99.2856255  24.9360314 120.6336415  99.3618969
  26.1204839 120.6333120  98.4190541  16.7606799 122.2509666 109.7355302
  16.4409583 121.3974974 109.4429676  16.2140227 122.4658244 110.4913269
  27.4590924 115.4740192 105.4400496  26.6491652 115.1287277 105.8155743
  28.1475341 115.1647736 106.0288108  29.3881472 114.5518239 107.0624793
  29.9412511 114.9713692 107.7214816  29.6251559 113.6253987 107.1047749
  24.6127643 117.7890237  99.4268234  25.4746807 118.1145136  99.6864052
  24.7977987 117.0021733  98.9141300  32.7660279 116.6618764 106.5703457
  32.1858948 117.3203568 106.1881510  32.4996212 115.8396108 106.1590875
  31.2163846 116.0623822 108.7724778  31.7163624 116.1740356 107.9639096
  31.8599454 115.7584874 109.4125586  18.5431801 125.8030831 109.5814438
  18.5202489 125.9018518 108.6296321  18.8532438 126.6495982 109.9031604
  31.5485157 118.8218854 105.6259806  30.6611012 119.1068505 105.4080000
  31.9639146 118.6612618 104.7787082  34.8999693 118.8465375 109.3414145
  35.6760084 119.3361828 109.6138762  34.1747828 119.2723429 109.7986014
  37.3372252 119.5592994 110.3988085  37.9316743 119.3188730 109.6881394
  37.4098836 118.8400125 111.0261622  30.6928371 128.5863529  99.7207826
  31.3964221 128.7913531 100.3365481  29.9691020 129.1540291  99.9856909
  31.5226181 124.3373390 105.8410096  31.4661382 124.7941942 105.0017728
  32.0754524 123.5764075 105.6632938  35.3330987 120.1263122 106.6660215
  35.0767921 119.7259758 107.4968423  34.7083855 120.8406916 106.5410354
  39.6443325 122.8659195 109.1731507  39.0842883 122.9352385 109.9463069
  39.0386828 122.6900180 108.4531003  32.6015068 129.0246058 101.7706286
  33.4360672 128.5927257 101.5883760  32.4399411 128.8528072 102.6983180
  32.2560960 125.5278171 103.1362625  32.2009764 125.3622443 102.1951069
  31.6307016 126.2354204 103.2924815  25.5657086 115.0286280 102.7147943
  25.5535756 115.9728120 102.8716214  26.4580508 114.8456426 102.4207405
  29.3809205 111.6229057 106.9693880  28.6141601 111.0687544 107.1150562
  29.7919910 111.6950926 107.8308032  43.7074459 130.9163970 114.3042258
  43.3757784 131.7859381 114.0803472  43.1120073 130.6000254 114.9836288
  45.4664769 133.8375495 113.1613481  44.8239149 134.1308028 112.5153276
  44.9619697 133.7228415 113.9666678  40.4640907 133.7596704 112.0989202
  39.6025386 134.0577958 112.3905939  40.4903342 133.9767103 111.1670234
  36.8600428 132.7352449 119.6449289  37.6010141 133.3359602 119.5653752
  37.0918351 131.9930086 119.0867332  40.8057591 128.7633552 113.9213571
  40.4621860 129.6535193 113.8452682  41.1736554 128.5735209 113.0583156
  38.3554985 133.5991863 107.4871245  37.4996581 133.2098714 107.3076883
  38.7681937 133.6783824 106.6271030  39.8854131 131.1338207 111.8862804
  39.3818927 131.0968342 111.0730610  40.1784738 132.0430949 111.9459461
  36.1297017 131.2176936 110.8928986  36.9950014 131.0219745 110.5334876
  36.1974526 130.9887288 111.8198343  36.0382004 130.3220393 106.9920422
  35.3846416 130.0069410 106.3677037  35.9962478 129.6996134 107.7180245
  42.5033629 135.2450859 108.4289540  41.7656386 134.7328245 108.7599782
  42.7560403 134.8051240 107.6172816  42.6045257 128.0227111 109.0231309
  42.9104133 127.1624474 108.7357224  43.3297862 128.6144731 108.8230303
  38.6851885 132.5176342 116.8696586  38.0379800 133.2166292 116.7761062
  39.4552900 132.9512486 117.2372834  40.4327880 133.4851753 109.3735871
  40.9296579 132.7321715 109.0536941  39.6614861 133.5216069 108.8079080
  42.8746875 130.4521346 111.5215230  41.9609954 130.6825573 111.6897437
  43.3039976 130.5359790 112.3729262  36.8535575 130.3546119 113.3197245
  37.6761644 129.8806597 113.1976135  37.0973638 131.1336602 113.8195931
  38.5098623 130.6037078 109.5824403  38.5320320 130.6676411 108.6276382
  38.9266682 129.7641587 109.7764909  40.0586834 131.4025154 114.9259395
  40.5768778 132.1386181 114.6005883  39.7041967 131.7089148 115.7606154
  40.3099429 127.8225437 110.4460291  40.5901182 127.1548626 111.0720718
  41.0950035 128.0154532 109.9334955  42.2022666 133.3298654 114.3791267
  41.6072598 133.6103667 113.6837756  41.9172363 133.8192555 115.1508008
  46.8090853 136.2560234 113.3532449  46.2929902 135.4718691 113.1662378
  47.6930802 135.9278951 113.5178969  44.4701580 130.0001250 109.3128262
  44.2726401 129.6916338 110.1971594  45.0801286 130.7262888 109.4426192
  38.2984678 130.8032110 105.4400496  37.4885407 130.4579195 105.8155743
  38.9869095 130.4939653 106.0288108  40.2275227 129.8810156 107.0624793
  40.7806265 130.3005610 107.7214816  40.4645313 128.9545905 107.1047749
  43.6054034 131.9910682 106.5703457  43.0252703 132.6495486 106.1881510
  43.3389966 131.1688026 106.1590875  42.0557600 131.3915739 108.7724778
  42.5557378 131.5032274 107.9639096  42.6993208 131.0876792 109.4125586
  42.3878912 134.1510772 105.6259806  41.5004767 134.4360423 105.4080000
  42.8032901 133.9904535 104.7787082  45.7393448 134.1757293 109.3414145
  46.5153838 134.6653745 109.6138762  45.0141582 134.6015347 109.7986014
  48.1766007 134.8884912 110.3988085  48.7710497 134.6480648 109.6881394
  48.2492590 134.1692043 111.0261622  46.1724741 135.4555040 106.6660215
  45.9161676 135.0551675 107.4968423  45.5477609 136.1698834 106.5410354
  36.4050840 130.3578198 102.7147943  36.3929510 131.3020038 102.8716214
  37.2974262 130.1748344 102.4207405  40.2202960 126.9520975 106.9693880
  39.4535356 126.3979461 107.1150562  40.6313665 127.0242844 107.8308032
   2.8274022  52.8936848  96.5692956   3.5599194  52.3236065  96.8030785
   2.0713378  52.5058449  97.0099461   2.1089752  49.5269947  99.8858788
   1.4664132  49.8202480  99.2398583   1.6044681  49.4122867 100.6911985
   2.2488730  59.1913376  95.3202593   1.5639768  59.5712278  94.7699626
   2.3332579  59.8008703  96.0534540   0.6185490  59.7145291 100.0920293
   1.4402933  59.3125478  99.8102975   0.6147893  59.6113525 101.0436409
   8.7091483  56.0584039  96.4405265   7.9555191  55.4891437  96.2849269
   8.8439024  56.0246704  97.3875900   2.3867131  57.1968969  91.0884486
   1.6096574  56.8580129  90.6439648   3.0658612  57.2021592  90.4139451
   2.7855628  56.2112676  93.5507408   2.6473527  56.4014272  92.6228598
   2.4291847  56.9732059  94.0075459   2.8125008  58.2789203  98.5618680
   3.2461515  58.1864492  99.4101734   3.5256589  58.2546703  97.9238696
   3.6740557  58.3212904 101.0951565   3.8676448  59.2258714 101.3410840
   3.5741176  57.8620323 101.9290150   4.9282621  54.8786570  97.7399469
   4.9172497  55.7611286  97.3693402   4.0600000  54.5258121  97.5454006
   1.5455195  53.7735211  94.2069635   2.0115647  54.6063203  94.1329938
   1.9962696  53.3080193  94.9114894   5.5307231  56.0286790  94.3448932
   5.9738377  55.2794115  93.9468055   4.6533741  56.0196926  93.9622664
   0.6643012  62.5817131  89.8255530   1.3593916  63.2023824  90.0442845
   1.0066162  61.7312482  90.1007908   2.5634435  60.0316836  91.3542861
   3.0885759  60.3704109  90.6292181   2.4756788  59.0963852  91.1705996
   2.2528341  60.6649740 106.6594059   1.4623885  60.6473879 106.1198559
   2.0161696  61.2038034 107.4143096   2.3726216  57.5142207 103.9726788
   2.4224221  57.3492214 104.9142311   2.2640139  56.6469466 103.5824668
   3.8744413  59.9339148 104.2168809   3.5829221  60.2969129 105.0532270
   3.2616544  59.2206156 104.0382141   5.0740095  57.4992028  96.7371379
   5.9086987  57.9381832  96.9008940   5.2099224  57.0230681  95.9179625
   2.1231601  55.0571763 102.6848867   2.5985723  55.2499409 101.8767719
   1.1997167  55.1130948 102.4392251   0.8233270  51.9337523 100.9177173
   1.7750693  52.0335620 100.9389397   0.6536721  51.1415791 101.4275257
   0.6043157  62.2881903  86.8243154   0.5256788  61.9541767  87.7178912
   1.4252824  62.7803671  86.8234626   3.3021348  55.1543642 100.0319472
   3.2697668  54.2159643 100.2179156   3.9121972  55.2327679  99.2985297
   3.4515836  51.9454686 100.0777756   2.9354885  51.1613142  99.8907685
   4.3355785  51.6173402 100.2424275   1.1126563  45.6895701  96.0373568
   0.9151384  45.3810790  96.9216900   1.7226269  46.4157340  96.1671498
   9.1197898  56.2159649  99.1725509   9.8501286  55.9544937  99.7333213
   8.5104843  55.4788371  99.2127577   7.2013195  54.3567512  99.7699960
   6.4746359  54.2223477  99.1616452   6.7860482  54.6644340 100.5756679
   2.3818431  49.8651745  96.0659451   3.1578821  50.3548197  96.3384068
   1.6566565  50.2909799  96.5231321   4.8190990  50.5779364  97.1233392
   5.4135481  50.3375100  96.4126700   4.8917574  49.8586495  97.7506928
   2.8149725  51.1449492  93.3905522   2.5586659  50.7446127  94.2213730
   2.1902593  51.8593286  93.2655661   7.1262063  53.8845565  95.8976813
   6.5661621  53.9538754  96.6708375   6.5205566  53.7086550  95.1776310
   8.7118081  70.5602079  98.5906769   9.3496491  70.4408826  97.8870109
   8.5938924  71.5082923  98.6494721   5.5207787  70.5129507  98.5268294
   5.1826299  70.3970572  97.6388829   6.3897556  70.1120672  98.5069300
   1.3794603  72.3664983  94.5165185   0.8159468  72.2754920  93.7481472
   1.2646998  71.5464888  94.9967677   6.0027570  71.6664359 104.4854499
   5.9916211  71.2717157 103.6135003   6.1648210  70.9330431 105.0788271
   6.9594162  76.0335951  89.8279650   6.3082141  76.6190031  89.4413663
   7.7538525  76.5642146  89.8874687   0.8849789  73.1225088  90.2266784
   1.6580665  72.5754075  90.0879660   1.2375188  73.9869338  90.4381245
   2.7234831  74.4501470 103.4333683   2.4324697  75.3547101 103.3180350
   3.3591816  74.4917998 104.1477753   3.6491038  71.8278319 100.0235043
   4.2454611  71.6034341  99.3092006   3.7066010  71.0863064 100.6260491
   3.2216067  69.2817754  87.8585234   3.4741587  68.7599276  87.0968697
   2.2840626  69.1183900  87.9611917   8.2659350  68.2853533  95.6659977
   9.0522439  67.8672956  95.3150394   8.5298054  69.1899625  95.8341625
   8.4369427  73.7226383  90.3648634   7.8015260  73.7961010  91.0769538
   8.1066833  74.3119982  89.6867713  13.6667777  68.2228766  96.5692956
  14.3992949  67.6527983  96.8030785  12.9107132  67.8350366  97.0099461
   2.9412355  71.1845860  90.0609609   2.8248614  70.5090764  90.7290693
   3.0514615  70.6978234  89.2441762   5.2843896  70.6456007  93.7656298
   4.9202104  70.1186628  94.4769219   6.1411012  70.2554476  93.5922783
  11.1893197  61.9350340 101.0287564  10.8576522  62.8045751 100.8048779
  10.5938810  61.6186624 101.7081595   4.9249383  65.6745907  88.7617647
   5.0923786  66.5426143  89.1288118   4.7346552  65.8373189  87.8378936
   7.6824717  74.1362886 100.4283477   7.3825440  75.0387925 100.3199284
   7.3375776  73.8695069 101.2804630  11.0821860  66.6545426  98.1080914
  10.1738738  66.5860835  97.8139675  11.0309456  67.1317371  98.9362740
   4.9038604  68.1303565  89.7464313   4.7838229  68.5760615  90.5849794
   4.2091193  68.4788882  89.1877851   2.6645496  80.9007206  93.3954445
   2.5869526  81.8515031  93.4742925   2.0607140  80.5553079  94.0529371
   5.1562726  68.0735072 106.0515811   4.3796060  68.6328992 106.0418676
   5.7953289  68.5591855 106.5730682  12.9483507  64.8561865  99.8858788
  12.3057887  65.1494398  99.2398583  12.4438435  64.7414785 100.6911985
  10.6023670  68.6025038  90.5744647  11.5141527  68.8352425  90.3992345
  10.0933317  69.1862082  90.0119726   3.4109098  70.8820525 105.6133778
   4.1523783  71.4205569 105.3368602   2.7046084  71.5086814 105.7705330
   8.8864438  73.0249666 104.2105940   9.2947794  72.5832076 103.4660572
   8.1641700  72.4502293 104.4640133   5.2395508  67.9622272 101.5839497
   6.0856703  68.3861686 101.7274146   5.1794146  67.3055897 102.2778060
   9.2093253  73.5850856  97.9658229   8.5802115  73.7496570  97.2634297
   8.8218915  73.9992466  98.7369193  13.0882485  74.5205294  95.3202593
  12.4033523  74.9004195  94.7699626  13.1726334  75.1300621  96.0534540
   8.3894953  65.6226641 103.2420671   8.1455885  66.3768701 102.7054946
   8.6654884  66.0011988 104.0767918  10.3433416  72.1665253 101.9197936
  10.5550311  72.8097013 101.2432317  10.2963164  71.3327570 101.4519866
   7.9459645  64.7783074  98.8234508   7.0844124  65.0764327  99.1151246
   7.9722080  64.9953473  97.8915541   4.7621215  73.3225264  95.2308314
   5.2259560  73.6012967  94.4412936   4.4978013  72.4208709  95.0481405
   1.6545296  72.8696746  98.1688077   2.2246653  73.2984014  97.5305562
   2.2453407  72.5879331  98.8672263   3.6990101  69.4448417  92.0397879
   4.4014144  69.8969460  92.5071805   3.3670729  68.8032236  92.6677772
   2.1470462  68.0360173 106.4149088   1.5169123  68.7176454 106.6484485
   2.0406550  67.9243255 105.4702227  11.4579244  75.0437209 100.0920293
  12.2796688  74.6417396  99.8102975  11.4541647  74.9405443 101.0436409
   5.2235848  74.5921252 102.2481004   5.2880280  75.0541659 103.0839176
   4.5146771  73.9618617 102.3763314  19.5485237  71.3875957  96.4405265
  18.7948946  70.8183355  96.2849269  19.6832778  71.3538621  97.3875900
   4.9383865  76.2589359  92.1159984   4.8029540  77.1040895  92.5444832
   5.4793678  76.4608637  91.3525918   1.4251205  62.3380939 108.7774340
   1.0318150  61.7847138 109.4521984   2.2417345  62.6491518 109.1680857
   4.3419166  63.7538818 106.3694596   5.0828879  64.3545971 106.2899059
   4.5737089  63.0116456 105.8112639   6.5652342  76.8812926 106.2460326
   6.1216196  76.0949304 105.9281231   7.2269555  77.0692076 105.5804217
   1.3239463  78.4108727 100.7721005   1.8746888  78.2825791  99.9997999
   0.4850939  78.7103616 100.4215898   8.6633580  77.1615726 104.2741728
   8.6452055  77.9824607 103.7821997   9.5853500  77.0369801 104.4991869
   5.1206634  74.6759855 105.1165236   5.6534971  73.9148143 104.8864544
   4.5920715  74.3833507 105.8589391   8.2876329  59.7819921 100.6458878
   7.9440598  60.6721563 100.5697988   8.6555291  59.5921579  99.7828463
   8.2526612  69.7728532  89.1531313   7.7373235  70.5433137  89.3919700
   7.9803920  69.0993668  89.7764374   5.8373723  64.6178233  94.2116551
   4.9815319  64.2285083  94.0322190   6.2500674  64.6970194  93.3516337
   7.3672869  62.1524576  98.6108111   6.8637665  62.1154711  97.7975916
   7.6603476  63.0617319  98.6704768   3.6115755  62.2363306  97.6174293
   4.4768752  62.0406115  97.2580182   3.6793264  62.0073658  98.5443650
  13.2260886  72.5260887  91.0884486  12.4490328  72.1872046  90.6439648
  13.9052367  72.5313510  90.4139451   8.0412915  67.6455624  90.9791094
   7.7363050  67.9601774  91.8301237   8.9943357  67.7237044  91.0218427
   6.4859347  73.8045848  92.6284048   5.9580708  73.0698607  92.3157286
   5.9846849  74.5820524  92.3824016  11.4652193  71.9994868  97.7451094
  10.8075867  72.6894130  97.8331223  12.2692592  72.3891300  98.0885081
   1.2178074  64.4665514  94.9890660   1.7921826  64.2440695  94.2563853
   1.8049057  64.5354208  95.7419261  10.2757651  70.3539241  95.7955036
  10.7889533  70.9869233  96.2976746  10.9258875  69.7540436  95.4298396
   1.5447661  66.4969975  89.0086545   0.7084974  66.8344662  89.3295820
   1.4052431  66.3618955  88.0713682   3.5200742  61.3406763  93.7165729
   2.8665154  61.0255780  93.0922344   3.4781216  60.7182503  94.4425552
   4.6311947  71.6226058  85.6319021   3.7239008  71.3915311  85.8310170
   5.1282979  70.8263677  85.8193003   7.5380026  80.3323565  88.5515707
   6.8641724  80.6355262  89.1600665   7.9245848  81.1352645  88.2021164
   6.7538482  67.8288696  98.0413377   5.8361044  68.0503643  97.8835065
   7.1698626  67.9035007  97.1825084   7.5373530  69.2280112  93.1716057
   8.2845349  69.7401509  92.8623179   7.8065120  68.9064165  94.0320450
   5.8100180  71.7238653  90.1543011   4.9011399  71.4397686  90.2515481
   5.8395264  72.1437731  89.2946318  11.0419448  75.3345242  93.9234179
  10.5881775  74.4936152  93.9799369  10.4113414  75.9706641  94.2608959
   9.9852367  66.2637228  95.1534846   9.2475124  65.7514615  95.4845089
  10.2379141  65.8237610  94.3418123   9.4852387  77.1721739  94.8583997
   9.7775361  77.7326796  94.1396363   9.9951007  77.4650300  95.6137156
  10.0863994  59.0413480  95.7476615  10.3922871  58.1810844  95.4602531
  10.8116599  59.6331101  95.5475609   4.3585074  69.3367273  96.2552807
   4.4133684  68.3841110  96.1795283   3.5476276  69.4926713  96.7394105
   5.5076268  73.2647396  87.4931090   5.0695698  72.5483255  87.0336727
   6.2486709  73.4923511  86.9316181   2.2977434  67.9544333  94.0143185
   1.4845300  68.2538504  94.4208378   2.7936428  67.5600022  94.7317668
   4.4486012  77.9502090  95.9477450   4.4062191  78.1762936  95.0185982
   5.3648711  77.7165465  96.0963251   7.8951646  68.4186158 102.8458079
   8.2501034  68.6457631 103.7052545   8.5423777  68.7504534 102.2235335
  13.6249383  71.5404594  93.5507408  13.4867281  71.7306190  92.6228598
  13.2685602  72.3023976  94.0075459   1.7891509  65.5262689  99.6304420
   2.4290888  65.3851448  98.9327384   0.9569039  65.2397202  99.2543022
  13.6518762  73.6081121  98.5618680  14.0855269  73.5156410  99.4101734
  14.3650343  73.5838621  97.9238696   2.5651813  74.8265119  95.7439413
   3.3592411  74.3315439  95.5421988   1.8543505  74.2982982  95.3807118
   7.3846657  77.2083215 100.0951780   7.4383680  77.7774151 100.8629496
   6.5161439  77.3785100  99.7305818  14.5134312  73.6504821 101.0951565
  14.7070202  74.5550632 101.3410840  14.4134930  73.1912240 101.9290150
   6.1670623  63.5362712 103.5941893   5.5198538  64.2352661 103.5006369
   6.9371638  63.9698856 103.9618141   9.5749421  73.8011564 106.6692446
   9.4234927  73.5722116 105.7522530   9.5654100  74.7582165 106.6823791
   6.3434757  71.3743477 101.6538712   7.2726817  71.5254636 101.4807680
   5.9225787  71.4627497 100.7987359   5.1423089  75.3994141  99.4237250
   5.0034174  75.0312925 100.2963188   4.3537685  75.9141781  99.2521208
   5.7371241  80.5003238  90.7662786   5.9122996  80.0291281  91.5808409
   5.0504029  81.1269004  90.9944047   6.6928304  74.7775744  96.8126088
   6.3578137  74.7376514  97.7083738   6.1932250  74.1120460  96.3396498
   0.6672548  70.1843374 102.3378669   0.5292346  69.4523613 102.9390208
   1.5777471  70.0952274 102.0562857   9.6287496  72.1231778  87.0863147
   9.0116666  71.3978606  86.9896200   9.1603984  72.8841138  86.7430222
   3.2954849  69.8963333 101.8262349   4.0054467  69.2556525 101.7848967
   3.2524157  70.1476228 102.7488529  11.2841627  76.8330686 104.7468928
  11.2254173  76.1489907 104.0799511  11.6861146  77.5749676 104.2949554
   2.0083783  66.8828551 103.6457988   1.4721140  66.4319289 104.2979584
   1.4200491  67.0174460 102.9028452   1.4186042  66.3417202  86.2084452
   0.5415508  66.2206003  85.8446698   1.8943795  65.5503281  85.9563340
  11.2859035  74.7970270 102.9782907  10.3985813  74.4596192 103.1009306
  11.8557586  74.0653302 103.2151673   4.8160188  79.4571723  99.9444151
   4.7430359  80.2626694 100.4563455   4.3737581  79.6563689  99.1192172
   4.6049968  78.6943493  93.4546972   3.8217489  79.2365173  93.5485197
   5.3042713  79.2117472  93.8541213   7.9146618  64.5038122  96.0981178
   8.4115317  63.7508085  95.7782248   7.1433599  64.5402439  95.5324387
  15.7676375  70.2078488  97.7399469  15.7566251  71.0903203  97.3693402
  14.8993754  69.8550039  97.5454006   7.2758871  79.3558557 102.1002309
   7.9886844  79.9906022 102.0278211   6.7848900  79.4522423 101.2842311
   8.9976398  73.2609809  93.6719601   8.0632677  73.3811272  93.5024305
   9.1753067  72.3582276  93.4079611   4.4981586  66.6455505  95.8252862
   4.1279374  66.0926546  96.5133768   4.9940679  66.0413639  95.2727862
  12.3848950  69.1027129  94.2069635  12.8509402  69.9355120  94.1329938
  12.8356450  68.6372110  94.9114894   2.3270785  77.1053000 102.9207880
   3.0280244  77.7389483 103.0737274   1.8565900  77.4467732 102.1603519
  10.4525181  75.4470950  91.2055787  10.7285025  75.3327545  92.1149661
   9.5829680  75.0488435  91.1667960  10.3565612  61.4707716  98.2460536
   9.4428692  61.7011943  98.4142743  10.7858714  61.5546160  99.0974569
  10.1272071  69.6597608 100.7460430   9.4743521  69.9073515 100.0912883
  10.5052451  68.8461746 100.4122908   7.0879245  79.6957301  94.8488601
   7.2701639  78.8778957  95.3116353   7.9112231  79.9124993  94.4113491
   7.4221410  78.6225486  92.1103649   7.9509177  78.1117941  91.4973811
   7.6849630  78.3068016  92.9749182   6.1759644  70.4017419 107.2326468
   5.5000281  70.3011548 107.9028843   6.9987278  70.2456633 107.6962465
   4.9182427  81.7084346 101.4684083   5.4700735  81.8715968 102.2333169
   5.2588620  82.2988784 100.7964108   9.7693301  76.5345604 107.3232738
  10.3133205  77.1475562 106.8287693   9.1880146  77.0925182 107.8399751
   8.0550814  79.6566322  98.4547766   7.9301954  78.8556062  97.9458711
   8.7129905  80.1512515  97.9661736  10.1185723  77.4575342 100.0827316
   9.1716058  77.3380693 100.0105642  10.4668496  76.5697840 100.1653577
   2.4785296  63.3469481 103.9065558   3.0019698  63.5931777 104.6691867
   2.2597629  64.1789516 103.4868695   7.1232156  77.2528058  96.2831668
   6.9757118  76.3244765  96.4639238   7.9485649  77.2748149  95.7988743
   0.9894400  65.9046125  92.1412160   1.3290473  66.4332046  91.4190768
   1.4366521  66.2426531  92.9170727  10.7266278  78.0756617  97.3696541
  11.6512825  77.8699478  97.2320992  10.5581581  77.8273018  98.2785882
   3.6837841  64.2883176 101.5915228   3.3434661  63.4890989 101.9935908
   2.9776847  64.5884887 101.0192061   4.3354313  61.3732488 100.0442551
   5.1580382  60.8992966  99.9221442   4.5792376  62.1522972 100.5441237
   2.9762547  64.4020747  90.3405453   3.6970910  64.7802000  89.8369170
   2.3527851  65.1209624  90.4440431   7.1193670  65.1065896  91.2763785
   7.3357285  65.9890534  90.9752613   6.6387737  64.7152109  90.5469427
   1.8592892  68.0651609  97.8534530   1.7137472  68.3791912  98.7458811
   1.3818095  68.6836509  97.3005428   3.7189274  65.0554157  97.9015419
   3.7050843  64.1595250  97.5647717   4.4361702  65.0624821  98.5353705
   5.5715405  65.4891497  99.9468547   5.3133183  66.4108568  99.9452877
   5.0400445  65.0921932 100.6369011  10.5161594  78.5942284  92.7258632
  10.6898471  78.0288707  91.9732485  11.0090485  79.3943179  92.5438122
   3.1226170  63.9368537  93.1702989   3.2442082  63.0085183  93.3693877
   2.8328213  63.9507223  92.2581305   5.9917361  61.6223448  96.3069709
   6.0139058  61.6862781  95.3521689   6.4085420  60.7827956  96.5010215
  16.3700985  71.3578707  94.3448932  16.8132131  70.6086032  93.9468055
  15.4927495  71.3488844  93.9622664  11.5036766  77.9109049  89.8255530
  12.1987671  78.5315741  90.0442845  11.8459916  77.0604400  90.1007908
  13.4028189  75.3608754  91.3542861  13.9279514  75.6996027  90.6292181
  13.3150542  74.4255769  91.1705996   5.0648238  79.2742828 103.4832738
   5.3735365  79.0291975 104.3555437   5.8623720  79.4789466 102.9951608
   5.0868850  81.4280737  95.7138114   4.6473841  80.9357116  96.4070971
   5.8376967  80.8853705  95.4730190   2.5342722  76.9718747  97.7860416
   1.9122732  76.3089452  97.4862644   3.2047589  76.9979878  97.1034064
   2.6067250  65.4500535 107.3792922   2.6555405  66.3262657 106.9970692
   3.1489764  64.9077928 106.8064565  13.0922096  75.9941658 106.6594059
  12.3017639  75.9765797 106.1198559  12.8555450  76.5329952 107.4143096
  13.2119971  72.8434124 103.9726788  13.2617976  72.6784132 104.9142311
  13.1033894  71.9761383 103.5824668   2.0956229  75.5222670  91.2618877
   2.2444350  76.2058134  90.6085549   2.9022673  75.5027760  91.7768332
  10.5023733  68.8265052 105.2886094  11.4033596  68.6871517 104.9970092
  10.5771707  68.9919507 106.2284272   4.8366538  66.2031907 104.1339281
   3.9669848  66.4965473 103.8621869   5.0726019  66.7872352 104.8546544
  14.7138167  75.2631066 104.2168809  14.4222976  75.6261046 105.0532270
  14.1010299  74.5498074 104.0382141  12.9625356  70.3863680 102.6848867
  13.4379477  70.5791327 101.8767719  12.0390921  70.4422866 102.4392251
   7.5405572  62.4211524 101.6504701   8.0587516  63.1572551 101.3251190
   7.1860705  62.7275517 102.4851460   7.7918166  58.8411806  97.1705598
   8.0719920  58.1734995  97.7966024   8.5768773  59.0340902  96.6580262
   5.5951635  78.0170800  88.7330624   5.0225602  78.6360987  88.2801096
   6.1684428  78.5670162  89.2670546  11.6627025  67.2629440 100.9177173
  12.6144448  67.3627538 100.9389397  11.4930475  66.4707709 101.4275257
   9.6841404  64.3485024 101.1036574   9.0891336  64.6290036 100.4083062
   9.3991101  64.8378925 101.8753315   8.8148895  78.3007950  89.8639206
   9.7479568  78.2353512  90.0672082   8.7272107  79.1364217  89.4053739
  14.1415102  70.4835560 100.0319472  14.1091423  69.5451561 100.2179156
  14.7515726  70.5619597  99.2985297   5.9798433  69.3531613  86.0746677
   6.9257538  69.2237821  86.1435095   5.6012678  68.6146275  86.5516105
  14.2909591  67.2746604 100.0777756  13.7748640  66.4905060  99.8907685
  15.1749539  66.9465320 100.2424275  11.9520318  61.0187619  96.0373568
  11.7545139  60.7102707  96.9216900  12.5620023  61.7449258  96.1671498
   5.8637126  73.4049359 107.5347334   6.7840135  73.5827958 107.7287380
   5.8286709  72.4605405 107.3827033   4.1641350  67.2781589  86.0101562
   3.2572806  66.9814702  86.0864275   4.4417331  66.9811408  85.1435848
   5.7803416  61.8218479  92.1645803   4.9704144  61.4765564  92.5401049
   6.4687833  61.5126023  92.7533415   7.7093964  60.8996526  93.7870100
   8.2625003  61.3191979  94.4460123   7.9464051  59.9732274  93.8293056
   3.7327064  66.8883600 109.5672864   3.6323791  67.8377957 109.4984955
   3.5148606  66.5601839 108.6948934   2.9340135  64.1368525  86.1513541
   3.7959299  64.4623423  86.4109358   3.1190479  63.3500021  85.6386607
  11.0872772  63.0097051  93.2948764  10.5071441  63.6681855  92.9126816
  10.8208704  62.1874396  92.8836181   9.5376338  62.4102109  95.4970084
  10.0376116  62.5218643  94.6884403  10.1811946  62.1063162  96.1370893
   3.5958334  70.3180738 108.3837925   3.1125415  71.1181099 108.5901814
   3.6819273  70.3288683 107.4305369   9.8697650  65.1697142  92.3505112
   8.9823505  65.4546792  92.1325307  10.2851639  65.0090905  91.5032389
  13.2212186  65.1943663  96.0659451  13.9972576  65.6840115  96.3384068
  12.4960320  65.6201717  96.5231321  15.6584744  65.9071282  97.1233392
  16.2529235  65.6667018  96.4126700  15.7311328  65.1878412  97.7506928
   9.8438673  70.6851677  92.5655402   9.7873875  71.1420229  91.7263035
  10.3967016  69.9242362  92.3878245  13.6543479  66.4741409  93.3905522
  13.3980413  66.0738045  94.2213730  13.0296347  67.1885203  93.2655661
  17.9655817  69.2137483  95.8976813  17.4055375  69.2830672  96.6708375
  17.3599320  69.0378467  95.1776310  10.9227560  75.3724345  88.4951592
  11.7573164  74.9405544  88.3129067  10.7611903  75.2006359  89.4228487
  10.5773453  71.8756459  89.8607932  10.5222256  71.7100730  88.9196376
   9.9519508  72.5832492  90.0170121   7.8919360  74.1805371 109.1861494
   8.7610519  74.3546023 108.8248129   7.4126111  74.9999787 109.0637224
   3.8869578  61.3764568  89.4393250   3.8748248  62.3206408  89.5961521
   4.7793000  61.1934713  89.1452711   2.0605540  81.3002472 100.8650928
   2.9632787  81.3326082 101.1817423   1.8342910  80.3702923 100.8797264
   3.8159142  80.0533458  97.5261007   2.8654773  80.0535320  97.4125379
   4.1191628  79.3066193  97.0097041   7.7021698  57.9707344  93.6939187
   6.9354093  57.4165831  93.8395869   8.1132403  58.0429213  94.5553338
  19.5511836  85.8893997  98.5906769  20.1890245  85.7700744  97.8870109
  19.4332678  86.8374840  98.6494721  16.3601542  85.8421425  98.5268294
  16.0220053  85.7262489  97.6388829  17.2291310  85.4412590  98.5069300
  12.2188358  87.6956901  94.5165185  11.6553223  87.6046838  93.7481472
  12.1040753  86.8756805  94.9967677  16.8421325  86.9956276 104.4854499
  16.8309966  86.6009075 103.6135003  17.0041964  86.2622349 105.0788271
   9.7652789  89.1908093  97.3549405  10.5574081  88.8498917  96.9395704
  10.0049440  89.3003068  98.2751558  17.7987916  91.3627869  89.8279650
  17.1475896  91.9481949  89.4413663  18.5932279  91.8934064  89.8874687
  11.7243543  88.4517006  90.2266784  12.4974419  87.9045993  90.0879660
  12.0768942  89.3161255  90.4381245  13.5628586  89.7793388 103.4333683
  13.2718452  90.6839019 103.3180350  14.1985570  89.8209916 104.1477753
  14.4884793  87.1570237 100.0235043  15.0848365  86.9326259  99.3092006
  14.5459764  86.4154982 100.6260491  14.0609821  84.6109672  87.8585234
  14.3135342  84.0891193  87.0968697  13.1234380  84.4475817  87.9611917
  19.1053104  83.6145450  95.6659977  19.8916193  83.1964874  95.3150394
  19.3691808  84.5191543  95.8341625  19.2763181  89.0518301  90.3648634
  18.6409014  89.1252927  91.0769538  18.9460588  89.6411900  89.6867713
  13.7806110  86.5137778  90.0609609  13.6642368  85.8382681  90.7290693
  13.8908370  86.0270152  89.2441762  16.1237651  85.9747925  93.7656298
  15.7595858  85.4478546  94.4769219  16.9804767  85.5846394  93.5922783
  18.5218471  89.4654804 100.4283477  18.2219194  90.3679842 100.3199284
  18.1769531  89.1986987 101.2804630  11.9730953  85.9168601  96.4620181
  11.0481449  85.7844815  96.6697873  12.2215366  86.6962820  96.9590124
  15.7432359  83.4595482  89.7464313  15.6231984  83.9052533  90.5849794
  15.0484947  83.8080800  89.1877851   9.3339764  85.5601874  97.2963970
   9.4632145  85.8136353  98.2103382   8.6537215  86.1529582  96.9768625
  13.5039251  96.2299124  93.3954445  13.4263281  97.1806949  93.4742925
  12.9000894  95.8844997  94.0529371  15.9956481  83.4026989 106.0515811
  15.2189815  83.9620910 106.0418676  16.6347044  83.8883772 106.5730682
  14.2502853  86.2112443 105.6133778  14.9917537  86.7497487 105.3368602
  13.5439838  86.8378732 105.7705330  19.7258193  88.3541583 104.2105940
  20.1341549  87.9123994 103.4660572  19.0035454  87.7794211 104.4640133
  16.0789263  83.2914190 101.5839497  16.9250458  83.7153604 101.7274146
  16.0187900  82.6347814 102.2778060  20.0487007  88.9142774  97.9658229
  19.4195870  89.0788488  97.2634297  19.6612669  89.3284383  98.7369193
  21.1827171  87.4957171 101.9197936  21.3944066  88.1388931 101.2432317
  21.1356919  86.6619487 101.4519866  15.6014969  88.6517182  95.2308314
  16.0653315  88.9304885  94.4412936  15.3371767  87.7500627  95.0481405
  12.4939050  88.1988664  98.1688077  13.0640407  88.6275932  97.5305562
  13.0847162  87.9171248  98.8672263  14.5383855  84.7740334  92.0397879
  15.2407898  85.2261378  92.5071805  14.2064484  84.1324153  92.6677772
  12.9864217  83.3652091 106.4149088  12.3562877  84.0468372 106.6484485
  12.8800305  83.2535173 105.4702227   8.2809189  83.0323887  97.3415013
   7.4908243  83.2881416  96.8655123   8.7720436  83.8472225  97.4467053
  22.2972999  90.3729126 100.0920293  23.1190442  89.9709313  99.8102975
  22.2935402  90.2697360 101.0436409  10.2323934  83.3968466  94.2998489
   9.4355098  83.5087161  94.8181985  10.0049527  83.7355118  93.4339380
  16.0629602  89.9213169 102.2481004  16.1274035  90.3833577 103.0839176
  15.3540526  89.2910534 102.3763314   6.5646892  83.2854377  99.7730003
   6.8154930  84.1701387 100.0387579   7.1006440  83.1058979  99.0005095
  15.7777620  91.5881277  92.1159984  15.6423295  92.4332813  92.5444832
  16.3187432  91.7900555  91.3525918  12.2644959  77.6672857 108.7774340
  11.8711905  77.1139055 109.4521984  13.0811100  77.9783435 109.1680857
   9.2307017  89.1056715  92.6887909   9.7431538  89.8999965  92.8393474
   9.8829730  88.4083005  92.6221511  11.0401902  92.2222471  94.7710663
  11.2168530  93.1440436  94.5831646  11.8358735  91.9080890  95.2005042
  15.1812920  79.0830736 106.3694596  15.9222634  79.6837889 106.2899059
  15.4130843  78.3408374 105.8112639  10.3254258  84.2687103 104.6472826
  10.2107774  83.3672360 104.9479925   9.4698776  84.5150800 104.2957642
  17.4046096  92.2104843 106.2460326  16.9609950  91.4241222 105.9281231
  18.0663310  92.3983994 105.5804217  12.1633217  93.7400645 100.7721005
  12.7140642  93.6117708  99.9997999  11.3244693  94.0395534 100.4215898
  19.5027334  92.4907643 104.2741728  19.4845810  93.3116524 103.7821997
  20.4247254  92.3661719 104.4991869  15.9600388  90.0051773 105.1165236
  16.4928725  89.2440061 104.8864544  15.4314469  89.7125425 105.8589391
   7.1955934  87.4345369  93.4647480   8.0331156  87.8442378  93.2481188
   7.3734202  86.4944811  93.4347674  19.0920366  85.1020450  89.1531313
  18.5766989  85.8725055  89.3919700  18.8197674  84.4285586  89.7764374
  17.3253101  89.1337765  92.6284048  16.7974463  88.3990525  92.3157286
  16.8240604  89.9112442  92.3824016  22.3045947  87.3286786  97.7451094
  21.6469622  88.0186047  97.8331223  23.1086346  87.7183218  98.0885081
  12.0571829  79.7957432  94.9890660  12.6315581  79.5732613  94.2563853
  12.6442811  79.8646126  95.7419261  21.1151406  85.6831159  95.7955036
  21.6283288  86.3161150  96.2976746  21.7652630  85.0832354  95.4298396
  12.3841416  81.8261893  89.0086545  11.5478728  82.1636579  89.3295820
  12.2446185  81.6910872  88.0713682  17.5932237  83.1580614  98.0413377
  16.6754798  83.3795561  97.8835065  18.0092380  83.2326925  97.1825084
  18.3767284  84.5572030  93.1716057  19.1239103  85.0693427  92.8623179
  18.6458874  84.2356083  94.0320450  16.6493935  87.0530571  90.1543011
  15.7405154  86.7689603  90.2515481  16.6789018  87.4729649  89.2946318
  20.8246122  81.5929146  95.1534846  20.0868878  81.0806532  95.4845089
  21.0772895  81.1529528  94.3418123  20.3246141  92.5013657  94.8583997
  20.6169116  93.0618714  94.1396363  20.8344762  92.7942218  95.6137156
   7.2182105  84.7736085  94.1358213   7.0206505  84.1805445  93.4109280
   6.6628769  84.4688295  94.8534152  15.1978829  84.6659191  96.2552807
  15.2527438  83.7133028  96.1795283  14.3870031  84.8218630  96.7394105
  13.1371189  83.2836251  94.0143185  12.3239054  83.5830421  94.4208378
  13.6330183  82.8891940  94.7317668  15.2879767  93.2794008  95.9477450
  15.2455945  93.5054854  95.0185982  16.2042465  93.0457382  96.0963251
  18.7345400  83.7478075 102.8458079  19.0894788  83.9749548 103.7052545
  19.3817532  84.0796452 102.2235335  24.4643137  86.8696511  93.5507408
  24.3261036  87.0598107  92.6228598  24.1079356  87.6315894  94.0075459
  12.6285263  80.8554606  99.6304420  13.2684643  80.7143365  98.9327384
  11.7962794  80.5689120  99.2543022  24.4912517  88.9373038  98.5618680
  24.9249024  88.8448327  99.4101734  25.2044098  88.9130539  97.9238696
  13.4045567  90.1557037  95.7439413  14.1986166  89.6607357  95.5421988
  12.6937260  89.6274900  95.3807118  18.2240412  92.5375132 100.0951780
  18.2777434  93.1066069 100.8629496  17.3555193  92.7077017  99.7305818
   9.7128331  84.3000119  91.8199165   8.7825919  84.2384574  92.0369128
   9.8085803  83.7776071  91.0235807   9.6313880  80.8254931  94.4077407
   9.8920697  81.7400265  94.2986568  10.4531052  80.3579374  94.5574020
  11.1038805  82.2392689 101.5776232  11.7761859  82.0310051 100.9288881
  10.2768592  82.0414775 101.1381464  17.0064377  78.8654629 103.5941893
  16.3592292  79.5644579 103.5006369  17.7765393  79.2990773 103.9618141
  20.4143175  89.1303482 106.6692446  20.2628682  88.9014033 105.7522530
  20.4047855  90.0874083 106.6823791  17.1828512  86.7035394 101.6538712
  18.1120572  86.8546554 101.4807680  16.7619542  86.7919415 100.7987359
  15.9816843  90.7286059  99.4237250  15.8427929  90.3604843 100.2963188
  15.1931440  91.2433698  99.2521208  16.5764995  95.8295155  90.7662786
  16.7516751  95.3583198  91.5808409  15.8897783  96.4560921  90.9944047
  17.5322058  90.1067661  96.8126088  17.1971891  90.0668431  97.7083738
  17.0326004  89.4412377  96.3396498  11.5066302  85.5135291 102.3378669
  11.3686100  84.7815530 102.9390208  12.4171226  85.4244192 102.0562857
  14.1348603  85.2255251 101.8262349  14.8448222  84.5848443 101.7848967
  14.0917911  85.4768146 102.7488529  22.1235382  92.1622604 104.7468928
  22.0647928  91.4781824 104.0799511  22.5254900  92.9041594 104.2949554
  12.8477537  82.2120469 103.6457988  12.3114894  81.7611207 104.2979584
  12.2594245  82.3466378 102.9028452  11.1426081  98.9784518  97.5402647
  11.3822679  99.6103042  98.2181665  10.2995277  98.6272558  97.8268006
  12.2579796  81.6709120  86.2084452  11.3809262  81.5497921  85.8446698
  12.7337549  80.8795198  85.9563340  22.1252789  90.1262188 102.9782907
  21.2379568  89.7888110 103.1009306  22.6951340  89.3945219 103.2151673
   3.7781936  86.4586280  96.3025959   4.4652976  86.1448010  95.7146974
   3.6230065  87.3627644  96.0293210   8.5816658  81.3476476 100.7310982
   8.4974847  80.7402146  99.9961392   7.7599365  81.8385495 100.7320479
  15.6553942  94.7863640  99.9444151  15.5824114  95.5918612 100.4563455
  15.2131336  94.9855606  99.1192172  15.4443722  94.0235410  93.4546972
  14.6611244  94.5657091  93.5485197  16.1436467  94.5409390  93.8541213
  18.1152626  94.6850474 102.1002309  18.8280598  95.3197939 102.0278211
  17.6242655  94.7814340 101.2842311  19.8370153  88.5901727  93.6719601
  18.9026432  88.7103190  93.5024305  20.0146821  87.6874194  93.4079611
  15.3375341  81.9747423  95.8252862  14.9673128  81.4218463  96.5133768
  15.8334433  81.3705556  95.2727862  23.2242704  84.4319046  94.2069635
  23.6903156  85.2647038  94.1329938  23.6750205  83.9664028  94.9114894
  13.1664539  92.4344918 102.9207880  13.8673999  93.0681401 103.0737274
  12.6959654  92.7759649 102.1603519  17.9272999  95.0249219  94.8488601
  18.1095394  94.2070875  95.3116353  18.7505985  95.2416911  94.4113491
  18.2615165  93.9517404  92.1103649  18.7902931  93.4409858  91.4973811
  18.5243384  93.6359934  92.9749182  17.0153398  85.7309336 107.2326468
  16.3394035  85.6303466 107.9028843  17.8381032  85.5748550 107.6962465
   8.7632258  91.9681273  99.8538983   9.3485694  91.2224961  99.9866887
   8.5657096  92.2785230 100.7375647  11.6170913  95.0032520  94.8701425
  10.9481288  95.4878648  94.3865465  11.4783782  95.2501741  95.7844804
   3.3549912  84.5386873  98.5743426   3.3934012  84.0050464  99.3680544
   2.8490205  84.0122079  97.9554403  15.7576181  97.0376264 101.4684083
  16.3094489  97.2007885 102.2333169  16.0982375  97.6280702 100.7964108
  10.7340675  79.3851414 102.0705968  10.7982001  80.2466245 101.6583366
  10.6707795  78.7725415 101.3378327  10.2092947  81.4574546 105.7179002
  10.8364986  81.0751624 106.3316527   9.3520866  81.2388748 106.0834695
  20.6087056  91.8637521 107.3232738  21.1526960  92.4767480 106.8287693
  20.0273901  92.4217100 107.8399751   6.9858490  83.2650975  91.6497357
   7.2811931  82.3561654  91.5964411   6.0846526  83.2438715  91.3278360
  18.8944569  94.9858239  98.4547766  18.7695708  94.1847979  97.9458711
  19.5523660  95.4804433  97.9661736  10.5152737  81.3406972  97.6324906
   9.7939323  81.9542940  97.4932379  11.3045993  81.8764737  97.5541552
  20.9579477  92.7867260 100.0827316  20.0109813  92.6672611 100.0105642
  21.3062250  91.8989758 100.1653577  13.3179050  78.6761398 103.9065558
  13.8413452  78.9223695 104.6691867  13.0991384  79.5081433 103.4868695
   8.7146331  80.9465073  91.7736682   8.3859038  80.0662452  91.5911788
   9.0685702  80.8912742  92.6613072  17.9625910  92.5819976  96.2831668
  17.8150873  91.6536683  96.4639238  18.7879404  92.6040066  95.7988743
  11.8288155  81.2338043  92.1412160  12.1684227  81.7623964  91.4190768
  12.2760275  81.5718449  92.9170727  21.5660032  93.4048534  97.3696541
  22.4906580  93.1991396  97.2320992  21.3975336  93.1564936  98.2785882
  14.5231595  79.6175094 101.5915228  14.1828416  78.8182907 101.9935908
  13.8170602  79.9176804 101.0192061  13.8156302  79.7312664  90.3405453
  14.5364664  80.1093917  89.8369170  13.1921606  80.4501541  90.4440431
  12.6986646  83.3943527  97.8534530  12.5531227  83.7083830  98.7458811
  12.2211850  84.0128427  97.3005428  16.4109160  80.8183415  99.9468547
  16.1526937  81.7400485  99.9452877  15.8794200  80.4213849 100.6369011
   7.1732308  85.9348871 100.7922191   6.6285776  86.7108679 100.9242465
   8.0511658  86.2819675 100.6341312  27.2094740  86.6870625  94.3448932
  27.6525886  85.9377950  93.9468055  26.3321250  86.6780761  93.9622664
   7.9598330  85.0618767 103.6852348   7.2180066  85.2101403 104.2716978
   7.6391074  85.3227033 102.8219097  15.9041993  94.6034745 103.4832738
  16.2129119  94.3583892 104.3555437  16.7017475  94.8081384 102.9951608
  15.9262605  96.7572655  95.7138114  15.4867595  96.2649034  96.4070971
  16.6770722  96.2145623  95.4730190   8.4054944  92.9484196  95.7162742
   9.2312964  92.6487968  95.3361386   8.0548996  92.1791818  96.1652531
  13.3736477  92.3010664  97.7860416  12.7516486  91.6381369  97.4862644
  14.0441344  92.3271796  97.1034064   6.6063549  90.8670522  96.6751676
   5.7695457  90.4392697  96.4935677   6.5787194  91.0602966  97.6122467
  13.4461004  80.7792452 107.3792922  13.4949160  81.6554575 106.9970692
  13.9883519  80.2369845 106.8064565  12.9349984  90.8514588  91.2618877
  13.0838104  91.5350052  90.6085549  13.7416427  90.8319678  91.7768332
  15.6760293  81.5323825 104.1339281  14.8063602  81.8257391 103.8621869
  15.9119773  82.1164270 104.8546544  26.7527604  88.1575863  96.7371379
  27.5874496  88.5965667  96.9008940  26.8886733  87.6814516  95.9179625
  10.6902617  86.8779765  92.2679946  10.4448659  85.9742095  92.4660156
  10.8598531  86.8796916  91.3259424   9.9598264  82.6108123  89.7666107
   9.2667509  82.6852478  89.1106143   9.7150016  81.8468466  90.2887624
  16.7030880  88.7341277 107.5347334  17.6233890  88.9119876 107.7287380
  16.6680463  87.7897322 107.3827033   5.9213045  83.9279871  96.4600608
   5.6015830  83.0745179  96.1674982   5.3746474  84.1428449  97.2158575
   9.6992953  86.6442312 100.1770115   9.9178963  87.5759419 100.1958148
  10.1118727  86.2850286 100.9624919  14.5720818  82.2175517 109.5672864
  14.4717545  83.1669874 109.4984955  14.3542360  81.8893756 108.6948934
  13.7733890  79.4660442  86.1513541  14.6353054  79.7915341  86.4109358
  13.9584234  78.6791938  85.6386607   5.7901305  87.5482782  98.4293730
   5.0964777  87.1336735  97.9163684   6.5374296  87.5903319  97.8327149
  14.4352088  85.6472656 108.3837925  13.9519170  86.4473016 108.5901814
  14.5213027  85.6580601 107.4305369   7.7038048  87.4801036  96.3059745
   7.6808736  87.5788723  95.3541628   8.0138684  88.3266187  96.6276911
  10.3625426  89.5377191 100.4206359  11.3168679  89.5061133 100.3536291
  10.1637949  89.0767815 101.2356585  10.9524808  88.1078307 102.9877157
  11.7717697  88.6022386 103.0111994  11.2261616  87.1910275 102.9594724
   8.7175655  95.0796810  97.4376557   8.5830122  94.3197211  96.8714555
   8.3007717  95.8037710  96.9705346  20.6832428  86.0143595  92.5655402
  20.6267629  86.4712147  91.7263035  21.2360770  85.2534280  92.3878245
  11.8744780  95.9766127  97.6495000  11.7577165  96.9211560  97.5473690
  11.0537227  95.6739689  98.0380799   6.2059722  82.4416441 103.6869354
   6.8518586  81.9315395 104.1756579   5.9976873  83.1785122 104.2612779
  18.7313114  89.5097288 109.1861494  19.6004274  89.6837941 108.8248129
  18.2519866  90.3291705 109.0637224  14.7263333  76.7056485  89.4393250
  14.7142002  77.6498325  89.5961521  15.6186754  76.5226631  89.1452711
  12.8999295  96.6294389 100.8650928  13.8026541  96.6618000 101.1817423
  12.6736665  95.6994840 100.8797264  14.6552897  95.3825376  97.5261007
  13.7048528  95.3827237  97.4125379  14.9585383  94.6358110  97.0097041
  18.5415452  73.2999262  93.6939187  17.7747848  72.7457749  93.8395869
  18.9526157  73.3721131  94.5553338  10.5457213  79.5884058 107.7844368
  11.4088675  79.2320863 107.9947693   9.9722624  79.2497953 108.4719772
  27.1995296 101.1713342  98.5268294  26.8613808 101.0554407  97.6388829
  28.0685064 100.7704507  98.5069300  23.0582112 103.0248819  94.5165185
  22.4946977 102.9338756  93.7481472  22.9434507 102.2048723  94.9967677
  20.6046544 104.5200010  97.3549405  21.3967836 104.1790835  96.9395704
  20.8443194 104.6294985  98.2751558  22.5637298 103.7808924  90.2266784
  23.3368174 103.2337911  90.0879660  22.9162697 104.6453173  90.4381245
  24.4022340 105.1085306 103.4333683  24.1112206 106.0130937 103.3180350
  25.0379325 105.1501833 104.1477753  25.3278547 102.4862154 100.0235043
  25.9242120 102.2618177  99.3092006  25.3853519 101.7446900 100.6260491
  29.3612226 104.7946721 100.4283477  29.0612949 105.6971760 100.3199284
  29.0163285 104.5278905 101.2804630  22.8124707 101.2460518  96.4620181
  21.8875203 101.1136732  96.6697873  23.0609120 102.0254737  96.9590124
  20.1733518 100.8893792  97.2963970  20.3025899 101.1428271  98.2103382
  19.4930969 101.4821500  96.9768625  24.3433005 111.5591042  93.3954445
  24.2657035 112.5098867  93.4742925  23.7394649 111.2136914  94.0529371
  26.8350235  98.7318907 106.0515811  26.0583569  99.2912827 106.0418676
  27.4740798  99.2175690 106.5730682  25.0896607 101.5404360 105.6133778
  25.8311292 102.0789404 105.3368602  24.3833593 102.1670649 105.7705330
  30.8880762 104.2434692  97.9658229  30.2589624 104.4080406  97.2634297
  30.5006424 104.6576301  98.7369193  26.4408724 103.9809100  95.2308314
  26.9047069 104.2596803  94.4412936  26.1765522 103.0792544  95.0481405
  23.3332805 103.5280581  98.1688077  23.9034162 103.9567850  97.5305562
  23.9240916 103.2463166  98.8672263  23.8257971  98.6944009 106.4149088
  23.1956632  99.3760290 106.6484485  23.7194059  98.5827090 105.4702227
  19.1202944  98.3615805  97.3415013  18.3301998  98.6173333  96.8655123
  19.6114191  99.1764143  97.4467053  33.1366753 105.7021044 100.0920293
  33.9584197 105.3001231  99.8102975  33.1329156 105.5989278 101.0436409
  21.0717689  98.7260384  94.2998489  20.2748852  98.8379078  94.8181985
  20.8443281  99.0647036  93.4339380  26.9023357 105.2505087 102.2481004
  26.9667789 105.7125494 103.0839176  26.1934280 104.6202452 102.3763314
  17.4040647  98.6146295  99.7730003  17.6548685  99.4993305 100.0387579
  17.9400195  98.4350897  99.0005095  26.6171374 106.9173195  92.1159984
  26.4817049 107.7624730  92.5444832  27.1581187 107.1192472  91.3525918
  23.1038714  92.9964774 108.7774340  22.7105659  92.4430973 109.4521984
  23.9204854  93.3075353 109.1680857  20.0700772 104.4348633  92.6887909
  20.5825292 105.2291883  92.8393474  20.7223484 103.7374923  92.6221511
  21.8795656 107.5514389  94.7710663  22.0562285 108.4732354  94.5831646
  22.6752490 107.2372808  95.2005042  26.0206675  94.4122654 106.3694596
  26.7616388  95.0129807 106.2899059  26.2524598  93.6700291 105.8112639
  21.1648013  99.5979021 104.6472826  21.0501528  98.6964278 104.9479925
  20.3092531  99.8442718 104.2957642  28.2439851 107.5396761 106.2460326
  27.8003705 106.7533140 105.9281231  28.9057064 107.7275912 105.5804217
  23.0026972 109.0692563 100.7721005  23.5534397 108.9409626  99.9997999
  22.1638448 109.3687452 100.4215898  30.3421089 107.8199561 104.2741728
  30.3239564 108.6408442 103.7821997  31.2641009 107.6953636 104.4991869
  26.7994143 105.3343691 105.1165236  27.3322480 104.5731979 104.8864544
  26.2708224 105.0417342 105.8589391  18.0349688 102.7637287  93.4647480
  18.8724910 103.1734295  93.2481188  18.2127956 101.8236729  93.4347674
  29.0460378  92.8108412  98.6108111  28.5425174  92.7738547  97.7975916
  29.3390985  93.7201154  98.6704768  29.2167535 110.9907400  88.5515707
  28.5429233 111.2939097  89.1600665  29.6033357 111.7936481  88.2021164
  31.7651503  89.6997316  95.7476615  32.0710380  88.8394679  95.4602531
  32.4904108  90.2914936  95.5475609  18.0575860 100.1028002  94.1358213
  17.8600259  99.5097363  93.4109280  17.5022524  99.7980212  94.8534152
  26.0372583  99.9951109  96.2552807  26.0921193  99.0424945  96.1795283
  25.2263785 100.1510548  96.7394105  27.1863777 103.9231232  87.4931090
  26.7483207 103.2067091  87.0336727  27.9274218 104.1507347  86.9316181
  26.1273521 108.6085925  95.9477450  26.0849700 108.8346772  95.0185982
  27.0436220 108.3749300  96.0963251  23.4679018  96.1846524  99.6304420
  24.1078397  96.0435283  98.9327384  22.6356548  95.8981037  99.2543022
  24.2439322 105.4848954  95.7439413  25.0379920 104.9899275  95.5421988
  23.5331014 104.9566818  95.3807118  29.0634166 107.8667050 100.0951780
  29.1171189 108.4357986 100.8629496  28.1948948 108.0368935  99.7305818
  20.4707634  96.1546849  94.4077407  20.7314452  97.0692182  94.2986568
  21.2924807  95.6871292  94.5574020  21.9432560  97.5684606 101.5776232
  22.6155613  97.3601968 100.9288881  21.1162346  97.3706692 101.1381464
  27.8458132  94.1946547 103.5941893  27.1986047  94.8936497 103.5006369
  28.6159147  94.6282691 103.9618141  31.2536930 104.4595399 106.6692446
  31.1022436 104.2305951 105.7522530  31.2441609 105.4166001 106.6823791
  26.8210598 106.0577976  99.4237250  26.6821683 105.6896761 100.2963188
  26.0325194 106.5725616  99.2521208  27.4158750 111.1587073  90.7662786
  27.5910505 110.6875116  91.5808409  26.7291538 111.7852839  90.9944047
  28.3715813 105.4359579  96.8126088  28.0365646 105.3960349  97.7083738
  27.8719759 104.7704295  96.3396498  22.3460057 100.8427209 102.3378669
  22.2079855 100.1107448 102.9390208  23.2564980 100.7536109 102.0562857
  24.9742358 100.5547169 101.8262349  25.6841976  99.9140361 101.7848967
  24.9311666 100.8060063 102.7488529  32.9629136 107.4914522 104.7468928
  32.9041682 106.8073742 104.0799511  33.3648655 108.2333512 104.2949554
  23.6871292  97.5412386 103.6457988  23.1508649  97.0903125 104.2979584
  23.0988000  97.6758295 102.9028452  21.9819835 114.3076436  97.5402647
  22.2216433 114.9394960  98.2181665  21.1389032 113.9564476  97.8268006
  14.6175691 101.7878198  96.3025959  15.3046730 101.4739928  95.7146974
  14.4623819 102.6919562  96.0293210  19.4210413  96.6768394 100.7310982
  19.3368602  96.0694064  99.9961392  18.5993119  97.1677412 100.7320479
  26.4947697 110.1155558  99.9444151  26.4217868 110.9210530 100.4563455
  26.0525090 110.3147524  99.1192172  26.2837477 109.3527328  93.4546972
  25.5004998 109.8949008  93.5485197  26.9830222 109.8701308  93.8541213
  28.9546380 110.0142392 102.1002309  29.6674353 110.6489857 102.0278211
  28.4636409 110.1106258 101.2842311  24.0058294 107.7636836 102.9207880
  24.7067753 108.3973319 103.0737274  23.5353409 108.1051567 102.1603519
  27.8547153 101.0601254 107.2326468  27.1787790 100.9595383 107.9028843
  28.6774787 100.9040468 107.6962465  19.6026012 107.2973191  99.8538983
  20.1879449 106.5516879  99.9866887  19.4050850 107.6077147 100.7375647
  22.4564667 110.3324438  94.8701425  21.7875043 110.8170566  94.3865465
  22.3177537 110.5793659  95.7844804  14.1943667  99.8678791  98.5743426
  14.2327766  99.3342382  99.3680544  13.6883960  99.3413996  97.9554403
  26.5969936 112.3668182 101.4684083  27.1488244 112.5299803 102.2333169
  26.9376129 112.9572619 100.7964108  21.5734429  94.7143331 102.0705968
  21.6375756  95.5758162 101.6583366  21.5101549  94.1017333 101.3378327
  21.0486702  96.7866464 105.7179002  21.6758740  96.4043541 106.3316527
  20.1914620  96.5680666 106.0834695  31.4480810 107.1929439 107.3232738
  31.9920714 107.8059397 106.8287693  30.8667655 107.7509018 107.8399751
  17.8252244  98.5942893  91.6497357  18.1205685  97.6853571  91.5964411
  16.9240280  98.5730632  91.3278360  29.7338323 110.3150157  98.4547766
  29.6089463 109.5139897  97.9458711  30.3917414 110.8096350  97.9661736
  21.3546491  96.6698890  97.6324906  20.6333077  97.2834857  97.4932379
  22.1439747  97.2056654  97.5541552  31.7973231 108.1159177 100.0827316
  30.8503567 107.9964528 100.0105642  32.1456005 107.2281675 100.1653577
  24.1572805  94.0053316 103.9065558  24.6807207  94.2515613 104.6691867
  23.9385138  94.8373351 103.4868695  28.8019665 107.9111893  96.2831668
  28.6544627 106.9828601  96.4639238  29.6273158 107.9331984  95.7988743
  32.4053787 108.7340452  97.3696541  33.3300334 108.5283313  97.2320992
  32.2369090 108.4856853  98.2785882  25.3625350  94.9467011 101.5915228
  25.0222170  94.1474824 101.9935908  24.6564356  95.2468722 101.0192061
  23.5380400  98.7235444  97.8534530  23.3924981  99.0375747  98.7458811
  23.0605604  99.3420345  97.3005428  25.3976783  95.7137992  97.9015419
  25.3838352  94.8179086  97.5647717  26.1149211  95.7208656  98.5353705
  27.2502914  96.1475332  99.9468547  26.9920692  97.0692403  99.9452877
  26.7187954  95.7505767 100.6369011  18.0126063 101.2640789 100.7922191
  17.4679531 102.0400597 100.9242465  18.8905413 101.6111593 100.6341312
  18.7992085 100.3910685 103.6852348  18.0573821 100.5393320 104.2716978
  18.4784829 100.6518951 102.8219097  26.7435747 109.9326663 103.4832738
  27.0522874 109.6875810 104.3555437  27.5411229 110.1373302 102.9951608
  26.7656359 112.0864573  95.7138114  26.3261349 111.5940951  96.4070971
  27.5164476 111.5437540  95.4730190  19.2448698 108.2776114  95.7162742
  20.0706718 107.9779886  95.3361386  18.8942750 107.5083736  96.1652531
  24.2130231 107.6302582  97.7860416  23.5910241 106.9673287  97.4862644
  24.8835098 107.6563714  97.1034064  17.4457303 106.1962440  96.6751676
  16.6089212 105.7684614  96.4935677  17.4180949 106.3894883  97.6122467
  34.7709605 106.6525493 106.6594059  33.9805148 106.6349632 106.1198559
  34.5342959 107.1913787 107.4143096  23.7743738 106.1806505  91.2618877
  23.9231859 106.8641970  90.6085549  24.5810182 106.1611595  91.7768332
  21.5296371 102.2071683  92.2679946  21.2842413 101.3034013  92.4660156
  21.6992286 102.2088833  91.3259424  29.4705675  89.4995642  97.1705598
  29.7507429  88.8318831  97.7966024  30.2556282  89.6924737  96.6580262
  27.2739144 108.6754636  88.7330624  26.7013111 109.2944823  88.2801096
  27.8471937 109.2253997  89.2670546  33.1224420 108.2757656  86.8243154
  33.0438052 107.9417520  87.7178912  33.9434087 108.7679424  86.8234626
  27.5424635 104.0633195 107.5347334  28.4627644 104.2411794 107.7287380
  27.5074218 103.1189240 107.3827033  16.7606800  99.2571788  96.4600608
  16.4409584  98.4037096  96.1674982  16.2140228  99.4720366  97.2158575
  20.5386707 101.9734229 100.1770115  20.7572717 102.9051337 100.1958148
  20.9512481 101.6142204 100.9624919  29.3881473  91.5580361  93.7870100
  29.9412512  91.9775815  94.4460123  29.6251560  90.6316109  93.8293056
  25.4114573  97.5467435 109.5672864  25.3111300  98.4961792 109.4984955
  25.1936115  97.2185674 108.6948934  16.6295060 102.8774700  98.4293730
  15.9358531 102.4628653  97.9163684  17.3768051 102.9195236  97.8327149
  25.2745843 100.9764574 108.3837925  24.7912924 101.7764934 108.5901814
  25.3606782 100.9872519 107.4305369  18.5431802 102.8092954  96.3059745
  18.5202490 102.9080641  95.3541628  18.8532439 103.6558104  96.6276911
  21.2019180 104.8669109 100.4206359  22.1562434 104.8353051 100.3536291
  21.0031704 104.4059732 101.2356585  21.7918562 103.4370225 102.9877157
  22.6111451 103.9314303 103.0111994  22.0655370 102.5202193 102.9594724
  19.5569409 110.4088728  97.4376557  19.4223877 109.6489129  96.8714555
  19.1401471 111.1329628  96.9705346  22.7138535 111.3058045  97.6495000
  22.5970919 112.2503478  97.5473690  21.8930981 111.0031607  98.0380799
  17.0453477  97.7708358 103.6869354  17.6912340  97.2607312 104.1756579
  16.8370628  98.5077040 104.2612779  29.5706869 104.8389206 109.1861494
  30.4398028 105.0129858 108.8248129  29.0913620 105.6583623 109.0637224
  23.7393049 111.9586307 100.8650928  24.6420296 111.9909917 101.1817423
  23.5130419 111.0286758 100.8797264  25.4946651 110.7117293  97.5261007
  24.5442282 110.7119155  97.4125379  25.7979137 109.9650028  97.0097041
  21.3850968  94.9175976 107.7844368  22.2482429  94.5612780 107.9947693
  20.8116378  94.5789870 108.4719772  38.5208834 117.6540112 104.4854499
  38.5097475 117.2592910 103.6135003  38.6829473 116.9206184 105.0788271
  31.4440298 119.8491928  97.3549405  32.2361590 119.5082753  96.9395704
  31.6836949 119.9586903  98.2751558  39.4775425 122.0211704  89.8279650
  38.8263405 122.6065784  89.4413663  40.2719788 122.5517899  89.8874687
  35.2416095 120.4377223 103.4333683  34.9505961 121.3422854 103.3180350
  35.8773079 120.4793751 104.1477753  35.7397330 115.2693507  87.8585234
  35.9922851 114.7475029  87.0968697  34.8021889 115.1059653  87.9611917
  40.9550690 119.7102136  90.3648634  40.3196523 119.7836763  91.0769538
  40.6248097 120.2995735  89.6867713  46.1849040 114.2104519  96.5692956
  46.9174212 113.6403736  96.8030785  45.4288396 113.8226119  97.0099461
  40.2005980 120.1238639 100.4283477  39.9006703 121.0263678 100.3199284
  39.8557040 119.8570822 101.2804630  31.0127273 116.2185709  97.2963970
  31.1419654 116.4720188  98.2103382  30.3324724 116.8113417  96.9768625
  35.1826760 126.8882959  93.3954445  35.1050790 127.8390784  93.4742925
  34.5788403 126.5428832  94.0529371  37.6743990 114.0610825 106.0515811
  36.8977324 114.6204745 106.0418676  38.3134553 114.5467608 106.5730682
  45.4664770 110.8437618  99.8858788  44.8239150 111.1370151  99.2398583
  44.9619699 110.7290538 100.6911985  35.9290362 116.8696278 105.6133778
  36.6705046 117.4081322 105.3368602  35.2227347 117.4962567 105.7705330
  41.4045702 119.0125419 104.2105940  41.8129058 118.5707829 103.4660572
  40.6822963 118.4378046 104.4640133  41.7274516 119.5726609  97.9658229
  41.0983379 119.7372323  97.2634297  41.3400178 119.9868219  98.7369193
  45.6063748 120.5081047  95.3202593  44.9214786 120.8879948  94.7699626
  45.6907597 121.1176374  96.0534540  40.9076217 111.6102394 103.2420671
  40.6637149 112.3644454 102.7054946  41.1836147 111.9887741 104.0767918
  42.8614680 118.1541006 101.9197936  43.0731575 118.7972766 101.2432317
  42.8144428 117.3203323 101.4519866  34.6651726 114.0235926 106.4149088
  34.0350386 114.7052207 106.6484485  34.5587814 113.9119008 105.4702227
  29.9596698 113.6907722  97.3415013  29.1695752 113.9465251  96.8655123
  30.4507945 114.5056060  97.4467053  43.9760508 121.0312962 100.0920293
  44.7977951 120.6293149  99.8102975  43.9722910 120.9281196 101.0436409
  37.7417111 120.5797005 102.2481004  37.8061544 121.0417412 103.0839176
  37.0328035 119.9494370 102.3763314  28.2434401 113.9438213  99.7730003
  28.4942439 114.8285223 100.0387579  28.7793949 113.7642814  99.0005095
  52.0666501 117.3751710  96.4405265  51.3130209 116.8059108  96.2849269
  52.2014042 117.3414375  97.3875900  37.4565129 122.2465112  92.1159984
  37.3210804 123.0916648  92.5444832  37.9974941 122.4484390  91.3525918
  33.9432468 108.3256692 108.7774340  33.5499414 107.7722891 109.4521984
  34.7598609 108.6367271 109.1680857  30.9094526 119.7640550  92.6887909
  31.4219047 120.5583801  92.8393474  31.5617239 119.0666841  92.6221511
  32.7189411 122.8806307  94.7710663  32.8956039 123.8024271  94.5831646
  33.5146244 122.5664726  95.2005042  36.8600429 109.7414571 106.3694596
  37.6010143 110.3421724 106.2899059  37.0918352 108.9992209 105.8112639
  32.0041767 114.9270939 104.6472826  31.8895282 114.0256196 104.9479925
  31.1486285 115.1734635 104.2957642  39.0833605 122.8688679 106.2460326
  38.6397459 122.0825057 105.9281231  39.7450819 123.0567829 105.5804217
  33.8420726 124.3984480 100.7721005  34.3928151 124.2701544  99.9997999
  33.0032202 124.6979369 100.4215898  41.1814843 123.1491479 104.2741728
  41.1633319 123.9700360 103.7821997  42.1034763 123.0245554 104.4991869
  37.6387897 120.6635608 105.1165236  38.1716234 119.9023896 104.8864544
  37.1101978 120.3709260 105.8589391  45.7442149 118.5136640  91.0884486
  44.9671592 118.1747799  90.6439648  46.4233630 118.5189263  90.4139451
  43.9833456 117.9870621  97.7451094  43.3257130 118.6769883  97.8331223
  44.7873855 118.3767053  98.0885081  37.1493210 117.6101811  85.6319021
  36.2420272 117.3791064  85.8310170  37.6464242 116.8139430  85.8193003
  40.0561289 126.3199318  88.5515707  39.3822988 126.6231015  89.1600665
  40.4427111 127.1228399  88.2021164  38.3281444 117.7114406  90.1543011
  37.4192663 117.4273439  90.2515481  38.3576527 118.1313484  89.2946318
  43.5600711 121.3220995  93.9234179  43.1063038 120.4811905  93.9799369
  42.9294678 121.9582394  94.2608959  42.0033650 123.1597492  94.8583997
  42.2956625 123.7202549  94.1396363  42.5132271 123.4526053  95.6137156
  38.0257531 119.2523150  87.4931090  37.5876961 118.5359008  87.0336727
  38.7667972 119.4799264  86.9316181  36.9667275 123.9377843  95.9477450
  36.9243454 124.1638689  95.0185982  37.8829974 123.7041218  96.0963251
  46.1430646 117.5280347  93.5507408  46.0048545 117.7181943  92.6228598
  45.7866865 118.2899729  94.0075459  34.3072772 111.5138442  99.6304420
  34.9472152 111.3727201  98.9327384  33.4750303 111.2272955  99.2543022
  46.1700026 119.5956874  98.5618680  46.6036533 119.5032163  99.4101734
  46.8831607 119.5714374  97.9238696  39.9027921 123.1958968 100.0951780
  39.9564943 123.7649904 100.8629496  39.0342702 123.3660853  99.7305818
  32.7826314 112.8976524 101.5776232  33.4549368 112.6893886 100.9288881
  31.9556101 112.6998610 101.1381464  47.0315575 119.6380574 101.0951565
  47.2251465 120.5426385 101.3410840  46.9316194 119.1787993 101.9290150
  38.6851886 109.5238465 103.5941893  38.0379801 110.2228414 103.5006369
  39.4552902 109.9574609 103.9618141  42.0930684 119.7887317 106.6692446
  41.9416190 119.5597869 105.7522530  42.0835364 120.7457918 106.6823791
  37.6604352 121.3869894  99.4237250  37.5215438 121.0188679 100.2963188
  36.8718948 121.9017534  99.2521208  38.2552504 126.4878991  90.7662786
  38.4304260 126.0167034  91.5808409  37.5685292 127.1144757  90.9944047
  33.1853811 116.1719127 102.3378669  33.0473609 115.4399366 102.9390208
  34.0958735 116.0828027 102.0562857  42.1468759 118.1107531  87.0863147
  41.5297930 117.3854359  86.9896200  41.6785248 118.8716891  86.7430222
  43.8022891 122.8206440 104.7468928  43.7435437 122.1365660 104.0799511
  44.2042409 123.5625430 104.2949554  34.5265046 112.8704304 103.6457988
  33.9902403 112.4195043 104.2979584  33.9381754 113.0050213 102.9028452
  32.8213590 129.6368353  97.5402647  33.0610188 130.2686878  98.2181665
  31.9782786 129.2856393  97.8268006  43.8040298 120.7846023 102.9782907
  42.9167077 120.4471945 103.1009306  44.3738849 120.0529055 103.2151673
  25.4569445 117.1170115  96.3025959  26.1440485 116.8031845  95.7146974
  25.3017574 118.0211480  96.0293210  30.2604167 112.0060312 100.7310982
  30.1762356 111.3985981  99.9961392  29.4386874 112.4969330 100.7320479
  37.3341451 125.4447476  99.9444151  37.2611623 126.2502447 100.4563455
  36.8918844 125.6439442  99.1192172  37.1231231 124.6819246  93.4546972
  36.3398753 125.2240926  93.5485197  37.8223976 125.1993225  93.8541213
  48.2857639 116.1954241  97.7399469  48.2747515 117.0778956  97.3693402
  47.4175018 115.8425792  97.5454006  39.7940135 125.3434310 102.1002309
  40.5068107 125.9781775 102.0278211  39.3030164 125.4398176 101.2842311
  41.5157662 119.2485563  93.6719601  40.5813941 119.3687025  93.5024305
  41.6934330 118.3458029  93.4079611  34.8452048 123.0928753 102.9207880
  35.5461508 123.7265236 103.0737274  34.3747163 123.4343485 102.1603519
  42.9706444 121.4346703  91.2055787  43.2466288 121.3203298  92.1149661
  42.1010943 121.0364188  91.1667960  39.6060508 125.6833054  94.8488601
  39.7882903 124.8654710  95.3116353  40.4293494 125.9000746  94.4113491
  39.9402674 124.6101239  92.1103649  40.4690440 124.0993694  91.4973811
  40.2030893 124.2943769  92.9749182  38.6940907 116.3893172 107.2326468
  38.0181544 116.2887301 107.9028843  39.5168541 116.2332386 107.6962465
  30.4419767 122.6265108  99.8538983  31.0273203 121.8808796  99.9866887
  30.2444605 122.9369065 100.7375647  33.2958422 125.6616356  94.8701425
  32.6268797 126.1462483  94.3865465  33.1571291 125.9085576  95.7844804
  25.0337421 115.1970709  98.5743426  25.0721521 114.6634299  99.3680544
  24.5277714 114.6705914  97.9554403  37.4363690 127.6960099 101.4684083
  37.9881998 127.8591721 102.2333169  37.7769884 128.2864537 100.7964108
  32.4128184 110.0435249 102.0705968  32.4769510 110.9050080 101.6583366
  32.3495304 109.4309251 101.3378327  31.8880456 112.1158382 105.7179002
  32.5152495 111.7335459 106.3316527  31.0308375 111.8972584 106.0834695
  42.2874565 122.5221357 107.3232738  42.8314469 123.1351315 106.8287693
  41.7061409 123.0800935 107.8399751  40.5732078 125.6442075  98.4547766
  40.4483217 124.8431815  97.9458711  41.2311169 126.1388268  97.9661736
  32.1940246 111.9990807  97.6324906  31.4726832 112.6126775  97.4932379
  32.9833502 112.5348572  97.5541552  42.6366986 123.4451095 100.0827316
  41.6897322 123.3256446 100.0105642  42.9849759 122.5573593 100.1653577
  34.9966559 109.3345234 103.9065558  35.5200961 109.5807530 104.6691867
  34.7778893 110.1665269 103.4868695  39.6413419 123.2403811  96.2831668
  39.4938382 122.3120519  96.4639238  40.4666913 123.2623902  95.7988743
  43.2447541 124.0632370  97.3696541  44.1694089 123.8575231  97.2320992
  43.0762844 123.8148771  98.2785882  36.2019104 110.2758929 101.5915228
  35.8615925 109.4766742 101.9935908  35.4958111 110.5760640 101.0192061
  43.0342857 124.5818037  92.7258632  43.2079735 124.0164460  91.9732485
  43.5271749 125.3818932  92.5438122  28.8519817 116.5932706 100.7922191
  28.3073285 117.3692514 100.9242465  29.7299167 116.9403511 100.6341312
  48.8882248 117.3454460  94.3448932  49.3313395 116.5961785  93.9468055
  48.0108759 117.3364597  93.9622664  44.0218030 123.8984802  89.8255530
  44.7168934 124.5191494  90.0442845  44.3641180 123.0480153  90.1007908
  29.6385839 115.7202603 103.6852348  28.8967575 115.8685238 104.2716978
  29.3178583 115.9810868 102.8219097  45.9209453 121.3484507  91.3542861
  46.4460777 121.6871780  90.6292181  45.8331805 120.4131523  91.1705996
  37.5829502 125.2618581 103.4832738  37.8916628 125.0167728 104.3555437
  38.3804984 125.4665219 102.9951608  37.6050114 127.4156490  95.7138114
  37.1655104 126.9232869  96.4070971  38.3558231 126.8729458  95.4730190
  30.0842453 123.6068031  95.7162742  30.9100473 123.3071803  95.3361386
  29.7336505 122.8375654  96.1652531  35.0523986 122.9594500  97.7860416
  34.4303995 122.2965205  97.4862644  35.7228853 122.9855631  97.1034064
  28.2851058 121.5254358  96.6751676  27.4482966 121.0976532  96.4935677
  28.2574703 121.7186801  97.6122467  35.1248513 111.4376288 107.3792922
  35.1736669 112.3138410 106.9970692  35.6671028 110.8953681 106.8064565
  45.6103359 121.9817411 106.6594059  44.8198903 121.9641550 106.1198559
  45.3736714 122.5205705 107.4143096  45.7301234 118.8309877 103.9726788
  45.7799239 118.6659885 104.9142311  45.6215157 117.9637136 103.5824668
  34.6137493 121.5098423  91.2618877  34.7625613 122.1933887  90.6085549
  35.4203936 121.4903513  91.7768332  43.0204996 114.8140805 105.2886094
  43.9214859 114.6747270 104.9970092  43.0952971 114.9795260 106.2284272
  37.3547802 112.1907660 104.1339281  36.4851111 112.4841226 103.8621869
  37.5907282 112.7748105 104.8546544  47.2319431 121.2506819 104.2168809
  46.9404239 121.6136799 105.0532270  46.6191562 120.5373827 104.0382141
  48.4315113 118.8159699  96.7371379  49.2662005 119.2549503  96.9008940
  48.5674242 118.3398352  95.9179625  45.4806619 116.3739433 102.6848867
  45.9560741 116.5667080 101.8767719  44.5572184 116.4298619 102.4392251
  38.1132898 124.0046553  88.7330624  37.5406865 124.6236740  88.2801096
  38.6865692 124.5545915  89.2670546  44.1808288 113.2505193 100.9177173
  45.1325711 113.3503291 100.9389397  44.0111739 112.4583462 101.4275257
  42.2022668 110.3360777 101.1036574  41.6072600 110.6165789 100.4083062
  41.9172364 110.8254678 101.8753315  41.3330158 124.2883703  89.8639206
  42.2660831 124.2229265  90.0672082  41.2453371 125.1239970  89.4053739
  43.9618175 123.6049574  86.8243154  43.8831806 123.2709437  87.7178912
  44.7827842 124.0971342  86.8234626  46.6596366 116.4711313 100.0319472
  46.6272686 115.5327314 100.2179156  47.2696990 116.5495350  99.2985297
  38.4979697 115.3407366  86.0746677  39.4438801 115.2113574  86.1435095
  38.1193942 114.6022028  86.5516105  46.8090854 113.2622357 100.0777756
  46.2929903 112.4780813  99.8907685  47.6930803 112.9341073 100.2424275
  52.4772916 117.5327320  99.1725509  53.2076304 117.2712608  99.7333213
  51.8679861 116.7956042  99.2127577  50.5588213 115.6735183  99.7699960
  49.8321376 115.5391147  99.1616452  50.1435500 115.9812011 100.5756679
  38.3818389 119.3925112 107.5347334  39.3021399 119.5703711 107.7287380
  38.3467972 118.4481158 107.3827033  36.6822614 113.2657342  86.0101562
  35.7754069 112.9690455  86.0864275  36.9598595 112.9687161  85.1435848
  27.6000554 114.5863706  96.4600608  27.2803339 113.7329014  96.1674982
  27.0533982 114.8012284  97.2158575  31.3780462 117.3026147 100.1770115
  31.5966472 118.2343255 100.1958148  31.7906236 116.9434121 100.9624919
  36.2508327 112.8759353 109.5672864  36.1505054 113.8253710 109.4984955
  36.0329869 112.5477592 108.6948934  35.4521399 110.1244278  86.1513541
  36.3140563 110.4499176  86.4109358  35.6371743 109.3375774  85.6386607
  27.4688814 118.2066617  98.4293730  26.7752286 117.7920570  97.9163684
  28.2161805 118.2487154  97.8327149  36.1139597 116.3056492 108.3837925
  35.6306679 117.1056852 108.5901814  36.2000536 116.3164436 107.4305369
  29.3825557 118.1384871  96.3059745  29.3596245 118.2372558  95.3541628
  29.6926193 118.9850022  96.6276911  32.0412935 120.1961026 100.4206359
  32.9956188 120.1644969 100.3536291  31.8425458 119.7351650 101.2356585
  32.6312317 118.7662142 102.9877157  33.4505206 119.2606221 103.0111994
  32.9049125 117.8494110 102.9594724  48.1766008 111.8947035  97.1233392
  48.7710499 111.6542771  96.4126700  48.2492592 111.1754165  97.7506928
  30.3963164 125.7380646  97.4376557  30.2617631 124.9781047  96.8714555
  29.9795226 126.4621546  96.9705346  41.5322127 120.9217569  86.4453132
  42.2357977 121.1267572  87.0610788  40.8084775 121.4894331  86.7102216
  50.4837081 115.2013236  95.8976813  49.9236639 115.2706425  96.6708375
  49.8780584 115.0254220  95.1776310  33.5532289 126.6349963  97.6495000
  33.4364674 127.5795395  97.5473690  32.7324736 126.3323524  98.0380799
  43.4408824 121.3600098  88.4951592  44.2754428 120.9281297  88.3129067
  43.2793167 121.1882112  89.4228487  43.0954716 117.8632212  89.8607932
  43.0403520 117.6976483  88.9196376  42.4700771 118.5708245  90.0170121
  27.8847231 113.1000276 103.6869354  28.5306095 112.5899230 104.1756579
  27.6764382 113.8368958 104.2612779  40.4100623 120.1681124 109.1861494
  41.2791783 120.3421776 108.8248129  39.9307375 120.9875540 109.0637224
  34.5786804 127.2878225 100.8650928  35.4814050 127.3201835 101.1817423
  34.3524174 126.3578676 100.8797264  36.3340406 126.0409211  97.5261007
  35.3836037 126.0411073  97.4125379  36.6372892 125.2941946  97.0097041
  32.2244722 110.2467893 107.7844368  33.0876184 109.8904698 107.9947693
  31.6510133 109.9081788 108.4719772  52.0693099 131.8769750  98.5906769
  52.7071509 131.7576497  97.8870109  51.9513942 132.8250593  98.6494721
  48.8782805 131.8297178  98.5268294  48.5401317 131.7138242  97.6388829
  49.7472573 131.4288343  98.5069300  44.7369621 133.6832654  94.5165185
  44.1734486 133.5922591  93.7481472  44.6222016 132.8632559  94.9967677
  49.3602588 132.9832029 104.4854499  49.3491229 132.5884828 103.6135003
  49.5223228 132.2498102 105.0788271  42.2834053 135.1783846  97.3549405
  43.0755345 134.8374670  96.9395704  42.5230703 135.2878821  98.2751558
  44.2424807 134.4392759  90.2266784  45.0155683 133.8921746  90.0879660
  44.5950206 135.3037008  90.4381245  47.0066056 133.1445990 100.0235043
  47.6029629 132.9202012  99.3092006  47.0641028 132.4030735 100.6260491
  46.5791085 130.5985425  87.8585234  46.8316605 130.0766946  87.0968697
  45.6415644 130.4351570  87.9611917  51.6234367 129.6021203  95.6659977
  52.4097457 129.1840627  95.3150394  51.8873072 130.5067296  95.8341625
  51.7944445 135.0394054  90.3648634  51.1590278 135.1128680  91.0769538
  51.4641851 135.6287653  89.6867713  57.0242795 129.5396437  96.5692956
  57.7567967 128.9695653  96.8030785  56.2682150 129.1518037  97.0099461
  46.2987373 132.5013531  90.0609609  46.1823632 131.8258434  90.7290693
  46.4089633 132.0145905  89.2441762  48.6418914 131.9623678  93.7656298
  48.2777122 131.4354299  94.4769219  49.4986030 131.5722147  93.5922783
  54.5468215 123.2518011 101.0287564  54.2151540 124.1213422 100.8048779
  53.9513828 122.9354295 101.7081595  48.2824401 126.9913578  88.7617647
  48.4498804 127.8593814  89.1288118  48.0921570 127.1540859  87.8378936
  51.0399734 135.4530557 100.4283477  50.7400458 136.3555595 100.3199284
  50.6950794 135.1862740 101.2804630  44.4912216 131.9044354  96.4620181
  43.5662712 131.7720568  96.6697873  44.7396629 132.6838573  96.9590124
  54.4396878 127.9713097  98.1080914  53.5313756 127.9028505  97.8139675
  54.3884474 128.4485042  98.9362740  48.2613622 129.4471235  89.7464313
  48.1413247 129.8928286  90.5849794  47.5666211 129.7956553  89.1877851
  41.8521027 131.5477627  97.2963970  41.9813408 131.8012106  98.2103382
  41.1718478 132.1405335  96.9768625  48.5137744 129.3902742 106.0515811
  47.7371078 129.9496663 106.0418676  49.1528307 129.8759525 106.5730682
  56.3058525 126.1729535  99.8858788  55.6632905 126.4662068  99.2398583
  55.8013453 126.0582456 100.6911985  53.9598688 129.9192708  90.5744647
  54.8716544 130.1520095  90.3992345  53.4508335 130.5029753  90.0119726
  46.7684116 132.1988196 105.6133778  47.5098801 132.7373240 105.3368602
  46.0621102 132.8254485 105.7705330  52.2439456 134.3417336 104.2105940
  52.6522812 133.8999747 103.4660572  51.5216718 133.7669964 104.4640133
  48.5970526 129.2789943 101.5839497  49.4431721 129.7029357 101.7274146
  48.5369164 128.6223567 102.2778060  52.5668271 134.9018527  97.9658229
  51.9377133 135.0664241  97.2634297  52.1793933 135.3160136  98.7369193
  56.4457503 135.8372965  95.3202593  55.7608541 136.2171866  94.7699626
  56.5301352 136.4468291  96.0534540  51.7469971 126.9394311 103.2420671
  51.5030903 127.6936372 102.7054946  52.0229902 127.3179659 104.0767918
  53.7008434 133.4832924 101.9197936  53.9125329 134.1264684 101.2432317
  53.6538182 132.6495240 101.4519866  51.3034663 126.0950744  98.8234508
  50.4419142 126.3931998  99.1151246  51.3297098 126.3121143  97.8915541
  48.1196233 134.6392935  95.2308314  48.5834578 134.9180638  94.4412936
  47.8553031 133.7376380  95.0481405  45.0120314 134.1864417  98.1688077
  45.5821671 134.6151685  97.5305562  45.6028425 133.9047001  98.8672263
  47.0565119 130.7616087  92.0397879  47.7589162 131.2137131  92.5071805
  46.7245747 130.1199906  92.6677772  45.5045480 129.3527844 106.4149088
  44.8744141 130.0344125 106.6484485  45.3981568 129.2410926 105.4702227
  40.7990453 129.0199640  97.3415013  40.0089507 129.2757169  96.8655123
  41.2901700 129.8347978  97.4467053  54.8154262 136.3604879 100.0920293
  55.6371706 135.9585066  99.8102975  54.8116665 136.2573113 101.0436409
  42.7505198 129.3844219  94.2998489  41.9536361 129.4962914  94.8181985
  42.5230790 129.7230871  93.4339380  48.5810866 135.9088923 102.2481004
  48.6455298 136.3709330 103.0839176  47.8721789 135.2786287 102.3763314
  39.0828156 129.2730130  99.7730003  39.3336194 130.1577140 100.0387579
  39.6187704 129.0934732  99.0005095  62.9060255 132.7043628  96.4405265
  62.1523964 132.1351026  96.2849269  63.0407796 132.6706292  97.3875900
  44.7826223 123.6548610 108.7774340  44.3893168 123.1014808 109.4521984
  45.5992363 123.9659188 109.1680857  47.6994184 125.0706489 106.3694596
  48.4403897 125.6713642 106.2899059  47.9312107 124.3284127 105.8112639
  42.8435522 130.2562856 104.6472826  42.7289037 129.3548113 104.9479925
  41.9880040 130.5026553 104.2957642  48.4781652 135.9927526 105.1165236
  49.0109989 135.2315814 104.8864544  47.9495733 135.7001178 105.8589391
  51.6451347 121.0987592 100.6458878  51.3015616 121.9889234 100.5697988
  52.0130309 120.9089250  99.7828463  39.7137197 133.4221122  93.4647480
  40.5512419 133.8318131  93.2481188  39.8915465 132.4820564  93.4347674
  51.6101630 131.0896203  89.1531313  51.0948253 131.8600808  89.3919700
  51.3378938 130.4161339  89.7764374  49.1948741 125.9345904  94.2116551
  48.3390337 125.5452754  94.0322190  49.6075692 126.0137865  93.3516337
  50.7247887 123.4692247  98.6108111  50.2212683 123.4322382  97.7975916
  51.0178494 124.3784990  98.6704768  46.9690773 123.5530977  97.6174293
  47.8343770 123.3573785  97.2580182  47.0368282 123.3241329  98.5443650
  56.5835904 133.8428558  91.0884486  55.8065346 133.5039717  90.6439648
  57.2627385 133.8481181  90.4139451  51.3987933 128.9623295  90.9791094
  51.0938068 129.2769444  91.8301237  52.3518375 129.0404715  91.0218427
  49.8434365 135.1213518  92.6284048  49.3155726 134.3866278  92.3157286
  49.3421867 135.8988195  92.3824016  54.8227211 133.3162539  97.7451094
  54.1650885 134.0061800  97.8331223  55.6267610 133.7058971  98.0885081
  44.5753092 125.7833185  94.9890660  45.1496844 125.5608366  94.2563853
  45.1624075 125.8521879  95.7419261  53.6332669 131.6706912  95.7955036
  54.1464551 132.3036903  96.2976746  54.2833893 131.0708107  95.4298396
  44.9022679 127.8137646  89.0086545  44.0659992 128.1512332  89.3295820
  44.7627449 127.6786625  88.0713682  46.8775760 122.6574434  93.7165729
  46.2240172 122.3423451  93.0922344  46.8356234 122.0350174  94.4425552
  47.9886965 132.9393729  85.6319021  47.0814026 132.7082982  85.8310170
  48.4857997 132.1431348  85.8193003  50.1113500 129.1456367  98.0413377
  49.1936062 129.3671314  97.8835065  50.5273644 129.2202678  97.1825084
  50.8948548 130.5447783  93.1716057  51.6420367 131.0569180  92.8623179
  51.1640138 130.2231836  94.0320450  49.1675198 133.0406324  90.1543011
  48.2586417 132.7565356  90.2515481  49.1970282 133.4605402  89.2946318
  54.3994466 136.6512913  93.9234179  53.9456793 135.8103823  93.9799369
  53.7688432 137.2874311  94.2608959  53.3427385 127.5804899  95.1534846
  52.6050142 127.0682285  95.4845089  53.5954159 127.1405281  94.3418123
  52.8427405 138.4889410  94.8583997  53.1350379 139.0494467  94.1396363
  53.3526025 138.7817971  95.6137156  53.4439012 120.3581151  95.7476615
  53.7497889 119.4978514  95.4602531  54.1691617 120.9498771  95.5475609
  39.7363369 130.7611838  94.1358213  39.5387768 130.1681198  93.4109280
  39.1810033 130.4564048  94.8534152  47.7160092 130.6534944  96.2552807
  47.7708702 129.7008781  96.1795283  46.9051294 130.8094383  96.7394105
  48.8651286 134.5815067  87.4931090  48.4270716 133.8650926  87.0336727
  49.6061727 134.8091182  86.9316181  45.6552452 129.2712004  94.0143185
  44.8420318 129.5706174  94.4208378  46.1511446 128.8767693  94.7317668
  51.2526664 129.7353828 102.8458079  51.6076052 129.9625301 103.7052545
  51.8998795 130.0672205 102.2235335  56.9824401 132.8572264  93.5507408
  56.8442299 133.0473860  92.6228598  56.6260620 133.6191647  94.0075459
  45.1466527 126.8430359  99.6304420  45.7865906 126.7019118  98.9327384
  44.3144057 126.5564873  99.2543022  57.0093780 134.9248791  98.5618680
  57.4430287 134.8324080  99.4101734  57.7225361 134.9006292  97.9238696
  45.9226831 136.1432790  95.7439413  46.7167429 135.6483110  95.5421988
  45.2118523 135.6150653  95.3807118  42.2309594 130.2875872  91.8199165
  41.3007182 130.2260327  92.0369128  42.3267066 129.7651824  91.0235807
  42.1495143 126.8130684  94.4077407  42.4101961 127.7276018  94.2986568
  42.9712316 126.3455127  94.5574020  43.6220069 128.2268442 101.5776232
  44.2943122 128.0185804 100.9288881  42.7949855 128.0290528 101.1381464
  57.8709330 134.9672492 101.0951565  58.0645220 135.8718302 101.3410840
  57.7709948 134.5079911 101.9290150  49.5245641 124.8530382 103.5941893
  48.8773556 125.5520332 103.5006369  50.2946656 125.2866526 103.9618141
  52.9324439 135.1179235 106.6692446  52.7809945 134.8889786 105.7522530
  52.9229118 136.0749836 106.6823791  49.7009775 132.6911147 101.6538712
  50.6301835 132.8422307 101.4807680  49.2800805 132.7795168 100.7987359
  50.0503322 136.0943414  96.8126088  49.7153155 136.0544184  97.7083738
  49.5507268 135.4288130  96.3396498  44.0247566 131.5011045 102.3378669
  43.8867364 130.7691283 102.9390208  44.9352489 131.4119945 102.0562857
  52.9862514 133.4399449  87.0863147  52.3691684 132.7146277  86.9896200
  52.5179002 134.2008809  86.7430222  46.6529867 131.2131004 101.8262349
  47.3629485 130.5724196 101.7848967  46.6099175 131.4643899 102.7488529
  54.6416645 138.1498357 104.7468928  54.5829191 137.4657577 104.0799511
  55.0436164 138.8917347 104.2949554  45.3658801 128.1996222 103.6457988
  44.8296158 127.7486960 104.2979584  44.7775509 128.3342131 102.9028452
  44.7761059 127.6584873  86.2084452  43.8990526 127.5373674  85.8446698
  45.2518813 126.8670951  85.9563340  54.6434052 136.1137941 102.9782907
  53.7560831 135.7763863 103.1009306  55.2132604 135.3820972 103.2151673
  41.0997922 127.3352229 100.7310982  41.0156110 126.7277899  99.9961392
  40.2780628 127.8261248 100.7320479  51.2721636 125.8205793  96.0981178
  51.7690335 125.0675755  95.7782248  50.5008617 125.8570110  95.5324387
  59.1251393 131.5246158  97.7399469  59.1141269 132.4070874  97.3693402
  58.2568772 131.1717709  97.5454006  52.3551416 134.5777480  93.6719601
  51.4207695 134.6978943  93.5024305  52.5328085 133.6749947  93.4079611
  47.8556604 127.9623176  95.8252862  47.4854392 127.4094216  96.5133768
  48.3515697 127.3581309  95.2727862  55.7423968 130.4194799  94.2069635
  56.2084420 131.2522791  94.1329938  56.1931468 129.9539781  94.9114894
  53.8100199 136.7638621  91.2055787  54.0860043 136.6495215  92.1149661
  52.9404698 136.3656106  91.1667960  53.7140630 122.7875386  98.2460536
  52.8003710 123.0179613  98.4142743  54.1433732 122.8713831  99.0974569
  53.4847089 130.9765278 100.7460430  52.8318539 131.2241186 100.0912883
  53.8627469 130.1629417 100.4122908  49.5334662 131.7185089 107.2326468
  48.8575299 131.6179219 107.9028843  50.3562296 131.5624303 107.6962465
  35.8731176 130.5262626  98.5743426  35.9115275 129.9926217  99.3680544
  35.3671469 129.9997832  97.9554403  43.2521938 125.3727167 102.0705968
  43.3163265 126.2341998 101.6583366  43.1889058 124.7601168 101.3378327
  42.7274211 127.4450299 105.7179002  43.3546249 127.0627377 106.3316527
  41.8702129 127.2264501 106.0834695  53.1268319 137.8513274 107.3232738
  53.6708223 138.4643233 106.8287693  52.5455164 138.4092853 107.8399751
  39.5039753 129.2526728  91.6497357  39.7993194 128.3437407  91.5964411
  38.6027789 129.2314468  91.3278360  43.0334000 127.3282725  97.6324906
  42.3120586 127.9418693  97.4932379  43.8227256 127.8640490  97.5541552
  53.4760740 138.7743013 100.0827316  52.5291076 138.6548364 100.0105642
  53.8243514 137.8865511 100.1653577  45.8360314 124.6637151 103.9065558
  46.3594716 124.9099448 104.6691867  45.6172647 125.4957186 103.4868695
  41.2327595 126.9340826  91.7736682  40.9040301 126.0538205  91.5911788
  41.5866966 126.8788495  92.6613072  44.3469418 127.2213796  92.1412160
  44.6865491 127.7499717  91.4190768  44.7941539 127.5594202  92.9170727
  54.0841296 139.3924287  97.3696541  55.0087843 139.1867149  97.2320992
  53.9156599 139.1440689  98.2785882  47.0412859 125.6050847 101.5915228
  46.7009679 124.8058660 101.9935908  46.3351865 125.9052557 101.0192061
  47.6929331 122.6900159 100.0442551  48.5155400 122.2160637  99.9221442
  47.9367394 123.4690643 100.5441237  46.3337565 125.7188417  90.3405453
  47.0545928 126.0969670  89.8369170  45.7102869 126.4377294  90.4440431
  50.4768688 126.4233566  91.2763785  50.6932302 127.3058204  90.9752613
  49.9962755 126.0319780  90.5469427  45.2167909 129.3819280  97.8534530
  45.0712490 129.6959583  98.7458811  44.7393113 130.0004180  97.3005428
  47.0764292 126.3721828  97.9015419  47.0625861 125.4762921  97.5647717
  47.7936720 126.3792491  98.5353705  48.9290423 126.8059168  99.9468547
  48.6708201 127.7276238  99.9452877  48.3975463 126.4089602 100.6369011
  39.6913572 131.9224624 100.7922191  39.1467040 132.6984432 100.9242465
  40.5692921 132.2695429 100.6341312  46.4801188 125.2536208  93.1702989
  46.6017099 124.3252854  93.3693877  46.1903231 125.2674894  92.2581305
  49.3492379 122.9391118  96.3069709  49.3714075 123.0030451  95.3521689
  49.7660438 122.0995627  96.5010215  59.7276003 132.6746378  94.3448932
  60.1707149 131.9253703  93.9468055  58.8502513 132.6656514  93.9622664
  54.8611784 139.2276719  89.8255530  55.5562689 139.8483412  90.0442845
  55.2034934 138.3772071  90.1007908  40.4779593 131.0494520 103.6852348
  39.7361330 131.1977156 104.2716978  40.1572338 131.3102786 102.8219097
  56.7603207 136.6776425  91.3542861  57.2854532 137.0163698  90.6292181
  56.6725560 135.7423440  91.1705996  45.9642268 126.7668205 107.3792922
  46.0130423 127.6430328 106.9970692  46.5064782 126.2245598 106.8064565
  56.4497113 137.3109329 106.6594059  55.6592657 137.2933467 106.1198559
  56.2130468 137.8497622 107.4143096  56.5694989 134.1601795 103.9726788
  56.6192993 133.9951802 104.9142311  56.4608912 133.2929054 103.5824668
  53.8598751 130.1432723 105.2886094  54.7608614 130.0039188 104.9970092
  53.9346725 130.3087178 106.2284272  48.1941556 127.5199578 104.1339281
  47.3244866 127.8133144 103.8621869  48.4301037 128.1040023 104.8546544
  58.0713185 136.5798736 104.2168809  57.7797994 136.9428717 105.0532270
  57.4585317 135.8665745 104.0382141  59.2708868 134.1451616  96.7371379
  60.1055759 134.5841420  96.9008940  59.4067996 133.6690269  95.9179625
  56.3200374 131.7031351 102.6848867  56.7954495 131.8958997 101.8767719
  55.3965939 131.7590537 102.4392251  43.2083880 132.8655518  92.2679946
  42.9629922 131.9617848  92.4660156  43.3779795 132.8672669  91.3259424
  50.8980590 123.7379195 101.6504701  51.4162534 124.4740222 101.3251190
  50.5435723 124.0443188 102.4851460  42.4779528 128.5983876  89.7666107
  41.7848773 128.6728231  89.1106143  42.2331280 127.8344219  90.2887624
  51.1493184 120.1579477  97.1705598  51.4294938 119.4902666  97.7966024
  51.9343791 120.3508573  96.6580262  55.0202043 128.5797111 100.9177173
  55.9719466 128.6795209 100.9389397  54.8505493 127.7875380 101.4275257
  53.0416422 125.6652694 101.1036574  52.4466354 125.9457707 100.4083062
  52.7566119 126.1546595 101.8753315  54.8011929 138.9341492  86.8243154
  54.7225561 138.6001355  87.7178912  55.6221596 139.4263259  86.8234626
  57.4990120 131.8003231 100.0319472  57.4666441 130.8619232 100.2179156
  58.1090744 131.8787268  99.2985297  49.3373451 130.6699284  86.0746677
  50.2832556 130.5405492  86.1435095  48.9587696 129.9313946  86.5516105
  57.6484609 128.5914274 100.0777756  57.1323658 127.8072731  99.8907685
  58.5324557 128.2632991 100.2424275  55.3095336 122.3355290  96.0373568
  55.1120157 122.0270378  96.9216900  55.9195041 123.0616929  96.1671498
  63.3166670 132.8619238  99.1725509  64.0470059 132.6004526  99.7333213
  62.7073616 132.1247960  99.2127577  61.3981967 131.0027100  99.7699960
  60.6715131 130.8683065  99.1616452  60.9829254 131.3103929 100.5756679
  49.2212144 134.7217030 107.5347334  50.1415153 134.8995629 107.7287380
  49.1861727 133.7773075 107.3827033  47.5216368 128.5949260  86.0101562
  46.6147824 128.2982373  86.0864275  47.7992349 128.2979078  85.1435848
  38.4394309 129.9155624  96.4600608  38.1197093 129.0620932  96.1674982
  37.8927737 130.1304202  97.2158575  42.2174216 132.6318065 100.1770115
  42.4360226 133.5635172 100.1958148  42.6299990 132.2726039 100.9624919
  49.1378434 123.1386150  92.1645803  48.3279162 122.7933235  92.5401049
  49.8262851 122.8293694  92.7533415  51.0668982 122.2164197  93.7870100
  51.6200021 122.6359650  94.4460123  51.3039069 121.2899945  93.8293056
  47.0902082 128.2051270 109.5672864  46.9898809 129.1545627 109.4984955
  46.8723624 127.8769509 108.6948934  46.2915153 125.4536195  86.1513541
  47.1534317 125.7791094  86.4109358  46.4765497 124.6667691  85.6386607
  38.3082569 133.5358535  98.4293730  37.6146040 133.1212488  97.9163684
  39.0555560 133.5779072  97.8327149  54.4447790 124.3264722  93.2948764
  53.8646459 124.9849526  92.9126816  54.1783722 123.5042066  92.8836181
  52.8951356 123.7269780  95.4970084  53.3951134 123.8386314  94.6884403
  53.5386964 123.4230832  96.1370893  46.9533352 131.6348409 108.3837925
  46.4700433 132.4348769 108.5901814  47.0394291 131.6456354 107.4305369
  40.2219311 133.4676789  96.3059745  40.1989999 133.5664476  95.3541628
  40.5319948 134.3141940  96.6276911  43.4706071 134.0954060 102.9877157
  44.2898960 134.5898139 103.0111994  43.7442879 133.1786028 102.9594724
  53.2272668 126.4864812  92.3505112  52.3398523 126.7714463  92.1325307
  53.6426657 126.3258576  91.5032389  56.5787204 126.5111333  96.0659451
  57.3547594 127.0007786  96.3384068  55.8535338 126.9369387  96.5231321
  59.0159762 127.2238952  97.1233392  59.6104253 126.9834688  96.4126700
  59.0886346 126.5046083  97.7506928  52.3715881 136.2509487  86.4453132
  53.0751731 136.4559489  87.0610788  51.6478530 136.8186249  86.7102216
  53.2013691 132.0019348  92.5655402  53.1448893 132.4587900  91.7263035
  53.7542034 131.2410033  92.3878245  57.0118497 127.7909080  93.3905522
  56.7555431 127.3905716  94.2213730  56.3871365 128.5052874  93.2655661
  61.3230835 130.5305153  95.8976813  60.7630393 130.5998343  96.6708375
  60.7174338 130.3546138  95.1776310  54.2802578 136.6892016  88.4951592
  55.1148182 136.2573215  88.3129067  54.1186921 136.5174030  89.4228487
  53.9348471 133.1924129  89.8607932  53.8797274 133.0268401  88.9196376
  53.3094526 133.9000162  90.0170121  38.7240986 128.4292194 103.6869354
  39.3699849 127.9191148 104.1756579  38.5158137 129.1660875 104.2612779
  51.2494378 135.4973041 109.1861494  52.1185537 135.6713694 108.8248129
  50.7701129 136.3167458 109.0637224  47.2444596 122.6932238  89.4393250
  47.2323266 123.6374078  89.5961521  48.1368018 122.5102384  89.1452711
  51.0596716 119.2875015  93.6939187  50.2929111 118.7333502  93.8395869
  51.4707420 119.3596884  94.5553338  43.0638477 125.5759811 107.7844368
  43.9269938 125.2196616 107.9947693  42.4903887 125.2373706 108.4719772
  65.3861969 138.5809928 101.0287564  65.0545294 139.4505339 100.8048779
  64.7907583 138.2646212 101.7081595  67.1452279 141.5021453  99.8858788
  66.5026659 141.7953986  99.2398583  66.6407208 141.3874373 100.6911985
  62.1428418 141.4242662  98.8234508  61.2812897 141.7223916  99.1151246
  62.1690852 141.6413061  97.8915541  55.6219977 138.9840528 108.7774340
  55.2286923 138.4306726 109.4521984  56.4386118 139.2951106 109.1680857
  58.5387938 140.3998407 106.3694596  59.2797652 141.0005560 106.2899059
  58.7705861 139.6576044 105.8112639  62.4845101 136.4279510 100.6458878
  62.1409371 137.3181151 100.5697988  62.8524064 136.2381167  99.7828463
  60.0342495 141.2637821  94.2116551  59.1784091 140.8744672  94.0322190
  60.4469447 141.3429782  93.3516337  61.5641642 138.7984165  98.6108111
  61.0606437 138.7614300  97.7975916  61.8572249 139.7076907  98.6704768
  57.8084528 138.8822894  97.6174293  58.6737524 138.6865703  97.2580182
  57.8762036 138.6533246  98.5443650  57.7169514 137.9866351  93.7165729
  57.0633927 137.6715368  93.0922344  57.6749988 137.3642092  94.4425552
  64.1821140 142.9096817  95.1534846  63.4443896 142.3974203  95.4845089
  64.4347913 142.4697198  94.3418123  64.2832767 135.6873069  95.7476615
  64.5891644 134.8270432  95.4602531  65.0085372 136.2790689  95.5475609
  60.3639395 140.1822300 103.5941893  59.7167310 140.8812250 103.5006369
  61.1340411 140.6158444 103.9618141  62.1115390 141.1497711  96.0981178
  62.6084090 140.3967673  95.7782248  61.3402372 141.1862027  95.5324387
  64.5534385 138.1167304  98.2460536  63.6397465 138.3471531  98.4142743
  64.9827486 138.2005748  99.0974569  58.5323085 138.0192077 100.0442551
  59.3549155 137.5452555  99.9221442  58.7761149 138.7982560 100.5441237
  60.1886133 138.2683036  96.3069709  60.2107830 138.3322369  95.3521689
  60.6054192 137.4287545  96.5010215  61.7374345 139.0671112 101.6504701
  62.2556288 139.8032139 101.3251190  61.3829477 139.3735106 102.4851460
  61.9886939 135.4871395  97.1705598  62.2688693 134.8194584  97.7966024
  62.7737546 135.6800490  96.6580262  63.8810177 140.9944612 101.1036574
  63.2860109 141.2749625 100.4083062  63.5959873 141.4838513 101.8753315
  68.4878363 143.9206192 100.0777756  67.9717412 143.1364649  99.8907685
  69.3718312 143.5924909 100.2424275  66.1489090 137.6647207  96.0373568
  65.9513911 137.3562296  96.9216900  66.7588796 138.3908846  96.1671498
  59.9772189 138.4678068  92.1645803  59.1672917 138.1225153  92.5401049
  60.6656606 138.1585611  92.7533415  61.9062737 137.5456114  93.7870100
  62.4593776 137.9651568  94.4460123  62.1432823 136.6191862  93.8293056
  65.2841544 139.6556640  93.2948764  64.7040213 140.3141444  92.9126816
  65.0177477 138.8333984  92.8836181  63.7345110 139.0561697  95.4970084
  64.2344889 139.1678232  94.6884403  64.3780718 138.7522750  96.1370893
  64.0666422 141.8156730  92.3505112  63.1792277 142.1006381  92.1325307
  64.4820411 141.6550493  91.5032389  67.4180958 141.8403251  96.0659451
  68.1941348 142.3299703  96.3384068  66.6929092 142.2661305  96.5231321
  69.8553517 142.5530870  97.1233392  70.4498008 142.3126606  96.4126700
  69.9280100 141.8338001  97.7506928  67.8512252 143.1200998  93.3905522
  67.5949186 142.7197633  94.2213730  67.2265120 143.8344792  93.2655661
  58.0838351 138.0224156  89.4393250  58.0717020 138.9665996  89.5961521
  58.9761772 137.8394302  89.1452711  61.8990470 134.6166933  93.6939187
  61.1322866 134.0625419  93.8395869  62.3101175 134.6888801  94.5553338
   2.8274023  29.8998971  83.2938262   3.5599195  29.3298188  83.5276092
   2.0713379  29.5120571  83.7344768   2.1089754  26.5332069  86.6104095
   1.4664134  26.8264603  85.9643889   1.6044682  26.4184990  87.4157291
   2.2488731  36.1975499  82.0447899   1.5639770  36.5774400  81.4944933
   2.3332581  36.8070826  82.7779847   0.6185491  36.7207413  86.8165600
   1.4402935  36.3187601  86.5348282   0.6147894  36.6175648  87.7681716
   8.7091484  33.0646162  83.1650572   7.9555192  32.4953560  83.0094576
   8.8439025  33.0308826  84.1121206   2.3867132  34.2031092  77.8129793
   1.6096575  33.8642251  77.3684955   3.0658613  34.2083715  77.1384758
   2.7855630  33.2174798  80.2752715   2.6473528  33.4076394  79.3473904
   2.4291848  33.9794181  80.7320766   2.8125009  35.2851325  85.2863986
   3.2461516  35.1926615  86.1347041   3.5256590  35.2608826  84.6484002
   3.6740559  35.3275026  87.8196872   3.8676449  36.2320837  88.0656147
   3.5741177  34.8682445  88.6535457   4.9282622  31.8848693  84.4644776
   4.9172498  32.7673408  84.0938709   4.0600001  31.5320244  84.2699313
   1.5455196  30.7797334  80.9314942   2.0115649  31.6125325  80.8575244
   1.9962697  30.3142315  81.6360200   5.5307232  33.0348912  81.0694239
   5.9738378  32.2856237  80.6713362   4.6533742  33.0259048  80.6867971
   0.6643013  39.5879254  76.5500837   1.3593918  40.2085946  76.7688152
   1.0066163  38.7374605  76.8253215   2.5634436  37.0378959  78.0788168
   3.0885760  37.3766232  77.3537488   2.4756789  36.1025974  77.8951302
   2.2528342  37.6711863  93.3839366   1.4623886  37.6536002  92.8443865
   2.0161697  38.2100156  94.1388402   2.3726217  34.5204329  90.6972094
   2.4224222  34.3554337  91.6387617   2.2640141  33.6531588  90.3069975
   3.8744414  36.9401271  90.9414116   3.5829222  37.3031251  91.7777577
   3.2616545  36.2268279  90.7627448   5.0740096  34.5054150  83.4616686
   5.9086988  34.9443954  83.6254246   5.2099225  34.0292804  82.6424932
   2.1231602  32.0633885  89.4094174   2.5985724  32.2561532  88.6013025
   1.1997168  32.1193071  89.1637558   0.8233271  28.9399645  87.6422479
   1.7750694  29.0397743  87.6634704   0.6536722  28.1477914  88.1520564
   0.6043158  39.2944026  73.5488461   0.5256790  38.9603889  74.4424218
   1.4252825  39.7865794  73.5479933   3.3021349  32.1605765  86.7564779
   3.2697669  31.2221766  86.9424463   3.9121973  32.2389802  86.0230604
   3.4515838  28.9516808  86.8023062   2.9354886  28.1675265  86.6152991
   4.3355786  28.6235525  86.9669582   1.1126565  22.6957824  82.7618875
   0.9151386  22.3872912  83.6462207   1.7226270  23.4219463  82.8916805
   9.1197899  33.2221772  85.8970816   9.8501288  32.9607060  86.4578519
   8.5104845  32.4850494  85.9372884   7.2013196  31.3629634  86.4945267
   6.4746360  31.2285599  85.8861759   6.7860483  31.6706463  87.3001985
   2.3818432  26.8713867  82.7904758   3.1578823  27.3610320  83.0629375
   1.6566567  27.2971922  83.2476628   4.8190991  27.5841487  83.8478699
   5.4135482  27.3437223  83.1372007   4.8917575  26.8648617  84.4752235
   2.8149726  28.1511614  80.1150829   2.5586660  27.7508250  80.9459036
   2.1902594  28.8655408  79.9900968   7.1262064  30.8907687  82.6222120
   6.5661622  30.9600877  83.3953682   6.5205567  30.7148672  81.9021616
   8.7118082  47.5664201  85.3152076   9.3496492  47.4470949  84.6115416
   8.5938925  48.5145045  85.3740028   5.5207789  47.5191630  85.2513600
   5.1826300  47.4032694  84.3634135   6.3897557  47.1182795  85.2314606
   1.3794604  49.3727106  81.2410491   0.8159469  49.2817043  80.4726779
   1.2646999  48.5527010  81.7212984   6.0027572  48.6726481  91.2099806
   5.9916212  48.2779280  90.3380310   6.1648211  47.9392554  91.8033577
   6.9594163  53.0398074  76.5524956   6.3082143  53.6252154  76.1658970
   7.7538526  53.5704269  76.6119994   0.8849790  50.1287211  76.9512091
   1.6580666  49.5816198  76.8124966   1.2375189  50.9931460  77.1626552
   2.7234833  51.4563593  90.1578990   2.4324699  52.3609224  90.0425656
   3.3591817  51.4980121  90.8723059   3.6491040  48.8340442  86.7480349
   4.2454612  48.6096464  86.0337312   3.7066011  48.0925187  87.3505797
   3.2216068  46.2879877  74.5830540   3.4741589  45.7661398  73.8214003
   2.2840627  46.1246022  74.6857224   8.2659351  45.2915655  82.3905284
   9.0522440  44.8735078  82.0395701   8.5298055  46.1961747  82.5586932
   8.4369428  50.7288506  77.0893941   7.8015261  50.8023132  77.8014845
   8.1066835  51.3182104  76.4113020  13.6667778  45.2290888  83.2938262
  14.3992950  44.6590105  83.5276092  12.9107134  44.8412489  83.7344768
   2.9412357  48.1907983  76.7854915   2.8248615  47.5152886  77.4536000
   3.0514617  47.7040357  75.9687068   5.2843898  47.6518130  80.4901605
   4.9202105  47.1248751  81.2014526   6.1411014  47.2616599  80.3168090
  11.1893198  38.9412463  87.7532871  10.8576523  39.8107874  87.5294086
  10.5938812  38.6248747  88.4326901   4.9249385  42.6808030  75.4862953
   5.0923787  43.5488266  75.8533424   4.7346554  42.8435311  74.5624242
   7.6824718  51.1425009  87.1528784   7.3825441  52.0450047  87.0444591
   7.3375777  50.8757192  88.0049936  11.0821862  43.6607549  84.8326221
  10.1738739  43.5922957  84.5384982  11.0309457  44.1379494  85.6608046
   4.9038605  45.1365687  76.4709620   4.7838231  45.5822738  77.3095100
   4.2091194  45.4851005  75.9123158   2.6645498  57.9069329  80.1199751
   2.5869527  58.8577154  80.1988232   2.0607141  57.5615201  80.7774678
   5.1562727  45.0797194  92.7761118   4.3796061  45.6391114  92.7663983
   5.7953290  45.5653977  93.2975988  12.9483508  41.8623987  86.6104095
  12.3057888  42.1556520  85.9643889  12.4438437  41.7476908  87.4157291
  10.6023672  45.6087160  77.2989954  11.5141528  45.8414547  77.1237652
  10.0933319  46.1924205  76.7365033   3.4109100  47.8882648  92.3379085
   4.1523784  48.4267692  92.0613909   2.7046085  48.5148936  92.4950637
   8.8864439  50.0311788  90.9351247   9.2947795  49.5894199  90.1905879
   8.1641701  49.4564416  91.1885440   5.2395509  44.9684395  88.3084804
   6.0856705  45.3923809  88.4519453   5.1794147  44.3118019  89.0023367
   9.2093254  50.5912979  84.6903535   8.5802116  50.7558693  83.9879603
   8.8218916  51.0054588  85.4614500  13.0882486  51.5267417  82.0447899
  12.4033524  51.9066318  81.4944933  13.1726335  52.1362743  82.7779847
   8.3894955  42.6288763  89.9665977   8.1455887  43.3830824  89.4300253
   8.6654885  43.0074111  90.8013224  10.3433417  49.1727376  88.6443243
  10.5550313  49.8159136  87.9677624  10.2963166  48.3389692  88.1765173
   7.9459646  41.7845196  85.5479815   7.0844125  42.0826450  85.8396553
   7.9722081  42.0015595  84.6160848   4.7621216  50.3287387  81.9553621
   5.2259561  50.6075090  81.1658243   4.4978014  49.4270831  81.7726711
   1.6545297  49.8758868  84.8933384   2.2246654  50.3046137  84.2550868
   2.2453409  49.5941453  85.5917570   3.6990102  46.4510539  78.7643186
   4.4014145  46.9031583  79.2317112   3.3670730  45.8094358  79.3923079
   2.1470463  45.0422296  93.1394395   1.5169124  45.7238577  93.3729792
   2.0406551  44.9305377  92.1947533  11.4579245  52.0499331  86.8165600
  12.2796689  51.6479518  86.5348282  11.4541648  51.9467565  87.7681716
   5.2235849  51.5983374  88.9726311   5.2880281  52.0603782  89.8084482
   4.5146773  50.9680739  89.1008620  19.5485238  48.3938080  83.1650572
  18.7948947  47.8245478  83.0094576  19.6832780  48.3600744  84.1121206
   4.9383867  53.2651482  78.8405291   4.8029541  54.1103018  79.2690139
   5.4793679  53.4670760  78.0771225   1.4251206  39.3443062  95.5019646
   1.0318152  38.7909260  96.1767290   2.2417346  39.6553640  95.8926164
   4.3419167  40.7600941  93.0939903   5.0828881  41.3608094  93.0144365
   4.5737090  40.0178579  92.5357945   6.5652343  53.8875048  92.9705633
   6.1216197  53.1011427  92.6526538   7.2269556  54.0754199  92.3049524
   1.3239464  55.4170850  87.4966312   1.8746889  55.2887913  86.7243305
   0.4850940  55.7165739  87.1461204   8.6633581  54.1677848  90.9987034
   8.6452056  54.9886729  90.5067303   9.5853501  54.0431924  91.2237175
   5.1206635  51.6821978  91.8410543   5.6534972  50.9210266  91.6109851
   4.5920716  51.3895630  92.5834697   8.2876330  36.7882044  87.3704184
   7.9440599  37.6783685  87.2943295   8.6555293  36.5983701  86.5073769
   8.2526613  46.7790655  75.8776620   7.7373236  47.5495260  76.1165007
   7.9803921  46.1055791  76.5009681   5.8373724  41.6240356  80.9361858
   4.9815320  41.2347206  80.7567497   6.2500676  41.7032316  80.0761643
   7.3672870  39.1586699  85.3353418   6.8637666  39.1216834  84.5221223
   7.6603477  40.0679442  85.3950074   3.6115756  39.2425429  84.3419599
   4.4768753  39.0468237  83.9825489   3.6793265  39.0135780  85.2688956
  13.2260887  49.5323010  77.8129793  12.4490330  49.1934169  77.3684955
  13.9052368  49.5375633  77.1384758   8.0412916  44.6517747  77.7036401
   7.7363052  44.9663896  78.5546544   8.9943358  44.7299167  77.7463734
   6.4859348  50.8107970  79.3529355   5.9580709  50.0760730  79.0402592
   5.9846851  51.5882647  79.1069323  11.4652194  49.0056991  84.4696401
  10.8075868  49.6956252  84.5576530  12.2692593  49.3953423  84.8130387
   1.2178075  41.4727637  81.7135966   1.7921827  41.2502818  80.9809159
   1.8049058  41.5416331  82.4664568  10.2757653  47.3601363  82.5200343
  10.7889534  47.9931355  83.0222052  10.9258877  46.7602559  82.1543703
   1.5447663  43.5032098  75.7331851   0.7084975  43.8406784  76.0541126
   1.4052432  43.3681077  74.7958988   3.5200743  38.3468885  80.4411036
   2.8665155  38.0317903  79.8167650   3.4781217  37.7244626  81.1670859
   4.6311948  48.6288181  72.3564328   3.7239010  48.3977434  72.5555477
   5.1282980  47.8325800  72.5438309   7.5380027  57.3385688  75.2761014
   6.8641726  57.6417384  75.8845972   7.9245849  58.1414768  74.9266471
   6.7538484  44.8350819  84.7658683   5.8361045  45.0565766  84.6080371
   7.1698627  44.9097129  83.9070391   7.5373531  46.2342235  79.8961364
   8.2845350  46.7463632  79.5868486   7.8065121  45.9126287  80.7565757
   5.8100181  48.7300775  76.8788318   4.9011401  48.4459808  76.9760788
   5.8395265  49.1499854  76.0191625  11.0419449  52.3407365  80.6479485
  10.5881776  51.4998275  80.7044676  10.4113416  52.9768763  80.9854266
   9.9852368  43.2699351  81.8780153   9.2475125  42.7576737  82.2090395
  10.2379142  42.8299733  81.0663430   9.4852388  54.1783862  81.5829304
   9.7775362  54.7388919  80.8641669   9.9951009  54.4712423  82.3382463
  10.0863996  36.0475603  82.4721922  10.3922873  35.1872966  82.1847837
  10.8116601  36.6393223  82.2720916   4.3585075  46.3429396  82.9798113
   4.4133685  45.3903232  82.9040590   3.5476278  46.4988835  83.4639412
   5.5076269  50.2709519  74.2176396   5.0695699  49.5545378  73.7582034
   6.2486710  50.4985634  73.6561488   2.2977435  44.9606456  80.7388492
   1.4845301  45.2600626  81.1453684   2.7936430  44.5662145  81.4562974
   4.4486013  54.9564213  82.6722757   4.4062192  55.1825059  81.7431289
   5.3648712  54.7227587  82.8208558   7.8951647  45.4248280  89.5703386
   8.2501035  45.6519753  90.4297852   8.5423778  45.7566657  88.9480641
  13.6249384  48.5466716  80.2752715  13.4867283  48.7368312  79.3473904
  13.2685603  49.3086099  80.7320766   1.7891510  42.5324811  86.3549727
   2.4290889  42.3913570  85.6572690   0.9569041  42.2459325  85.9788329
  13.6518764  50.6143243  85.2863986  14.0855270  50.5218532  86.1347041
  14.3650344  50.5900744  84.6484002   2.5651814  51.8327242  82.4684719
   3.3592413  51.3377562  82.2667294   1.8543506  51.3045105  82.1052425
   7.3846659  54.2145337  86.8197087   7.4383681  54.7836274  87.5874803
   6.5161440  54.3847222  86.4551124  14.5134313  50.6566944  87.8196872
  14.7070203  51.5612754  88.0656147  14.4134931  50.1974363  88.6535457
   6.1670624  40.5424834  90.3187199   5.5198539  41.2414784  90.2251676
   6.9371639  40.9760978  90.6863447   9.5749422  50.8073687  93.3937752
   9.4234928  50.5784238  92.4767836   9.5654101  51.7644288  93.4069097
   6.3434758  48.3805599  88.3784019   7.2726818  48.5316759  88.2052986
   5.9225788  48.4689620  87.5232665   5.1423090  52.4056264  86.1482557
   5.0034176  52.0375048  87.0208495   4.3537686  52.9203903  85.9766514
   5.7371242  57.5065360  77.4908093   5.9122998  57.0353403  78.3053716
   5.0504030  58.1331126  77.7189354   6.6928305  51.7837866  83.5371394
   6.3578138  51.7438636  84.4329044   6.1932251  51.1182582  83.0641805
   0.6672549  47.1905496  89.0623975   0.5292347  46.4585735  89.6635515
   1.5777473  47.1014397  88.7808163   9.6287497  49.1293901  73.8108454
   9.0116667  48.4040729  73.7141507   9.1603985  49.8903261  73.4675528
   3.2954850  46.9025456  88.5507655   4.0054468  46.2618648  88.5094274
   3.2524158  47.1538351  89.4733836  11.2841629  53.8392809  91.4714234
  11.2254175  53.1552029  90.8044817  11.6861147  54.5811799  91.0194860
   2.0083784  43.8890674  90.3703295   1.4721141  43.4381412  91.0224891
   1.4200492  44.0236582  89.6273759   1.4186043  43.3479325  72.9329758
   0.5415509  43.2268126  72.5692005   1.8943796  42.5565403  72.6808647
  11.2859036  51.8032393  89.7028214  10.3985815  51.4658315  89.8254613
  11.8557587  51.0715424  89.9396979   4.8160189  56.4633845  86.6689457
   4.7430361  57.2688817  87.1808762   4.3737582  56.6625811  85.8437479
   4.6049969  55.7005615  80.1792279   3.8217491  56.2427296  80.2730503
   5.3042714  56.2179595  80.5786520   7.9146619  41.5100245  82.8226484
   8.4115318  40.7570207  82.5027554   7.1433600  41.5464562  82.2569693
  15.7676376  47.2140610  84.4644776  15.7566253  48.0965326  84.0938709
  14.8993756  46.8612161  84.2699313   7.2758873  56.3620679  88.8247616
   7.9886845  56.9968144  88.7523517   6.7848901  56.4584545  88.0087618
   8.9976400  50.2671932  80.3964908   8.0632678  50.3873395  80.2269612
   9.1753068  49.3644399  80.1324917   4.4981588  43.6517628  82.5498169
   4.1279375  43.0988668  83.2379074   4.9940680  43.0475761  81.9973169
  12.3848951  46.1089251  80.9314942  12.8509403  46.9417243  80.8575244
  12.8356451  45.6434233  81.6360200   2.3270786  54.1115123  89.6453187
   3.0280246  54.7451606  89.7982581   1.8565901  54.4529854  88.8848826
  10.4525182  52.4533073  77.9301094  10.7285026  52.3389667  78.8394968
   9.5829681  52.0550558  77.8913267  10.3565614  38.4769838  84.9705843
   9.4428693  38.7074065  85.1388050  10.7858715  38.5608282  85.8219875
  10.1272072  46.6659730  87.4705737   9.4743522  46.9135638  86.8158190
  10.5052452  45.8523869  87.1368214   7.0879246  56.7019423  81.5733907
   7.2701641  55.8841079  82.0361660   7.9112232  56.9187116  81.1358797
   7.4221412  55.6287609  78.8348956   7.9509178  55.1180063  78.2219118
   7.6849631  55.3130139  79.6994489   6.1759645  47.4079541  93.9571774
   5.5000282  47.3073671  94.6274149   6.9987279  47.2518755  94.4207771
   4.9182428  58.7146469  88.1929390   5.4700736  58.8778090  88.9578475
   5.2588622  59.3050907  87.5209415   9.7693302  53.5407726  94.0478045
  10.3133206  54.1537685  93.5532999   9.1880147  54.0987305  94.5645058
   8.0550815  56.6628444  85.1793072   7.9301955  55.8618184  84.6704018
   8.7129906  57.1574638  84.6907042  10.1185724  54.4637464  86.8072622
   9.1716059  54.3442816  86.7350949  10.4668497  53.5759962  86.8898884
   2.4785297  40.3531603  90.6310864   3.0019699  40.5993900  91.3937174
   2.2597630  41.1851638  90.2114002   7.1232157  54.2590181  83.0076975
   6.9757119  53.3306888  83.1884545   7.9485651  54.2810271  82.5234050
   0.9894401  42.9108248  78.8657467   1.3290474  43.4394169  78.1436075
   1.4366522  43.2488654  79.6416033  10.7266279  55.0818739  84.0941847
  11.6512826  54.8761601  83.9566298  10.5581582  54.8335141  85.0031189
   3.6837842  41.2945298  88.3160535   3.3434663  40.4953112  88.7181215
   2.9776848  41.5947009  87.7437368   4.3354314  38.3794611  86.7687858
   5.1580383  37.9055089  86.6466748   4.5792378  39.1585095  87.2686544
   2.9762548  41.4082869  77.0650760   3.6970911  41.7864122  76.5614476
   2.3527853  42.1271746  77.1685737   7.1193671  42.1128018  78.0009092
   7.3357286  42.9952656  77.6997920   6.6387739  41.7214232  77.2714734
   1.8592893  45.0713732  84.5779836   1.7137473  45.3854035  85.4704118
   1.3818096  45.6898632  84.0250735   3.7189276  42.0616280  84.6260726
   3.7050844  41.1657373  84.2893024   4.4361704  42.0686943  85.2599012
   5.5715406  42.4953620  86.6713853   5.3133184  43.4170690  86.6698184
   5.0400447  42.0984054  87.3614318  10.5161595  55.6004407  79.4503939
  10.6898473  55.0350829  78.6977791  11.0090486  56.4005302  79.2683429
   3.1226172  40.9430660  79.8948296   3.2442083  40.0147306  80.0939184
   2.8328214  40.9569346  78.9826612   5.9917362  38.6285570  83.0315016
   6.0139059  38.6924903  82.0766996   6.4085421  37.7890079  83.2255522
  16.3700986  48.3640830  81.0694239  16.8132132  47.6148155  80.6713362
  15.4927497  48.3550966  80.6867971  11.5036768  54.9171171  76.5500837
  12.1987672  55.5377864  76.7688152  11.8459918  54.0666522  76.8253215
  13.4028191  52.3670877  78.0788168  13.9279515  52.7058150  77.3537488
  13.3150543  51.4317892  77.8951302   5.0648239  56.2804950  90.2078044
   5.3735366  56.0354097  91.0800744   5.8623721  56.4851589  89.7196915
   5.0868851  58.4342860  82.4383421   4.6473842  57.9419239  83.1316278
   5.8376968  57.8915828  82.1975496   2.5342724  53.9780869  84.5105723
   1.9122733  53.3151574  84.2107951   3.2047591  54.0042001  83.8279370
   2.6067251  42.4562657  94.1038229   2.6555407  43.3324780  93.7215998
   3.1489765  41.9140050  93.5309872  13.0922097  53.0003780  93.3839366
  12.3017640  52.9827919  92.8443865  12.8555451  53.5392074  94.1388402
  13.2119972  49.8496247  90.6972094  13.2617977  49.6846254  91.6387617
  13.1033895  48.9823506  90.3069975   2.0956231  52.5284792  77.9864183
   2.2444351  53.2120257  77.3330856   2.9022674  52.5089883  78.5013639
  10.5023734  45.8327175  92.0131401  11.4033597  45.6933640  91.7215399
  10.5771709  45.9981630  92.9529579   4.8366540  43.2094030  90.8584587
   3.9669849  43.5027596  90.5867176   5.0726020  43.7934475  91.5791851
  14.7138169  52.2693188  90.9414116  14.4222977  52.6323169  91.7777577
  14.1010300  51.5560197  90.7627448  15.9133851  49.8346068  83.4616686
  16.7480742  50.2735872  83.6254246  16.0492980  49.3584721  82.6424932
  12.9625357  47.3925803  89.4094174  13.4379479  47.5853449  88.6013025
  12.0390922  47.4484989  89.1637558   7.5405573  39.4273646  88.3750008
   8.0587517  40.1634673  88.0496496   7.1860706  39.7337640  89.2096767
   7.7918168  35.8473929  83.8950904   8.0719921  35.1797118  84.5211331
   8.5768774  36.0403025  83.3825568   5.5951636  55.0232923  75.4575931
   5.0225603  55.6423110  75.0046403   6.1684430  55.5732285  75.9915853
  11.6627026  44.2691563  87.6422479  12.6144449  44.3689661  87.6634704
  11.4930476  43.4769832  88.1520564   9.6841405  41.3547146  87.8281880
   9.0891337  41.6352159  87.1328369   9.3991102  41.8441047  88.5998622
   8.8148896  55.3070073  76.5884513   9.7479569  55.2415635  76.7917388
   8.7272109  56.1426340  76.1299046  11.4436913  54.6235943  73.5488461
  11.3650544  54.2895807  74.4424218  12.2646579  55.1157711  73.5479933
  14.1415104  47.4897683  86.7564779  14.1091424  46.5513683  86.9424463
  14.7515727  47.5681719  86.0230604   5.9798435  46.3593736  72.7991983
   6.9257539  46.2299944  72.8680401   5.6012680  45.6208398  73.2761411
  14.2909592  44.2808726  86.8023062  13.7748641  43.4967183  86.6152991
  15.1749541  43.9527443  86.9669582  11.9520319  38.0249742  82.7618875
  11.7545140  37.7164830  83.6462207  12.5620025  38.7511381  82.8916805
  19.9591654  48.5513690  85.8970816  20.6895042  48.2898978  86.4578519
  19.3498599  47.8142411  85.9372884  18.0406951  46.6921552  86.4945267
  17.3140114  46.5577517  85.8861759  17.6254238  46.9998381  87.3001985
   5.8637127  50.4111482  94.2592640   6.7840137  50.5890081  94.4532687
   5.8286710  49.4667527  94.1072339   4.1641352  44.2843712  72.7346868
   3.2572807  43.9876825  72.8109582   4.4417333  43.9873530  71.8681155
   5.7803417  38.8280602  78.8891110   4.9704146  38.4827687  79.2646356
   6.4687834  38.5188146  79.4778721   7.7093966  37.9058649  80.5115406
   8.2625004  38.3254102  81.1705429   7.9464052  36.9794397  80.5538362
   3.7327065  43.8945722  96.2918170   3.6323792  44.8440079  96.2230261
   3.5148607  43.5663961  95.4194240   2.9340136  41.1430647  72.8758848
   3.7959300  41.4685546  73.1354665   3.1190480  40.3562143  72.3631913
  11.0872773  40.0159174  80.0194071  10.5071442  40.6743978  79.6372123
  10.8208705  39.1936518  79.6081488   9.5376339  39.4164231  82.2215391
  10.0376118  39.5280766  81.4129710  10.1811947  39.1125284  82.8616199
   3.5958335  47.3242861  95.1083232   3.1125417  48.1243221  95.3147121
   3.6819274  47.3350806  94.1550676   9.8697651  42.1759264  79.0750419
   8.9823506  42.4608915  78.8570614  10.2851640  42.0153028  78.2277696
  13.2212187  42.2005785  82.7904758  13.9972577  42.6902238  83.0629375
  12.4960321  42.6263839  83.2476628  15.6584746  42.9133404  83.8478699
  16.2529236  42.6729140  83.1372007  15.7311329  42.1940535  84.4752235
   9.0140864  51.9403939  73.1698439   9.7176714  52.1453941  73.7856094
   8.2903513  52.5080701  73.4347522   9.8438675  47.6913800  79.2900709
   9.7873876  48.1482351  78.4508341  10.3967017  46.9304485  79.1123552
  13.6543480  43.4803532  80.1150829  13.3980415  43.0800168  80.9459036
  13.0296349  44.1947326  79.9900968  17.9655818  46.2199605  82.6222120
  17.4055376  46.2892794  83.3953682  17.3599322  46.0440590  81.9021616
  10.9227562  52.3786468  75.2196899  11.7573166  51.9467666  75.0374374
  10.7611905  52.2068482  76.1473793  10.5773454  48.8818581  76.5853238
  10.5222258  48.7162853  75.6441682   9.9519509  49.5894614  76.7415428
   7.8919361  51.1867493  95.9106801   8.7610521  51.3608145  95.5493436
   7.4126113  52.0061910  95.7882530   3.8869579  38.3826690  76.1638557
   3.8748249  39.3268530  76.3206827   4.7793001  38.1996836  75.8698018
   2.0605541  58.3064594  87.5896235   2.9632788  58.3388204  87.9062730
   1.8342911  57.3765045  87.6042570   3.8159143  57.0595581  84.2506313
   2.8654774  57.0597442  84.1370686   4.1191629  56.3128315  83.7342348
   7.7021699  34.9769467  80.4184493   6.9354095  34.4227954  80.5641176
   8.1132404  35.0491336  81.2798645  19.5511837  62.8956119  85.3152076
  20.1890247  62.7762866  84.6115416  19.4332680  63.8436963  85.3740028
  16.3601543  62.8483547  85.2513600  16.0220055  62.7324612  84.3634135
  17.2291311  62.4474712  85.2314606  12.2188359  64.7019024  81.2410491
  11.6553224  64.6108961  80.4726779  12.1040754  63.8818928  81.7212984
  16.8421326  64.0018399  91.2099806  16.8309967  63.6071197  90.3380310
  17.0041966  63.2684472  91.8033577   9.7652791  66.1970215  84.0794712
  10.5574083  65.8561040  83.6641011  10.0049441  66.3065190  84.9996865
  11.7243545  65.4579128  76.9512091  12.4974421  64.9108116  76.8124966
  12.0768944  66.3223378  77.1626552  13.5628587  66.7855511  90.1578990
  13.2718453  67.6901142  90.0425656  14.1985572  66.8272038  90.8723059
  14.4884794  64.1632359  86.7480349  15.0848366  63.9388382  86.0337312
  14.5459766  63.4217105  87.3505797  14.0609822  61.6171795  74.5830540
  14.3135343  61.0953316  73.8214003  13.1234382  61.4537940  74.6857224
  13.7806111  63.5199901  76.7854915  13.6642369  62.8444804  77.4536000
  13.8908371  63.0332274  75.9687068  22.0286953  54.2704380  87.7532871
  21.6970278  55.1399791  87.5294086  21.4332566  53.9540664  88.4326901
  18.5218472  66.4716926  87.1528784  18.2219195  67.3741965  87.0444591
  18.1769532  66.2049109  88.0049936  11.9730954  62.9230723  83.1865488
  11.0481450  62.7906937  83.3943180  12.2215367  63.7024942  83.6835430
  21.9215616  58.9899466  84.8326221  21.0132493  58.9214875  84.5384982
  21.8703212  59.4671411  85.6608046   9.3339765  62.5663997  84.0209277
   9.4632146  62.8198476  84.9348689   8.6537216  63.1591705  83.7013932
  15.9956482  60.4089112  92.7761118  15.2189816  60.9683032  92.7663983
  16.6347045  60.8945895  93.2975988  23.7877262  57.1915905  86.6104095
  23.1451643  57.4848438  85.9643889  23.2832191  57.0768825  87.4157291
  14.2502854  63.2174565  92.3379085  14.9917539  63.7559609  92.0613909
  13.5439840  63.8440854  92.4950637  16.0789264  60.2976313  88.3084804
  16.9250459  60.7215726  88.4519453  16.0187902  59.6409937  89.0023367
  19.2288709  57.9580681  89.9665977  18.9849641  58.7122742  89.4300253
  19.5048640  58.3366029  90.8013224  21.1827172  64.5019293  88.6443243
  21.3944067  65.1451053  87.9677624  21.1356920  63.6681610  88.1765173
  18.7853401  57.1137114  85.5479815  17.9237880  57.4118368  85.8396553
  18.8115836  57.3307513  84.6160848  15.6014970  65.6579305  81.9553621
  16.0653316  65.9367008  81.1658243  15.3371768  64.7562749  81.7726711
  12.4939051  65.2050786  84.8933384  13.0640408  65.6338054  84.2550868
  13.0847163  64.9233371  85.5917570  12.9864218  60.3714214  93.1394395
  12.3562878  61.0530494  93.3729792  12.8800306  60.2597295  92.1947533
   8.2809190  60.0386010  84.0660319   7.4908244  60.2943538  83.5900430
   8.7720438  60.8534347  84.1712360  10.2323936  60.4030589  81.0243796
   9.4355099  60.5149283  81.5427292  10.0049528  60.7417241  80.1584687
  16.0629603  66.9275292  88.9726311  16.1274036  67.3895699  89.8084482
  15.3540527  66.2972657  89.1008620   6.5646893  60.2916500  86.4975310
   6.8154932  61.1763510  86.7632886   7.1006442  60.1121102  85.7250402
  15.7777621  68.5943400  78.8405291  15.6423296  69.4394935  79.2690139
  16.3187434  68.7962677  78.0771225  12.2644961  54.6734979  95.5019646
  11.8711906  54.1201178  96.1767290  13.0811101  54.9845558  95.8926164
   9.2307018  66.1118838  79.4133216   9.7431539  66.9062088  79.5638781
   9.8829731  65.4145128  79.3466818  11.0401903  69.2284594  81.4955969
  11.2168531  70.1502559  81.3076953  11.8358737  68.9143013  81.9250349
  15.1812922  56.0892859  93.0939903  15.9222635  56.6900012  93.0144365
  15.4130844  55.3470496  92.5357945  10.3254260  61.2749226  91.3718132
  10.2107775  60.3734483  91.6725231   9.4698777  61.5212923  91.0202949
  17.4046097  69.2166966  92.9705633  16.9609952  68.4303345  92.6526538
  18.0663311  69.4046117  92.3049524  12.1633219  70.7462768  87.4966312
  12.7140644  70.6179831  86.7243305  11.3244694  71.0457657  87.1461204
  19.5027335  69.4969766  90.9987034  19.4845811  70.3178647  90.5067303
  20.4247256  69.3723841  91.2237175  15.9600390  67.0113895  91.8410543
  16.4928726  66.2502184  91.6109851  15.4314471  66.7187547  92.5834697
  19.1270085  52.1173961  87.3704184  18.7834354  53.0075603  87.2943295
  19.4949047  51.9275619  86.5073769   7.1955935  64.4407492  80.1892787
   8.0331157  64.8504500  79.9726494   7.3734203  63.5006934  80.1592980
  18.2066625  54.4878617  85.3353418  17.7031421  54.4508752  84.5221223
  18.4997232  55.3971359  85.3950074  14.4509511  54.5717346  84.3419599
  15.3162508  54.3760155  83.9825489  14.5187020  54.3427698  85.2688956
  17.3253102  66.1399888  79.3529355  16.7974464  65.4052648  79.0402592
  16.8240605  66.9174564  79.1069323  12.0571830  56.8019554  81.7135966
  12.6315582  56.5794736  80.9809159  12.6442812  56.8708249  82.4664568
  12.3841417  58.8324015  75.7331851  11.5478729  59.1698702  76.0541126
  12.2446187  58.6972995  74.7958988  14.3594498  53.6760803  80.4411036
  13.7058910  53.3609820  79.8167650  14.3174972  53.0536544  81.1670859
  15.4705702  63.9580098  72.3564328  14.5632764  63.7269352  72.5555477
  15.9676734  63.1617717  72.5438309  17.5932238  60.1642737  84.7658683
  16.6754799  60.3857684  84.6080371  18.0092382  60.2389047  83.9070391
  16.6493936  64.0592693  76.8788318  15.7405155  63.7751726  76.9760788
  16.6789020  64.4791772  76.0191625  20.9257750  51.3767521  82.4721922
  21.2316627  50.5164884  82.1847837  21.6510355  51.9685141  82.2720916
   7.2182106  61.7798207  80.8603520   7.0206506  61.1867568  80.1354587
   6.6628770  61.4750417  81.5779459  15.1978830  61.6721314  82.9798113
  15.2527440  60.7195150  82.9040590  14.3870032  61.8280753  83.4639412
  16.3470024  65.6001437  74.2176396  15.9089454  64.8837296  73.7582034
  17.0880465  65.8277552  73.6561488  15.2879768  70.2856130  82.6722757
  15.2455947  70.5116977  81.7431289  16.2042467  70.0519505  82.8208558
  18.7345402  60.7540198  89.5703386  19.0894789  60.9811671  90.4297852
  19.3817533  61.0858575  88.9480641  12.6285265  57.8616729  86.3549727
  13.2684644  57.7205488  85.6572690  11.7962795  57.5751242  85.9788329
  13.4045569  67.1619159  82.4684719  14.1986167  66.6669480  82.2667294
  12.6937261  66.6337023  82.1052425  18.2240413  69.5437255  86.8197087
  18.2777435  70.1128191  87.5874803  17.3555194  69.7139140  86.4551124
   9.7128332  61.3062241  78.5444472   8.7825920  61.2446697  78.7614434
   9.8085804  60.7838194  77.7481113   9.6313881  57.8317054  81.1322714
   9.8920698  58.7462387  81.0231874  10.4531053  57.3641497  81.2819327
  11.1038806  59.2454811  88.3021538  11.7761860  59.0372173  87.6534187
  10.2768593  59.0476897  87.8626771  17.0064378  55.8716752  90.3187199
  16.3592293  56.5706702  90.2251676  17.7765394  56.3052896  90.6863447
  17.1828513  63.7097517  88.3784019  18.1120573  63.8608677  88.2052986
  16.7619543  63.7981538  87.5232665  15.9816845  67.7348181  86.1482557
  15.8427930  67.3666966  87.0208495  15.1931441  68.2495821  85.9766514
  17.5322060  67.1129784  83.5371394  17.1971892  67.0730554  84.4329044
  17.0326005  66.4474500  83.0641805  11.5066304  62.5197414  89.0623975
  11.3686102  61.7877653  89.6635515  12.4171227  62.4306314  88.7808163
  14.1348604  62.2317373  88.5507655  14.8448223  61.5910566  88.5094274
  14.0917912  62.4830268  89.4733836  12.8477538  59.2182591  90.3703295
  12.3114895  58.7673330  91.0224891  12.2594247  59.3528500  89.6273759
  12.2579797  58.6771243  72.9329758  11.3809264  58.5560043  72.5692005
  12.7337550  57.8857321  72.6808647   3.7781937  63.4648402  83.0271265
   4.4652977  63.1510132  82.4392281   3.6230066  64.3689767  82.7538517
   8.5816660  58.3538599  87.4556289   8.4974848  57.7464269  86.7206699
   7.7599366  58.8447617  87.4565785  15.6553944  71.7925763  86.6689457
  15.5824115  72.5980735  87.1808762  15.2131337  71.9917729  85.8437479
  15.3375342  58.9809546  82.5498169  14.9673130  58.4280586  83.2379074
  15.8334435  58.3767679  81.9973169  13.1664541  69.4407041  89.6453187
  13.8674000  70.0743524  89.7982581  12.6959656  69.7821772  88.8848826
  21.1959368  53.8061756  84.9705843  20.2822448  54.0365983  85.1388050
  21.6252470  53.8900200  85.8219875  20.9665827  61.9951648  87.4705737
  20.3137277  62.2427555  86.8158190  21.3446207  61.1815786  87.1368214
  17.0153400  62.7371459  93.9571774  16.3394037  62.6365588  94.6274149
  17.8381034  62.5810673  94.4207771   8.7632259  68.9743396  86.5784289
   9.3485696  68.2287083  86.7112194   8.5657097  69.2847352  87.4620953
  11.6170914  72.0094643  81.5946732  10.9481289  72.4940771  81.1110772
  11.4783784  72.2563863  82.5090110   3.3549914  61.5448996  85.2988733
   3.3934013  61.0112586  86.0925851   2.8490206  61.0184201  84.6799710
  15.7576183  74.0438387  88.1929390  16.3094491  74.2070008  88.9578475
  16.0982376  74.6342824  87.5209415  10.7340676  56.3913536  88.7951275
  10.7982002  57.2528367  88.3828673  10.6707796  55.7787538  88.0623633
  10.2092948  58.4636669  92.4424309  10.8364987  58.0813746  93.0561833
   9.3520867  58.2450871  92.8080002   6.9858491  60.2713098  78.3742664
   7.2811932  59.3623776  78.3209718   6.0846527  60.2500837  78.0523666
  10.5152738  58.3469095  84.3570213   9.7939324  58.9605062  84.2177686
  11.3045994  58.8826859  84.2786858  13.3179052  55.6823521  90.6310864
  13.8413453  55.9285818  91.3937174  13.0991385  56.5143556  90.2114002
   8.7146333  57.9527196  78.4981989   8.3859039  57.0724575  78.3157095
   9.0685703  57.8974864  79.3858378  17.9625912  69.5882098  83.0076975
  17.8150874  68.6598806  83.1884545  18.7879405  69.6102189  82.5234050
  11.8288156  58.2400165  78.8657467  12.1684228  58.7686087  78.1436075
  12.2760276  58.5780572  79.6416033  14.5231597  56.6237216  88.3160535
  14.1828417  55.8245029  88.7181215  13.8170603  56.9238927  87.7437368
  15.1748068  53.7086529  86.7687858  15.9974138  53.2347007  86.6466748
  15.4186132  54.4877012  87.2686544  13.8156303  56.7374787  77.0650760
  14.5364665  57.1156040  76.5614476  13.1921607  57.4563664  77.1685737
  12.6986647  60.4005649  84.5779836  12.5531228  60.7145952  85.4704118
  12.2211851  61.0190550  84.0250735  14.5583030  57.3908197  84.6260726
  14.5444599  56.4949290  84.2893024  15.2755458  57.3978861  85.2599012
  16.4109161  57.8245537  86.6713853  16.1526939  58.7462608  86.6698184
  15.8794201  57.4275972  87.3614318   7.1732309  62.9410994  87.5167498
   6.6285777  63.7170802  87.6487772   8.0511659  63.2881798  87.3586619
  13.9619926  56.2722577  79.8948296  14.0835837  55.3439224  80.0939184
  13.6721968  56.2861263  78.9826612  16.8311116  53.9577488  83.0315016
  16.8532813  54.0216821  82.0766996  17.2479175  53.1181997  83.2255522
   7.9598331  62.0680890  90.4097654   7.2180067  62.2163525  90.9962285
   7.6391076  62.3289155  89.5464404  15.9041994  71.6096868  90.2078044
  16.2129120  71.3646015  91.0800744  16.7017476  71.8143507  89.7196915
   8.4054945  69.9546319  82.4408049   9.2312965  69.6550090  82.0606693
   8.0548997  69.1853941  82.8897838  13.3736478  69.3072787  84.5105723
  12.7516487  68.6443492  84.2107951  14.0441345  69.3333919  83.8279370
   6.6063550  67.8732645  83.3996983   5.7695458  67.4454819  83.2180984
   6.5787195  68.0665088  84.3367774  13.4461006  57.7854575  94.1038229
  13.4949161  58.6616698  93.7215998  13.9883520  57.2431968  93.5309872
  12.9349985  67.8576710  77.9864183  13.0838105  68.5412175  77.3330856
  13.7416428  67.8381800  78.5013639  21.3417489  61.1619092  92.0131401
  22.2427351  61.0225557  91.7215399  21.4165463  61.3273547  92.9529579
  15.6760294  58.5385947  90.8584587  14.8063603  58.8319513  90.5867176
  15.9119774  59.1226392  91.5791851  10.6902618  63.8841888  78.9925252
  10.4448660  62.9804218  79.1905462  10.8598533  63.8859038  78.0504730
  18.3799328  54.7565564  88.3750008  18.8981272  55.4926591  88.0496496
  18.0254461  55.0629557  89.2096767   9.9598266  59.6170245  76.4911414
   9.2667510  59.6914600  75.8351450   9.7150017  58.8530589  77.0132931
  18.6311922  51.1765847  83.8950904  18.9113676  50.5089036  84.5211331
  19.4162529  51.3694942  83.3825568  22.5020780  59.5983481  87.6422479
  23.4538203  59.6981578  87.6634704  22.3324231  58.8061749  88.1520564
  20.5235160  56.6839064  87.8281880  19.9285092  56.9644077  87.1328369
  20.2384857  57.1732965  88.5998622  16.8192189  61.6885653  72.7991983
  17.7651294  61.5591861  72.8680401  16.4406434  60.9500315  73.2761411
  22.7914074  53.3541659  82.7618875  22.5938895  53.0456748  83.6462207
  23.4013779  54.0803298  82.8916805  16.7030882  65.7403399  94.2592640
  17.6233891  65.9181998  94.4532687  16.6680465  64.7959445  94.1072339
  15.0035106  59.6135630  72.7346868  14.0966562  59.3168742  72.8109582
  15.2811087  59.3165448  71.8681155   5.9213047  60.9341993  83.1845915
   5.6015831  60.0807301  82.8920289   5.3746475  61.1490571  83.9403882
   9.6992954  63.6504434  86.9015421   9.9178964  64.5821542  86.9203455
  10.1118728  63.2912409  87.6870225  16.6197172  54.1572519  78.8891110
  15.8097900  53.8119604  79.2646356  17.3081589  53.8480063  79.4778721
  18.5487720  53.2350566  80.5115406  19.1018759  53.6546020  81.1705429
  18.7857807  52.3086314  80.5538362  14.5720819  59.2237640  96.2918170
  14.4717546  60.1731997  96.2230261  14.3542361  58.8955879  95.4194240
  13.7733891  56.4722565  72.8758848  14.6353055  56.7977463  73.1354665
  13.9584235  55.6854061  72.3631913   5.7901307  64.5544905  85.1539036
   5.0964778  64.1398857  84.6408991   6.5374298  64.5965441  84.5572455
  21.9266527  55.3451091  80.0194071  21.3465196  56.0035895  79.6372123
  21.6602460  54.5228436  79.6081488  20.3770094  54.7456149  82.2215391
  20.8769872  54.8572684  81.4129710  21.0205702  54.4417202  82.8616199
  14.4352090  62.6534779  95.1083232  13.9519171  63.4535139  95.3147121
  14.5213029  62.6642724  94.1550676   7.7038049  64.4863158  83.0305051
   7.6808737  64.5850846  82.0786934   8.0138686  65.3328309  83.3522217
  10.3625427  66.5439313  87.1451666  11.3168681  66.5123256  87.0781597
  10.1637951  66.0829937  87.9601892  10.9524809  65.1140429  89.7122463
  11.7717698  65.6084508  89.7357301  11.2261617  64.1972398  89.6840031
  24.0605941  57.5297703  82.7904758  24.8366332  58.0194155  83.0629375
  23.3354076  57.9555757  83.2476628   8.7175656  72.0858933  84.1621864
   8.5830124  71.3259334  83.5959862   8.3007718  72.8099833  83.6950652
   6.2059723  59.4478563  90.4114660   6.8518587  58.9377517  90.9001886
   5.9976874  60.1847245  90.9858086  18.7313116  66.5159411  95.9106801
  19.6004275  66.6900063  95.5493436  18.2519867  67.3353828  95.7882530
  14.7263334  53.7118608  76.1638557  14.7142004  54.6560448  76.3206827
  15.6186756  53.5288753  75.8698018  18.5415453  50.3061385  80.4184493
  17.7747849  49.7519871  80.5641176  18.9526158  50.3783253  81.2798645
  10.5457214  56.5946180  94.5089675  11.4088676  56.2382985  94.7192999
   9.9722625  56.2560075  95.1965079  28.2439852  84.5458884  92.9705633
  27.8003706  83.7595262  92.6526538  28.9057065  84.7338034  92.3049524
  30.3421090  84.8261684  90.9987034  30.3239565  85.6470565  90.5067303
  31.2641010  84.7015759  91.2237175  36.3925678  82.9277024  90.9414116
  36.1010486  83.2907004  91.7777577  35.7797809  82.2144032  90.7627448
  40.8057594  82.7757797  87.3704184  40.4621863  83.6659438  87.2943295
  41.1736556  82.5859454  86.5073769  38.6851887  86.5300587  90.3187199
  38.0379802  87.2290537  90.2251676  39.4552903  86.9636731  90.6863447
  42.8746877  84.4645591  84.9705843  41.9609957  84.6949818  85.1388050
  43.3039979  84.5484035  85.8219875  32.4128185  87.0497372  88.7951275
  32.4769511  87.9112203  88.3828673  32.3495305  86.4371373  88.0623633
  34.9966561  86.3407356  90.6310864  35.5200962  86.5869653  91.3937174
  34.7778894  87.1727391  90.2114002  40.0586837  85.4149400  88.3750008
  40.5768781  86.1510426  88.0496496  39.7041970  85.7213393  89.2096767
  44.4701583  84.0125495  82.7618875  44.2726404  83.7040583  83.6462207
  45.0801288  84.7387134  82.8916805  32.2244723  87.2530016  94.5089675
  33.0876185  86.8966821  94.7192999  31.6510134  86.9143911  95.1965079
  52.0693100 108.8831872  85.3152076  52.7071510 108.7638619  84.6115416
  51.9513943 109.8312716  85.3740028  48.8782807 108.8359300  85.2513600
  48.5401318 108.7200365  84.3634135  49.7472575 108.4350465  85.2314606
  44.7369622 110.6894777  81.2410491  44.1734487 110.5984714  80.4726779
  44.6222017 109.8694681  81.7212984  49.3602590 109.9894152  91.2099806
  49.3491230 109.5946950  90.3380310  49.5223229 109.2560225  91.8033577
  42.2834054 112.1845968  84.0794712  43.0755346 111.8436793  83.6641011
  42.5230704 112.2940943  84.9996865  50.3169181 114.3565744  76.5524956
  49.6657161 114.9419825  76.1658970  51.1113544 114.8871939  76.6119994
  44.2424808 111.4454882  76.9512091  45.0155684 110.8983869  76.8124966
  44.5950207 112.3099131  77.1626552  46.0809851 112.7731264  90.1578990
  45.7899717 113.6776895  90.0425656  46.7166835 112.8147791  90.8723059
  47.0066058 110.1508112  86.7480349  47.6029630 109.9264135  86.0337312
  47.0641029 109.4092858  87.3505797  46.5791086 107.6047548  74.5830540
  46.8316607 107.0829069  73.8214003  45.6415645 107.4413693  74.6857224
  51.6234369 106.6083326  82.3905284  52.4097458 106.1902749  82.0395701
  51.8873073 107.5129418  82.5586932  51.7944446 112.0456176  77.0893941
  51.1590279 112.1190803  77.8014845  51.4641853 112.6349775  76.4113020
  46.2987375 109.5075654  76.7854915  46.1823633 108.8320557  77.4536000
  46.4089635 109.0208028  75.9687068  48.6418916 108.9685801  80.4901605
  48.2777123 108.4416422  81.2014526  49.4986032 108.5784270  80.3168090
  51.0399736 112.4592679  87.1528784  50.7400459 113.3617718  87.0444591
  50.6950795 112.1924863  88.0049936  54.4396880 104.9775219  84.8326221
  53.5313757 104.9090628  84.5384982  54.3884475 105.4547164  85.6608046
  46.0220516 119.2237000  80.1199751  45.9444545 120.1744825  80.1988232
  45.4182159 118.8782872  80.7774678  53.9598690 106.9254831  77.2989954
  54.8716546 107.1582218  77.1237652  53.4508337 107.5091875  76.7365033
  52.2439457 111.3479459  90.9351247  52.6522813 110.9061869  90.1905879
  51.5216719 110.7732086  91.1885440  52.5668272 111.9080650  84.6903535
  51.9377134 112.0726364  83.9879603  52.1793934 112.3222259  85.4614500
  56.4457504 112.8435087  82.0447899  55.7608542 113.2233989  81.4944933
  56.5301353 113.4530414  82.7779847  53.7008435 110.4895046  88.6443243
  53.9125331 111.1326806  87.9677624  53.6538184 109.6557363  88.1765173
  48.1196234 111.6455058  81.9553621  48.5834579 111.9242761  81.1658243
  47.8553032 110.7438502  81.7726711  45.0120315 111.1926539  84.8933384
  45.5821672 111.6213808  84.2550868  45.6028427 110.9109124  85.5917570
  47.0565120 107.7678210  78.7643186  47.7589163 108.2199254  79.2317112
  46.7245748 107.1262029  79.3923079  54.8154263 113.3667002  86.8165600
  55.6371707 112.9647189  86.5348282  54.8116666 113.2635236  87.7681716
  48.5810867 112.9151045  88.9726311  48.6455299 113.3771452  89.8084482
  47.8721791 112.2848410  89.1008620  48.2958884 114.5819153  78.8405291
  48.1604559 115.4270688  79.2690139  48.8368697 114.7838430  78.0771225
  41.7488282 112.0994591  79.4133216  42.2612802 112.8937841  79.5638781
  42.4010995 111.4020881  79.3466818  43.5583167 115.2160347  81.4955969
  43.7349795 116.1378312  81.3076953  44.3540000 114.9018766  81.9250349
  49.9227361 115.2042719  92.9705633  49.4791215 114.4179098  92.6526538
  50.5844574 115.3921870  92.3049524  44.6814482 116.7338521  87.4966312
  45.2321907 116.6055584  86.7243305  43.8425958 117.0333410  87.1461204
  52.0208599 115.4845519  90.9987034  52.0027074 116.3054400  90.5067303
  52.9428519 115.3599594  91.2237175  48.4781653 112.9989649  91.8410543
  49.0109990 112.2377937  91.6109851  47.9495734 112.7063300  92.5834697
  39.7137199 110.4283245  80.1892787  40.5512421 110.8380253  79.9726494
  39.8915466 109.4882687  80.1592980  51.6101631 108.0958326  75.8776620
  51.0948254 108.8662930  76.1165007  51.3378939 107.4223462  76.5009681
  56.5835905 110.8490680  77.8129793  55.8065348 110.5101840  77.3684955
  57.2627386 110.8543303  77.1384758  51.3987934 105.9685418  77.7036401
  51.0938070 106.2831567  78.5546544  52.3518376 106.0466838  77.7463734
  49.8434366 112.1275641  79.3529355  49.3155727 111.3928401  79.0402592
  49.3421869 112.9050317  79.1069323  54.8227212 110.3224661  84.4696401
  54.1650886 111.0123923  84.5576530  55.6267611 110.7121093  84.8130387
  53.6332671 108.6769034  82.5200343  54.1464552 109.3099026  83.0222052
  54.2833894 108.0770230  82.1543703  47.9886966 109.9455851  72.3564328
  47.0814028 109.7145105  72.5555477  48.4857998 109.1493471  72.5438309
  50.8955045 118.6553358  75.2761014  50.2216744 118.9585055  75.8845972
  51.2820867 119.4582439  74.9266471  50.1113501 106.1518490  84.7658683
  49.1936063 106.3733437  84.6080371  50.5273645 106.2264800  83.9070391
  50.8948549 107.5509905  79.8961364  51.6420368 108.0631303  79.5868486
  51.1640139 107.2293958  80.7565757  49.1675199 110.0468446  76.8788318
  48.2586419 109.7627479  76.9760788  49.1970283 110.4667525  76.0191625
  54.3994467 113.6575036  80.6479485  53.9456794 112.8165946  80.7044676
  53.7688434 114.2936434  80.9854266  53.3427386 104.5867022  81.8780153
  52.6050143 104.0744408  82.2090395  53.5954160 104.1467403  81.0663430
  52.8427406 115.4951532  81.5829304  53.1350380 116.0556589  80.8641669
  53.3526027 115.7880093  82.3382463  48.8651287 111.5877190  74.2176396
  48.4270717 110.8713049  73.7582034  49.6061728 111.8153305  73.6561488
  47.8061031 116.2731883  82.6722757  47.7637210 116.4992730  81.7431289
  48.7223730 116.0395258  82.8208558  56.9824402 109.8634387  80.2752715
  56.8442301 110.0535983  79.3473904  56.6260621 110.6253770  80.7320766
  57.0093782 111.9310914  85.2863986  57.4430288 111.8386203  86.1347041
  57.7225362 111.9068414  84.6484002  45.9226832 113.1494912  82.4684719
  46.7167431 112.6545233  82.2667294  45.2118524 112.6212776  82.1052425
  50.7421676 115.5313008  86.8197087  50.7958699 116.1003944  87.5874803
  49.8736458 115.7014893  86.4551124  57.8709331 111.9734614  87.8196872
  58.0645221 112.8780425  88.0656147  57.7709949 111.5142034  88.6535457
  52.9324440 112.1241357  93.3937752  52.7809946 111.8951909  92.4767836
  52.9229119 113.0811959  93.4069097  49.7009776 109.6973270  88.3784019
  50.6301836 109.8484430  88.2052986  49.2800806 109.7857291  87.5232665
  48.4998108 113.7223934  86.1482557  48.3609194 113.3542719  87.0208495
  47.7112704 114.2371574  85.9766514  49.0946260 118.8233031  77.4908093
  49.2698016 118.3521074  78.3053716  48.4079048 119.4498797  77.7189354
  50.0503323 113.1005537  83.5371394  49.7153156 113.0606307  84.4329044
  49.5507269 112.4350253  83.0641805  52.9862515 110.4461571  73.8108454
  52.3691685 109.7208400  73.7141507  52.5179003 111.2070932  73.4675528
  54.6416646 115.1560480  91.4714234  54.5829193 114.4719700  90.8044817
  55.0436165 115.8979470  91.0194860  43.6607345 121.9722394  84.2647953
  43.9003943 122.6040918  84.9426972  42.8176542 121.6210434  84.5513312
  54.6434054 113.1200064  89.7028214  53.7560833 112.7825986  89.8254613
  55.2132605 112.3883095  89.9396979  48.1735207 117.7801516  86.6689457
  48.1005379 118.5856488  87.1808762  47.7312600 117.9793482  85.8437479
  47.9624987 117.0173286  80.1792279  47.1792509 117.5594966  80.2730503
  48.6617732 117.5347266  80.5786520  50.6333891 117.6788350  88.8247616
  51.3461863 118.3135815  88.7523517  50.1423919 117.7752216  88.0087618
  52.3551418 111.5839603  80.3964908  51.4207696 111.7041065  80.2269612
  52.5328086 110.6812070  80.1324917  45.6845804 115.4282794  89.6453187
  46.3855264 116.0619277  89.7982581  45.2140919 115.7697525  88.8848826
  53.8100200 113.7700743  77.9301094  54.0860044 113.6557338  78.8394968
  52.9404699 113.3718228  77.8913267  53.4847090 107.9827401  87.4705737
  52.8318540 108.2303308  86.8158190  53.8627470 107.1691539  87.1368214
  50.4454264 118.0187094  81.5733907  50.6276659 117.2008750  82.0361660
  51.2687250 118.2354786  81.1358797  50.7796430 116.9455279  78.8348956
  51.3084196 116.4347734  78.2219118  51.0424649 116.6297810  79.6994489
  49.5334663 108.7247212  93.9571774  48.8575300 108.6241341  94.6274149
  50.3562297 108.5686426  94.4207771  41.2813522 114.9619149  86.5784289
  41.8666959 114.2162837  86.7112194  41.0838361 115.2723105  87.4620953
  44.1352177 117.9970396  81.5946732  43.4662553 118.4816524  81.1110772
  43.9965047 118.2439616  82.5090110  48.2757446 120.0314140  88.1929390
  48.8275754 120.1945761  88.9578475  48.6163640 120.6218577  87.5209415
  53.1268320 114.8575397  94.0478045  53.6708224 115.4705355  93.5532999
  52.5455165 115.4154975  94.5645058  51.4125833 117.9796115  85.1793072
  51.2876973 117.1785855  84.6704018  52.0704924 118.4742308  84.6907042
  53.4760742 115.7805135  86.8072622  52.5291077 115.6610486  86.7350949
  53.8243515 114.8927633  86.8898884  50.4807175 115.5757851  83.0076975
  50.3332137 114.6474559  83.1884545  51.3060669 115.5977942  82.5234050
  54.0841297 116.3986410  84.0941847  55.0087844 116.1929271  83.9566298
  53.9156600 116.1502811  85.0031189  53.8736613 116.9172078  79.4503939
  54.0473491 116.3518500  78.6977791  54.3665504 117.7172972  79.2683429
  54.8611786 116.2338842  76.5500837  55.5562690 116.8545535  76.7688152
  55.2034936 115.3834193  76.8253215  56.7603209 113.6838547  78.0788168
  57.2854533 114.0225820  77.3537488  56.6725561 112.7485563  77.8951302
  48.4223257 117.5972621  90.2078044  48.7310384 117.3521768  91.0800744
  49.2198739 117.8019260  89.7196915  48.4443869 119.7510531  82.4383421
  48.0048860 119.2586909  83.1316278  49.1951986 119.2083498  82.1975496
  40.9236208 115.9422072  82.4408049  41.7494228 115.6425843  82.0606693
  40.5730260 115.1729694  82.8897838  45.8917742 115.2948540  84.5105723
  45.2697751 114.6319245  84.2107951  46.5622608 115.3209672  83.8279370
  39.1244813 113.8608398  83.3996983  38.2876722 113.4330572  83.2180984
  39.0968459 114.0540841  84.3367774  56.4497115 114.3171451  93.3839366
  55.6592658 114.2995590  92.8443865  56.2130469 114.8559745  94.1388402
  56.5694990 111.1663917  90.6972094  56.6192995 111.0013925  91.6387617
  56.4608913 110.2991177  90.3069975  45.4531248 113.8452463  77.9864183
  45.6019369 114.5287928  77.3330856  46.2597692 113.8257553  78.5013639
  58.0713187 113.5860859  90.9414116  57.7797995 113.9490840  91.7777577
  57.4585318 112.8727867  90.7627448  59.2708869 111.1513739  83.4616686
  60.1055760 111.5903543  83.6254246  59.4067998 110.6752392  82.6424932
  56.3200375 108.7093474  89.4094174  56.7954496 108.9021120  88.6013025
  55.3965940 108.7652659  89.1637558  48.9526654 116.3400594  75.4575931
  48.3800621 116.9590781  75.0046403  49.5259448 116.8899955  75.9915853
  52.1723914 116.6237744  76.5884513  53.1054587 116.5583305  76.7917388
  52.0847127 117.4594011  76.1299046  54.8011930 115.9403614  73.5488461
  54.7225562 115.6063478  74.4424218  55.6221597 116.4325382  73.5479933
  49.3373453 107.6761406  72.7991983  50.2832557 107.5467614  72.8680401
  48.9587697 106.9376068  73.2761411  49.2212145 111.7279153  94.2592640
  50.1415155 111.9057752  94.4532687  49.1861728 110.7835198  94.1072339
  38.3082570 110.5420658  85.1539036  37.6146041 110.1274610  84.6408991
  39.0555561 110.5841194  84.5572455  54.4447791 101.3326844  80.0194071
  53.8646460 101.9911648  79.6372123  54.1783723 100.5104189  79.6081488
  40.2219313 110.4738911  83.0305051  40.1990001 110.5726599  82.0786934
  40.5319949 111.3204062  83.3522217  53.2272669 103.4926935  79.0750419
  52.3398524 103.7776585  78.8570614  53.6426658 103.3320698  78.2277696
  41.2356919 118.0734686  84.1621864  41.1011387 117.3135087  83.5959862
  40.8188982 118.7975586  83.6950652  52.3715882 113.2571609  73.1698439
  53.0751732 113.4621612  73.7856094  51.6478531 113.8248371  73.4347522
  53.2013693 109.0081471  79.2900709  53.1448894 109.4650022  78.4508341
  53.7542035 108.2472155  79.1123552  44.3926045 118.9704003  84.3740306
  44.2758429 119.9149435  84.2718996  43.5718491 118.6677565  84.7626105
  54.2802580 113.6954139  75.2196899  55.1148184 113.2635337  75.0374374
  54.1186923 113.5236152  76.1473793  53.9348472 110.1986252  76.5853238
  53.8797276 110.0330523  75.6441682  53.3094527 110.9062285  76.7415428
  51.2494379 112.5035164  95.9106801  52.1185539 112.6775816  95.5493436
  50.7701130 113.3229581  95.7882530  45.4180559 119.6232265  87.5896235
  46.3207806 119.6555875  87.9062730  45.1917929 118.6932716  87.6042570
  47.1734161 118.3763251  84.2506313  46.2229792 118.3765113  84.1370686
  47.4766647 117.6295986  83.7342348  62.9086855 124.2123790  85.3152076
  63.5465265 124.0930537  84.6115416  62.7907698 125.1604634  85.3740028
  59.7176561 124.1651218  85.2513600  59.3795073 124.0492283  84.3634135
  60.5866329 123.7642383  85.2314606  55.5763377 126.0186694  81.2410491
  55.0128242 125.9276631  80.4726779  55.4615772 125.1986599  81.7212984
  60.1996344 125.3186070  91.2099806  60.1884985 124.9238868  90.3380310
  60.3616984 124.5852142  91.8033577  53.1227809 127.5137886  84.0794712
  53.9149101 127.1728711  83.6641011  53.3624459 127.6232861  84.9996865
  61.1562935 129.6857662  76.5524956  60.5050915 130.2711742  76.1658970
  61.9507298 130.2163857  76.6119994  55.0818563 126.7746799  76.9512091
  55.8549439 126.2275786  76.8124966  55.4343961 127.6391049  77.1626552
  56.9203605 128.1023181  90.1578990  56.6293471 129.0068812  90.0425656
  57.5560590 128.1439709  90.8723059  57.8459812 125.4800030  86.7480349
  58.4423384 125.2556052  86.0337312  57.9034784 124.7384775  87.3505797
  57.4184840 122.9339465  74.5830540  57.6710361 122.4120987  73.8214003
  56.4809400 122.7705611  74.6857224  62.4628123 121.9375244  82.3905284
  63.2491212 121.5194667  82.0395701  62.7266828 122.8421336  82.5586932
  62.6338201 127.3748094  77.0893941  61.9984034 127.4482720  77.8014845
  62.3035607 127.9641693  76.4113020  67.8636550 121.8750477  83.2938262
  68.5961722 121.3049694  83.5276092  67.1075906 121.4872077  83.7344768
  57.1381129 124.8367571  76.7854915  57.0217387 124.1612475  77.4536000
  57.2483389 124.3499945  75.9687068  59.4812670 124.2977718  80.4901605
  59.1170877 123.7708339  81.2014526  60.3379786 123.9076187  80.3168090
  65.3861971 115.5872051  87.7532871  65.0545296 116.4567462  87.5294086
  64.7907584 115.2708335  88.4326901  59.1218157 119.3267618  75.4862953
  59.2892559 120.1947854  75.8533424  58.9315326 119.4894900  74.5624242
  61.8793490 127.7884597  87.1528784  61.5794213 128.6909636  87.0444591
  61.5344550 127.5216780  88.0049936  55.3305972 124.2398394  83.1865488
  54.4056468 124.1074608  83.3943180  55.5790385 125.0192613  83.6835430
  65.2790634 120.3067137  84.8326221  64.3707511 120.2382546  84.5384982
  65.2278230 120.7839082  85.6608046  59.1007378 121.7825276  76.4709620
  58.9807003 122.2282326  77.3095100  58.4059966 122.1310593  75.9123158
  52.6914783 123.8831667  84.0209277  52.8207164 124.1366146  84.9348689
  52.0112234 124.4759375  83.7013932  56.8614270 134.5528917  80.1199751
  56.7838300 135.5036742  80.1988232  56.2575914 134.2074790  80.7774678
  59.3531500 121.7256783  92.7761118  58.5764834 122.2850703  92.7663983
  59.9922063 122.2113566  93.2975988  67.1452280 118.5083576  86.6104095
  66.5026661 118.8016109  85.9643889  66.6407209 118.3936496  87.4157291
  64.7992444 122.2546749  77.2989954  65.7110300 122.4874135  77.1237652
  64.2902091 122.8383793  76.7365033  57.6077872 124.5342236  92.3379085
  58.3492556 125.0727280  92.0613909  56.9014858 125.1608525  92.4950637
  63.0833212 126.6771377  90.9351247  63.4916568 126.2353787  90.1905879
  62.3610473 126.1024004  91.1885440  59.4364282 121.6143983  88.3084804
  60.2825477 122.0383397  88.4519453  59.3762919 120.9577608  89.0023367
  63.4062026 127.2372567  84.6903535  62.7770889 127.4018281  83.9879603
  63.0187688 127.6514177  85.4614500  67.2851258 128.1727005  82.0447899
  66.6002296 128.5525906  81.4944933  67.3695108 128.7822332  82.7779847
  62.5863727 119.2748352  89.9665977  62.3424659 120.0290412  89.4300253
  62.8623658 119.6533699  90.8013224  64.5402190 125.8186964  88.6443243
  64.7519085 126.4618724  87.9677624  64.4931938 124.9849281  88.1765173
  62.1428419 118.4304785  85.5479815  61.2812898 118.7286038  85.8396553
  62.1690854 118.6475184  84.6160848  58.9589988 126.9746975  81.9553621
  59.4228334 127.2534678  81.1658243  58.6946786 126.0730420  81.7726711
  55.8514069 126.5218457  84.8933384  56.4215426 126.9505725  84.2550868
  56.4422181 126.2401042  85.5917570  57.8958874 123.0970128  78.7643186
  58.5982918 123.5491171  79.2317112  57.5639503 122.4553947  79.3923079
  56.3439236 121.6881884  93.1394395  55.7137896 122.3698165  93.3729792
  56.2375324 121.5764966  92.1947533  51.6384208 121.3553680  84.0660319
  50.8483262 121.6111209  83.5900430  52.1295456 122.1702018  84.1712360
  65.6548018 128.6958919  86.8165600  66.4765462 128.2939107  86.5348282
  65.6510421 128.5927154  87.7681716  53.5898954 121.7198260  81.0243796
  52.7930117 121.8316954  81.5427292  53.3624546 122.0584912  80.1584687
  59.4204621 128.2442963  88.9726311  59.4849054 128.7063370  89.8084482
  58.7115545 127.6140328  89.1008620  49.9221911 121.6084171  86.4975310
  50.1729950 122.4931181  86.7632886  50.4581460 121.4288772  85.7250402
  73.7454011 125.0397668  83.1650572  72.9917719 124.4705066  83.0094576
  73.8801552 125.0060332  84.1121206  59.1352639 129.9111070  78.8405291
  58.9998314 130.7562606  79.2690139  59.6762451 130.1130348  78.0771225
  55.6219979 115.9902650  95.5019646  55.2286924 115.4368849  96.1767290
  56.4386119 116.3013229  95.8926164  52.5882036 127.4286508  79.4133216
  53.1006557 128.2229759  79.5638781  53.2404749 126.7312799  79.3466818
  54.3976921 130.5452265  81.4955969  54.5743549 131.4670229  81.3076953
  55.1933755 130.2310684  81.9250349  58.5387940 117.4060529  93.0939903
  59.2797653 118.0067682  93.0144365  58.7705862 116.6638167  92.5357945
  53.6829278 122.5916896  91.3718132  53.5682793 121.6902154  91.6725231
  52.8273795 122.8380593  91.0202949  60.7621115 130.5334637  92.9705633
  60.3184970 129.7471015  92.6526538  61.4238329 130.7213787  92.3049524
  55.5208237 132.0630438  87.4966312  56.0715662 131.9347502  86.7243305
  54.6819712 132.3625327  87.1461204  62.8602353 130.8137437  90.9987034
  62.8420829 131.6346318  90.5067303  63.7822273 130.6891512  91.2237175
  59.3175408 128.3281566  91.8410543  59.8503744 127.5669854  91.6109851
  58.7889489 128.0355218  92.5834697  62.4845103 113.4341632  87.3704184
  62.1409372 114.3243274  87.2943295  62.8524065 113.2443290  86.5073769
  50.5530953 125.7575163  80.1892787  51.3906175 126.1672171  79.9726494
  50.7309221 124.8174605  80.1592980  62.4495385 123.4250243  75.8776620
  61.9342009 124.1954848  76.1165007  62.1772694 122.7515379  76.5009681
  60.0342496 118.2699944  80.9361858  59.1784093 117.8806794  80.7567497
  60.4469448 118.3491905  80.0761643  61.5641643 115.8046287  85.3353418
  61.0606439 115.7676422  84.5221223  61.8572250 116.7139030  85.3950074
  57.8084529 115.8885017  84.3419599  58.6737526 115.6927826  83.9825489
  57.8762038 115.6595369  85.2688956  67.4229659 126.1782598  77.8129793
  66.6459102 125.8393757  77.3684955  68.1021140 126.1835221  77.1384758
  62.2381688 121.2977335  77.7036401  61.9331824 121.6123485  78.5546544
  63.1912131 121.3758755  77.7463734  60.6828120 127.4567559  79.3529355
  60.1549482 126.7220318  79.0402592  60.1815623 128.2342235  79.1069323
  65.6620966 125.6516579  84.4696401  65.0044641 126.3415841  84.5576530
  66.4661366 126.0413011  84.8130387  55.4146848 118.1187225  81.7135966
  55.9890600 117.8962406  80.9809159  56.0017830 118.1875919  82.4664568
  64.4726425 124.0060952  82.5200343  64.9858307 124.6390944  83.0222052
  65.1227649 123.4062147  82.1543703  55.7416435 120.1491686  75.7331851
  54.9053747 120.4866373  76.0541126  55.6021205 120.0140666  74.7958988
  57.7169516 114.9928474  80.4411036  57.0633928 114.6777491  79.8167650
  57.6749990 114.3704214  81.1670859  58.8280720 125.2747769  72.3564328
  57.9207782 125.0437022  72.5555477  59.3251752 124.4785388  72.5438309
  61.7348799 133.9845276  75.2761014  61.0610498 134.2876973  75.8845972
  62.1214621 134.7874356  74.9266471  60.9507256 121.4810407  84.7658683
  60.0329817 121.7025354  84.6080371  61.3667400 121.5556718  83.9070391
  61.7342304 122.8801823  79.8961364  62.4814123 123.3923220  79.5868486
  62.0033893 122.5585876  80.7565757  60.0068954 125.3760364  76.8788318
  59.0980173 125.0919397  76.9760788  60.0364038 125.7959442  76.0191625
  65.2388221 128.9866953  80.6479485  64.7850548 128.1457863  80.7044676
  64.6082188 129.6228352  80.9854266  64.1821141 119.9158939  81.8780153
  63.4443898 119.4036326  82.2090395  64.4347914 119.4759321  81.0663430
  63.6821161 130.8243450  81.5829304  63.9744135 131.3848507  80.8641669
  64.1919781 131.1172011  82.3382463  64.2832768 112.6935191  82.4721922
  64.5891645 111.8332555  82.1847837  65.0085373 113.2852812  82.2720916
  50.5757124 123.0965878  80.8603520  50.3781524 122.5035239  80.1354587
  50.0203788 122.7918088  81.5779459  58.5553848 122.9888984  82.9798113
  58.6102458 122.0362821  82.9040590  57.7445050 123.1448423  83.4639412
  59.7045042 126.9169107  74.2176396  59.2664472 126.2004966  73.7582034
  60.4455483 127.1445222  73.6561488  56.4946208 121.6066044  80.7388492
  55.6814073 121.9060215  81.1453684  56.9905202 121.2121733  81.4562974
  58.6454786 131.6023801  82.6722757  58.6030965 131.8284647  81.7431289
  59.5617485 131.3687176  82.8208558  62.0920420 122.0707869  89.5703386
  62.4469807 122.2979342  90.4297852  62.7392551 122.4026245  88.9480641
  67.8218156 125.1926305  80.2752715  67.6836055 125.3827900  79.3473904
  67.4654375 125.9545687  80.7320766  55.9860283 119.1784400  86.3549727
  56.6259662 119.0373159  85.6572690  55.1537813 118.8918913  85.9788329
  67.8487536 127.2602832  85.2863986  68.2824043 127.1678121  86.1347041
  68.5619117 127.2360332  84.6484002  56.7620587 128.4786830  82.4684719
  57.5561185 127.9837150  82.2667294  56.0512279 127.9504693  82.1052425
  61.5815431 130.8604926  86.8197087  61.6352453 131.4295862  87.5874803
  60.7130212 131.0306811  86.4551124  53.0703350 122.6229912  78.5444472
  52.1400938 122.5614367  78.7614434  53.1660822 122.1005865  77.7481113
  52.9888899 119.1484725  81.1322714  53.2495716 120.0630058  81.0231874
  53.8106071 118.6809167  81.2819327  54.4613824 120.5622482  88.3021538
  55.1336878 120.3539844  87.6534187  53.6343611 120.3644568  87.8626771
  68.7103086 127.3026532  87.8196872  68.9038976 128.2072343  88.0656147
  68.6103704 126.8433951  88.6535457  60.3639396 117.1884423  90.3187199
  59.7167311 117.8874372  90.2251676  61.1340412 117.6220567  90.6863447
  63.7718194 127.4533275  93.3937752  63.6203701 127.2243827  92.4767836
  63.7622874 128.4103876  93.4069097  60.5403531 125.0265188  88.3784019
  61.4695591 125.1776347  88.2052986  60.1194561 125.1149208  87.5232665
  59.3391863 129.0515852  86.1482557  59.2002948 128.6834636  87.0208495
  58.5506459 129.5663492  85.9766514  59.9340014 134.1524949  77.4908093
  60.1091770 133.6812992  78.3053716  59.2472803 134.7790715  77.7189354
  60.8897078 128.4297455  83.5371394  60.5546910 128.3898225  84.4329044
  60.3901023 127.7642171  83.0641805  54.8641322 123.8365085  89.0623975
  54.7261120 123.1045324  89.6635515  55.7746245 123.7473985  88.7808163
  63.8256269 125.7753489  73.8108454  63.2085440 125.0500317  73.7141507
  63.3572758 126.5362849  73.4675528  57.4923622 123.5485044  88.5507655
  58.2023241 122.9078236  88.5094274  57.4492930 123.7997939  89.4733836
  65.4810401 130.4852397  91.4714234  65.4222947 129.8011618  90.8044817
  65.8829919 131.2271387  91.0194860  56.2052556 120.5350262  90.3703295
  55.6689913 120.0841000  91.0224891  55.6169265 120.6696171  89.6273759
  54.5001100 137.3014311  84.2647953  54.7397698 137.9332835  84.9426972
  53.6570296 136.9502351  84.5513312  55.6154815 119.9938913  72.9329758
  54.7384282 119.8727714  72.5692005  56.0912568 119.2024992  72.6808647
  65.4827808 128.4491981  89.7028214  64.5954587 128.1117903  89.8254613
  66.0526359 127.7175013  89.9396979  47.1356955 124.7816073  83.0271265
  47.8227995 124.4677803  82.4392281  46.9805084 125.6857438  82.7538517
  51.9391677 119.6706270  87.4556289  51.8549866 119.0631939  86.7206699
  51.1174384 120.1615288  87.4565785  59.0128962 133.1093434  86.6689457
  58.9399133 133.9148405  87.1808762  58.5706355 133.3085400  85.8437479
  58.8018741 132.3465204  80.1792279  58.0186263 132.8886884  80.2730503
  59.5011486 132.8639183  80.5786520  62.1115391 118.1559833  82.8226484
  62.6084091 117.4029796  82.5027554  61.3402373 118.1924150  82.2569693
  69.9645149 123.8600199  84.4644776  69.9535025 124.7424914  84.0938709
  69.0962528 123.5071750  84.2699313  61.4727645 133.0080268  88.8247616
  62.1855617 133.6427733  88.7523517  60.9817674 133.1044134  88.0087618
  63.1945172 126.9131520  80.3964908  62.2601451 127.0332983  80.2269612
  63.3721841 126.0103987  80.1324917  58.6950360 120.2977216  82.5498169
  58.3248148 119.7448257  83.2379074  59.1909453 119.6935350  81.9973169
  66.5817723 122.7548840  80.9314942  67.0478176 123.5876831  80.8575244
  67.0325224 122.2893821  81.6360200  56.5239559 130.7574711  89.6453187
  57.2249018 131.3911194  89.7982581  56.0534674 131.0989443  88.8848826
  64.6493955 129.0992661  77.9301094  64.9253798 128.9849256  78.8394968
  63.7798453 128.7010146  77.8913267  64.5534386 115.1229427  84.9705843
  63.6397466 115.3533654  85.1388050  64.9827488 115.2067871  85.8219875
  64.3240845 123.3119319  87.4705737  63.6712295 123.5595226  86.8158190
  64.7021225 122.4983457  87.1368214  61.2848019 133.3479012  81.5733907
  61.4670413 132.5300668  82.0361660  62.1081005 133.5646704  81.1358797
  61.6190184 132.2747197  78.8348956  62.1477950 131.7639652  78.2219118
  61.8818404 131.9589727  79.6994489  60.3728418 124.0539130  93.9571774
  59.6969055 123.9533259  94.6274149  61.1956052 123.8978343  94.4207771
  52.1207277 130.2911066  86.5784289  52.7060714 129.5454754  86.7112194
  51.9232115 130.6015023  87.4620953  54.9745932 133.3262314  81.5946732
  54.3056307 133.8108441  81.1110772  54.8358802 133.5731534  82.5090110
  46.7124931 122.8616667  85.2988733  46.7509031 122.3280257  86.0925851
  46.2065224 122.3351872  84.6799710  59.1151201 135.3606057  88.1929390
  59.6669509 135.5237679  88.9578475  59.4557394 135.9510495  87.5209415
  54.0915694 117.7081207  88.7951275  54.1557020 118.5696038  88.3828673
  54.0282814 117.0955209  88.0623633  53.5667966 119.7804340  92.4424309
  54.1940005 119.3981417  93.0561833  52.7095885 119.5618541  92.8080002
  63.9662075 130.1867315  94.0478045  64.5101979 130.7997273  93.5532999
  63.3848920 130.7446893  94.5645058  50.3433509 121.5880769  78.3742664
  50.6386950 120.6791447  78.3209718  49.4421545 121.5668508  78.0523666
  62.2519588 133.3088033  85.1793072  62.1270727 132.5077773  84.6704018
  62.9098679 133.8034226  84.6907042  53.8727756 119.6636765  84.3570213
  53.1514342 120.2772733  84.2177686  54.6621012 120.1994530  84.2786858
  64.3154496 131.1097053  86.8072622  63.3684832 130.9902404  86.7350949
  64.6637269 130.2219551  86.8898884  56.6754070 116.9991192  90.6310864
  57.1988471 117.2453488  91.3937174  56.4566403 117.8311227  90.2114002
  52.0721351 119.2694866  78.4981989  51.7434057 118.3892245  78.3157095
  52.4260721 119.2142535  79.3858378  61.3200930 130.9049769  83.0076975
  61.1725892 129.9766476  83.1884545  62.1454423 130.9269860  82.5234050
  55.1863174 119.5567836  78.8657467  55.5259246 120.0853757  78.1436075
  55.6335294 119.8948242  79.6416033  64.9235051 131.7278328  84.0941847
  65.8481599 131.5221189  83.9566298  64.7550355 131.4794729  85.0031189
  57.8806615 117.9404887  88.3160535  57.5403435 117.1412700  88.7181215
  57.1745621 118.2406598  87.7437368  58.5323086 115.0254199  86.7687858
  59.3549156 114.5514677  86.6466748  58.7761150 115.8044683  87.2686544
  57.1731321 118.0542458  77.0650760  57.8939683 118.4323710  76.5614476
  56.5496625 118.7731335  77.1685737  61.3162444 118.7587607  78.0009092
  61.5326058 119.6412245  77.6997920  60.8356511 118.3673820  77.2714734
  56.0561665 121.7173320  84.5779836  55.9106246 122.0313623  85.4704118
  55.5786869 122.3358220  84.0250735  57.9158048 118.7075868  84.6260726
  57.9019617 117.8116961  84.2893024  58.6330476 118.7146532  85.2599012
  59.7684179 119.1413208  86.6713853  59.5101957 120.0630279  86.6698184
  59.2369219 118.7443643  87.3614318  64.7130368 132.2463995  79.4503939
  64.8867245 131.6810418  78.6977791  65.2059259 133.0464890  79.2683429
  50.5307327 124.2578664  87.5167498  49.9860795 125.0338472  87.6487772
  51.4086677 124.6049469  87.3586619  57.3194944 117.5890248  79.8948296
  57.4410855 116.6606894  80.0939184  57.0296986 117.6028934  78.9826612
  60.1886134 115.2745159  83.0315016  60.2107831 115.3384492  82.0766996
  60.6054193 114.4349667  83.2255522  70.5669759 125.0100418  81.0694239
  71.0100905 124.2607743  80.6713362  69.6896269 125.0010555  80.6867971
  65.7005540 131.5630760  76.5500837  66.3956445 132.1837452  76.7688152
  66.0428690 130.7126111  76.8253215  51.3173349 123.3848561  90.4097654
  50.5755085 123.5331196  90.9962285  50.9966094 123.6456826  89.5464404
  67.5996963 129.0130465  78.0788168  68.1248287 129.3517738  77.3537488
  67.5119316 128.0777480  77.8951302  59.2617012 132.9264539  90.2078044
  59.5704138 132.6813686  91.0800744  60.0592494 133.1311177  89.7196915
  59.2837624 135.0802448  82.4383421  58.8442614 134.5878827  83.1316278
  60.0345741 134.5375416  82.1975496  51.7629963 131.2713989  82.4408049
  52.5887983 130.9717761  82.0606693  51.4124015 130.5021612  82.8897838
  56.7311496 130.6240458  84.5105723  56.1091505 129.9611163  84.2107951
  57.4016363 130.6501589  83.8279370  49.9638568 129.1900316  83.3996983
  49.1270476 128.7622490  83.2180984  49.9362213 129.3832759  84.3367774
  56.8036024 119.1022246  94.1038229  56.8524179 119.9784368  93.7215998
  57.3458538 118.5599639  93.5309872  67.2890869 129.6463369  93.3839366
  66.4986413 129.6287508  92.8443865  67.0524224 130.1851662  94.1388402
  67.4088744 126.4955835  90.6972094  67.4586749 126.3305843  91.6387617
  67.3002668 125.6283094  90.3069975  56.2925003 129.1744381  77.9864183
  56.4413123 129.8579845  77.3330856  57.0991446 129.1549471  78.5013639
  64.6992507 122.4786763  92.0131401  65.6002369 122.3393228  91.7215399
  64.7740481 122.6441218  92.9529579  59.0335312 119.8553618  90.8584587
  58.1638621 120.1487184  90.5867176  59.2694792 120.4394063  91.5791851
  68.9106941 128.9152777  90.9414116  68.6191749 129.2782757  91.7777577
  68.2979072 128.2019785  90.7627448  70.1102623 126.4805656  83.4616686
  70.9449515 126.9195461  83.6254246  70.2461752 126.0044310  82.6424932
  67.1594129 124.0385391  89.4094174  67.6348251 124.2313038  88.6013025
  66.2359695 124.0944577  89.1637558  54.0477636 125.2009558  78.9925252
  53.8023678 124.2971888  79.1905462  54.2173551 125.2026709  78.0504730
  61.7374346 116.0733235  88.3750008  62.2556290 116.8094262  88.0496496
  61.3829479 116.3797228  89.2096767  53.3173283 120.9337916  76.4911414
  52.6242528 121.0082271  75.8351450  53.0725035 120.1698260  77.0132931
  61.9886940 112.4933517  83.8950904  62.2688694 111.8256706  84.5211331
  62.7737547 112.6862613  83.3825568  59.7920409 131.6692511  75.4575931
  59.2194376 132.2882698  75.0046403  60.3653202 132.2191873  75.9915853
  65.8595798 120.9151151  87.6422479  66.8113221 121.0149249  87.6634704
  65.6899249 120.1229420  88.1520564  63.8810178 118.0006735  87.8281880
  63.2860110 118.2811747  87.1328369  63.5959875 118.4900636  88.5998622
  63.0117668 131.9529661  76.5884513  63.9448341 131.8875223  76.7917388
  62.9240881 132.7885928  76.1299046  65.6405685 131.2695532  73.5488461
  65.5619316 130.9355395  74.4424218  66.4615352 131.7617300  73.5479933
  68.3383876 124.1357271  86.7564779  68.3060196 123.1973272  86.9424463
  68.9484500 124.2141308  86.0230604  60.1767207 123.0053324  72.7991983
  61.1226312 122.8759532  72.8680401  59.7981452 122.2667986  73.2761411
  68.4878365 120.9268315  86.8023062  67.9717413 120.1426771  86.6152991
  69.3718313 120.5987031  86.9669582  66.1489092 114.6709330  82.7618875
  65.9513913 114.3624418  83.6462207  66.7588797 115.3970969  82.8916805
  74.1560426 125.1973278  85.8970816  74.8863814 124.9358566  86.4578519
  73.5467371 124.4602000  85.9372884  72.2375723 123.3381141  86.4945267
  71.5108887 123.2037105  85.8861759  71.8223010 123.6457969  87.3001985
  60.0605900 127.0571070  94.2592640  60.9808909 127.2349669  94.4532687
  60.0255483 126.1127116  94.1072339  58.3610124 120.9303300  72.7346868
  57.4541580 120.6336413  72.8109582  58.6386105 120.6333119  71.8681155
  49.2788065 122.2509664  83.1845915  48.9590849 121.3974972  82.8920289
  48.7321493 122.4658242  83.9403882  53.0567972 124.9672105  86.9015421
  53.2753982 125.8989213  86.9203455  53.4693746 124.6080079  87.6870225
  59.9772190 115.4740190  78.8891110  59.1672918 115.1287275  79.2646356
  60.6656607 115.1647734  79.4778721  61.9062738 114.5518237  80.5115406
  62.4593777 114.9713690  81.1705429  62.1432825 113.6253985  80.5538362
  57.9295837 120.5405311  96.2918170  57.8292564 121.4899668  96.2230261
  57.7117379 120.2123550  95.4194240  57.1308909 117.7890236  72.8758848
  57.9928073 118.1145134  73.1354665  57.3159253 117.0021732  72.3631913
  49.1476325 125.8712575  85.1539036  48.4539796 125.4566528  84.6408991
  49.8949316 125.9133112  84.5572455  65.2841545 116.6618762  80.0194071
  64.7040214 117.3203566  79.6372123  65.0177478 115.8396107  79.6081488
  63.7345112 116.0623820  82.2215391  64.2344890 116.1740354  81.4129710
  64.3780720 115.7584873  82.8616199  57.7927107 123.9702449  95.1083232
  57.3094189 124.7702810  95.3147121  57.8788047 123.9810394  94.1550676
  51.0613067 125.8030829  83.0305051  51.0383755 125.9018516  82.0786934
  51.3713704 126.6495980  83.3522217  53.7200445 127.8606984  87.1451666
  54.6743698 127.8290926  87.0781597  53.5212969 127.3997608  87.9601892
  54.3099827 126.4308100  89.7122463  55.1292716 126.9252179  89.7357301
  54.5836635 125.5140068  89.6840031  64.0666423 118.8218853  79.0750419
  63.1792278 119.1068503  78.8570614  64.4820412 118.6612616  78.2277696
  67.4180959 118.8465373  82.7904758  68.1941350 119.3361826  83.0629375
  66.6929094 119.2723428  83.2476628  69.8553518 119.5592993  83.8478699
  70.4498009 119.3188729  83.1372007  69.9280102 118.8400123  84.4752235
  52.0750674 133.4026604  84.1621864  51.9405142 132.6427005  83.5959862
  51.6582736 134.1267504  83.6950652  63.2109637 128.5863527  73.1698439
  63.9145487 128.7913530  73.7856094  62.4872286 129.1540289  73.4347522
  64.0407447 124.3373388  79.2900709  63.9842648 124.7941940  78.4508341
  64.5935789 123.5764073  79.1123552  67.8512253 120.1263120  80.1150829
  67.5949187 119.7259756  80.9459036  67.2265121 120.8406914  79.9900968
  72.1624591 122.8659194  82.6222120  71.6024149 122.9352383  83.3953682
  71.5568094 122.6900178  81.9021616  55.2319800 134.2995921  84.3740306
  55.1152184 135.2441353  84.2718996  54.4112246 133.9969482  84.7626105
  65.1196334 129.0246056  75.2196899  65.9541938 128.5927255  75.0374374
  64.9580677 128.8528070  76.1473793  64.7742226 125.5278170  76.5853238
  64.7191030 125.3622441  75.6441682  64.1488282 126.2354203  76.7415428
  49.5634741 120.7646234  90.4114660  50.2093605 120.2545188  90.9001886
  49.3551892 121.5014916  90.9858086  62.0888134 127.8327082  95.9106801
  62.9579293 128.0067734  95.5493436  61.6094885 128.6521498  95.7882530
  58.0838352 115.0286279  76.1638557  58.0717022 115.9728119  76.3206827
  58.9761774 114.8456424  75.8698018  56.2574314 134.9524183  87.5896235
  57.1601560 134.9847793  87.9062730  56.0311684 134.0224634  87.6042570
  58.0127916 133.7055169  84.2506313  57.0623547 133.7057031  84.1370686
  58.3160402 132.9587904  83.7342348  61.8990471 111.6229055  80.4184493
  61.1322867 111.0687542  80.5641176  62.3101176 111.6950924  81.2798645
  53.9032232 117.9113851  94.5089675  54.7663694 117.5550656  94.7192999
  53.3297643 117.5727746  95.1965079  73.7480609 139.5415707  85.3152076
  74.3859019 139.4222455  84.6115416  73.6301452 140.4896551  85.3740028
  70.5570316 139.4943136  85.2513600  70.2188827 139.3784200  84.3634135
  71.4260084 139.0934301  85.2314606  66.4157131 141.3478612  81.2410491
  65.8521996 141.2568549  80.4726779  66.3009526 140.5278516  81.7212984
  71.0390099 140.6477987  91.2099806  71.0278739 140.2530786  90.3380310
  71.2010738 139.9144060  91.8033577  63.9621563 142.8429804  84.0794712
  64.7542855 142.5020628  83.6641011  64.2018213 142.9524779  84.9996865
  65.9212317 142.1038717  76.9512091  66.6943193 141.5567704  76.8124966
  66.2737716 142.9682966  77.1626552  68.6853567 140.8091948  86.7480349
  69.2817139 140.5847970  86.0337312  68.7428538 140.0676693  87.3505797
  68.2578595 138.2631383  74.5830540  68.5104116 137.7412904  73.8214003
  67.3203154 138.0997528  74.6857224  73.3021878 137.2667161  82.3905284
  74.0884967 136.8486585  82.0395701  73.5660582 138.1713254  82.5586932
  73.4731955 142.7040012  77.0893941  72.8377788 142.7774638  77.8014845
  73.1429361 143.2933610  76.4113020  78.7030305 137.2042395  83.2938262
  79.4355477 136.6341611  83.5276092  77.9469661 136.8163995  83.7344768
  67.9774884 140.1659489  76.7854915  67.8611142 139.4904392  77.4536000
  68.0877144 139.6791863  75.9687068  70.3206425 139.6269636  80.4901605
  69.9564632 139.1000257  81.2014526  71.1773540 139.2368105  80.3168090
  76.2255725 130.9163969  87.7532871  75.8939050 131.7859380  87.5294086
  75.6301339 130.6000253  88.4326901  69.9611912 134.6559536  75.4862953
  70.1286314 135.5239772  75.8533424  69.7709081 134.8186817  74.5624242
  72.7187245 143.1176515  87.1528784  72.4187968 144.0201553  87.0444591
  72.3738304 142.8508698  88.0049936  66.1699726 139.5690311  83.1865488
  65.2450223 139.4366526  83.3943180  66.4184139 140.3484531  83.6835430
  76.1184389 135.6359055  84.8326221  75.2101266 135.5674463  84.5384982
  76.0671984 136.1131000  85.6608046  69.9401132 137.1117193  76.4709620
  69.8200758 137.5574244  77.3095100  69.2453721 137.4602511  75.9123158
  63.5308537 139.2123585  84.0209277  63.6600918 139.4658064  84.9348689
  62.8505989 139.8051293  83.7013932  70.1925254 137.0548700  92.7761118
  69.4158588 137.6142621  92.7663983  70.8315817 137.5405483  93.2975988
  77.9846035 133.8375493  86.6104095  77.3420415 134.1308026  85.9643889
  77.4800963 133.7228414  87.4157291  75.6386199 137.5838666  77.2989954
  76.5504055 137.8166053  77.1237652  75.1295846 138.1675711  76.7365033
  68.4471627 139.8634154  92.3379085  69.1886311 140.4019198  92.0613909
  67.7408612 140.4900443  92.4950637  73.9226966 142.0063294  90.9351247
  74.3310322 141.5645705  90.1905879  73.2004228 141.4315922  91.1885440
  70.2758036 136.9435901  88.3084804  71.1219232 137.3675315  88.4519453
  70.2156674 136.2869525  89.0023367  74.2455781 142.5664485  84.6903535
  73.6164643 142.7310199  83.9879603  73.8581443 142.9806094  85.4614500
  78.1245013 143.5018923  82.0447899  77.4396051 143.8817824  81.4944933
  78.2088862 144.1114249  82.7779847  73.4257482 134.6040269  89.9665977
  73.1818414 135.3582330  89.4300253  73.7017412 134.9825617  90.8013224
  75.3795944 141.1478882  88.6443243  75.5912840 141.7910642  87.9677624
  75.3325693 140.3141198  88.1765173  72.9822173 133.7596702  85.5479815
  72.1206652 134.0577956  85.8396553  73.0084608 133.9767101  84.6160848
  69.7983743 142.3038893  81.9553621  70.2622088 142.5826596  81.1658243
  69.5340541 141.4022338  81.7726711  66.6907824 141.8510374  84.8933384
  67.2609181 142.2797643  84.2550868  67.2815936 141.5692959  85.5917570
  68.7352629 138.4262045  78.7643186  69.4376672 138.8783089  79.2317112
  68.4033257 137.7845864  79.3923079  67.1832990 137.0173802  93.1394395
  66.5531651 137.6990083  93.3729792  67.0769078 136.9056884  92.1947533
  62.4777963 136.6845598  84.0660319  61.6877017 136.9403127  83.5900430
  62.9689210 137.4993936  84.1712360  76.4941772 144.0250837  86.8165600
  77.3159216 143.6231024  86.5348282  76.4904175 143.9219071  87.7681716
  64.4292708 137.0490177  81.0243796  63.6323871 137.1608871  81.5427292
  64.2018300 137.3876829  80.1584687  70.2598376 143.5734880  88.9726311
  70.3242808 144.0355288  89.8084482  69.5509300 142.9432245  89.1008620
  60.7615666 136.9376088  86.4975310  61.0123704 137.8223098  86.7632886
  61.2975214 136.7580690  85.7250402  84.5847765 140.3689586  83.1650572
  83.8311474 139.7996984  83.0094576  84.7195307 140.3352250  84.1121206
  66.4613733 131.3194568  95.5019646  66.0680679 130.7660766  96.1767290
  67.2779873 131.6305146  95.8926164  69.3781694 132.7352447  93.0939903
  70.1191407 133.3359600  93.0144365  69.6099617 131.9930085  92.5357945
  64.5223032 137.9208814  91.3718132  64.4076547 137.0194071  91.6725231
  63.6667550 138.1672511  91.0202949  70.1569162 143.6573484  91.8410543
  70.6897499 142.8961772  91.6109851  69.6283243 143.3647136  92.5834697
  73.3238857 128.7633550  87.3704184  72.9803126 129.6535192  87.2943295
  73.6917820 128.5735207  86.5073769  61.3924708 141.0867080  80.1892787
  62.2299930 141.4964089  79.9726494  61.5702975 140.1466522  80.1592980
  73.2889140 138.7542161  75.8776620  72.7735763 139.5246766  76.1165007
  73.0166448 138.0807297  76.5009681  70.8736251 133.5991862  80.9361858
  70.0177847 133.2098712  80.7567497  71.2863203 133.6783823  80.0761643
  72.4035397 131.1338205  85.3353418  71.9000193 131.0968340  84.5221223
  72.6966004 132.0430948  85.3950074  68.6478283 131.2176935  84.3419599
  69.5131280 131.0219743  83.9825489  68.7155792 130.9887286  85.2688956
  78.2623414 141.5074516  77.8129793  77.4852857 141.1685675  77.3684955
  78.9414895 141.5127139  77.1384758  73.0775443 136.6269253  77.7036401
  72.7725578 136.9415402  78.5546544  74.0305885 136.7050673  77.7463734
  71.5221875 142.7859476  79.3529355  70.9943236 142.0512236  79.0402592
  71.0209377 143.5634153  79.1069323  76.5014721 140.9808497  84.4696401
  75.8438395 141.6707758  84.5576530  77.3055120 141.3704929  84.8130387
  66.2540602 133.4479143  81.7135966  66.8284354 133.2254324  80.9809159
  66.8411585 133.5167837  82.4664568  75.3120180 139.3352870  82.5200343
  75.8252061 139.9682861  83.0222052  75.9621403 138.7354065  82.1543703
  66.5810189 135.4783604  75.7331851  65.7447502 135.8158290  76.0541126
  66.4414959 135.3432583  74.7958988  68.5563270 130.3220392  80.4411036
  67.9027682 130.0069409  79.8167650  68.5143744 129.6996132  81.1670859
  69.6674475 140.6039687  72.3564328  68.7601537 140.3728940  72.5555477
  70.1645507 139.8077306  72.5438309  71.7901010 136.8102325  84.7658683
  70.8723572 137.0317272  84.6080371  72.2061154 136.8848636  83.9070391
  72.5736058 138.2093741  79.8961364  73.3207877 138.7215138  79.5868486
  72.8427648 137.8877793  80.7565757  70.8462708 140.7052281  76.8788318
  69.9373928 140.4211314  76.9760788  70.8757792 141.1251360  76.0191625
  76.0781976 144.3158871  80.6479485  75.6244303 143.4749781  80.7044676
  75.4475943 144.9520269  80.9854266  75.0214895 135.2450857  81.8780153
  74.2837652 134.7328243  82.2090395  75.2741669 134.8051239  81.0663430
  74.5214915 146.1535368  81.5829304  74.8137889 146.7140425  80.8641669
  75.0313536 146.4463929  82.3382463  75.1226523 128.0227109  82.4721922
  75.4285399 127.1624472  82.1847837  75.8479127 128.6144729  82.2720916
  61.4150879 138.4257796  80.8603520  61.2175279 137.8327156  80.1354587
  60.8597543 138.1210006  81.5779459  69.3947602 138.3180902  82.9798113
  69.4496212 137.3654738  82.9040590  68.5838804 138.4740341  83.4639412
  70.5438796 142.2461025  74.2176396  70.1058226 141.5296884  73.7582034
  71.2849237 142.4737140  73.6561488  67.3339962 136.9357962  80.7388492
  66.5207828 137.2352132  81.1453684  67.8298957 136.5413651  81.4562974
  72.9314174 137.3999786  89.5703386  73.2863562 137.6271259  90.4297852
  73.5786305 137.7318163  88.9480641  78.6611911 140.5218222  80.2752715
  78.5229810 140.7119818  79.3473904  78.3048130 141.2837605  80.7320766
  66.8254037 134.5076317  86.3549727  67.4653416 134.3665076  85.6572690
  65.9931568 134.2210831  85.9788329  78.6881291 142.5894749  85.2863986
  79.1217797 142.4970038  86.1347041  79.4012871 142.5652250  84.6484002
  67.6014341 143.8078748  82.4684719  68.3954940 143.3129068  82.2667294
  66.8906033 143.2796611  82.1052425  63.9097104 137.9521830  78.5444472
  62.9794693 137.8906285  78.7614434  64.0054576 137.4297782  77.7481113
  63.8282654 134.4776642  81.1322714  64.0889471 135.3921976  81.0231874
  64.6499826 134.0101085  81.2819327  65.3007579 135.8914400  88.3021538
  65.9730632 135.6831762  87.6534187  64.4737365 135.6936486  87.8626771
  79.5496840 142.6318450  87.8196872  79.7432730 143.5364260  88.0656147
  79.4497458 142.1725869  88.6535457  71.2033151 132.5176340  90.3187199
  70.5561066 133.2166290  90.2251676  71.9734166 132.9512484  90.6863447
  74.6111949 142.7825193  93.3937752  74.4597455 142.5535744  92.4767836
  74.6016628 143.7395794  93.4069097  71.3797285 140.3557105  88.3784019
  72.3089345 140.5068265  88.2052986  70.9588315 140.4441126  87.5232665
  71.7290832 143.7589372  83.5371394  71.3940665 143.7190142  84.4329044
  71.2294778 143.0934088  83.0641805  65.7035076 139.1657002  89.0623975
  65.5654874 138.4337241  89.6635515  66.6140000 139.0765903  88.7808163
  74.6650024 141.1045407  73.8108454  74.0479194 140.3792235  73.7141507
  74.1966512 141.8654767  73.4675528  68.3317377 138.8776962  88.5507655
  69.0416995 138.2370154  88.5094274  68.2886685 139.1289857  89.4733836
  76.3204155 145.8144315  91.4714234  76.2616702 145.1303535  90.8044817
  76.7223674 146.5563305  91.0194860  67.0446311 135.8642180  90.3703295
  66.5083668 135.4132918  91.0224891  66.4563019 135.9988089  89.6273759
  66.4548570 135.3230831  72.9329758  65.5778036 135.2019632  72.5692005
  66.9306323 134.5316909  72.6808647  76.3221563 143.7783899  89.7028214
  75.4348341 143.4409821  89.8254613  76.8920114 143.0466930  89.9396979
  62.7785432 134.9998187  87.4556289  62.6943621 134.3923857  86.7206699
  61.9568138 135.4907206  87.4565785  72.9509146 133.4851751  82.8226484
  73.4477845 132.7321713  82.5027554  72.1796127 133.5216068  82.2569693
  80.8038903 139.1892116  84.4644776  80.7928780 140.0716832  84.0938709
  79.9356283 138.8363667  84.2699313  74.0338927 142.2423438  80.3964908
  73.0995205 142.3624901  80.2269612  74.2115595 141.3395905  80.1324917
  69.5344115 135.6269134  82.5498169  69.1641902 135.0740174  83.2379074
  70.0303207 135.0227267  81.9973169  77.4211478 138.0840757  80.9314942
  77.8871930 138.9168749  80.8575244  77.8718978 137.6185739  81.6360200
  75.4887709 144.4284579  77.9301094  75.7647553 144.3141173  78.8394968
  74.6192208 144.0302064  77.8913267  75.3928141 130.4521344  84.9705843
  74.4791220 130.6825571  85.1388050  75.8221242 130.5359788  85.8219875
  75.1634599 138.6411236  87.4705737  74.5106049 138.8887144  86.8158190
  75.5414979 137.8275375  87.1368214  71.2122172 139.3831047  93.9571774
  70.5362809 139.2825177  94.6274149  72.0349806 139.2270261  94.4207771
  57.5518686 138.1908584  85.2988733  57.5902785 137.6572175  86.0925851
  57.0458979 137.6643790  84.6799710  64.9309448 133.0373125  88.7951275
  64.9950775 133.8987956  88.3828673  64.8676569 132.4247126  88.0623633
  64.4061721 135.1096257  92.4424309  65.0333760 134.7273335  93.0561833
  63.5489640 134.8910459  92.8080002  74.8055829 145.5159232  94.0478045
  75.3495733 146.1289191  93.5532999  74.2242674 146.0738811  94.5645058
  61.1827264 136.9172686  78.3742664  61.4780705 136.0083365  78.3209718
  60.2815299 136.8960426  78.0523666  64.7121511 134.9928683  84.3570213
  63.9908096 135.6064651  84.2177686  65.5014766 135.5286448  84.2786858
  75.1548251 146.4388970  86.8072622  74.2078586 146.3194322  86.7350949
  75.5031024 145.5511469  86.8898884  67.5147824 132.3283109  90.6310864
  68.0382226 132.5745406  91.3937174  67.2960157 133.1603144  90.2114002
  62.9115105 134.5986784  78.4981989  62.5827811 133.7184163  78.3157095
  63.2654476 134.5434453  79.3858378  66.0256928 134.8859754  78.8657467
  66.3653001 135.4145675  78.1436075  66.4729049 135.2240160  79.6416033
  75.7628806 147.0570245  84.0941847  76.6875353 146.8513107  83.9566298
  75.5944109 146.8086647  85.0031189  68.7200369 133.2696805  88.3160535
  68.3797189 132.4704618  88.7181215  68.0139375 133.5698515  87.7437368
  69.3716841 130.3546117  86.7687858  70.1942910 129.8806595  86.6466748
  69.6154904 131.1336601  87.2686544  68.0125075 133.3834375  77.0650760
  68.7333438 133.7615628  76.5614476  67.3890380 134.1023252  77.1685737
  72.1556198 134.0879524  78.0009092  72.3719813 134.9704162  77.6997920
  71.6750265 133.6965738  77.2714734  66.8955420 137.0465238  84.5779836
  66.7500000 137.3605541  85.4704118  66.4180623 137.6650138  84.0250735
  68.7551803 134.0367786  84.6260726  68.7413371 133.1408879  84.2893024
  69.4724231 134.0438449  85.2599012  70.6077933 134.4705126  86.6713853
  70.3495711 135.3922196  86.6698184  70.0762974 134.0735560  87.3614318
  61.3701082 139.5870582  87.5167498  60.8254550 140.3630390  87.6487772
  62.2480432 139.9341386  87.3586619  68.1588699 132.9182166  79.8948296
  68.2804610 131.9898812  80.0939184  67.8690741 132.9320852  78.9826612
  71.0279889 130.6037076  83.0315016  71.0501586 130.6676409  82.0766996
  71.4447948 129.7641585  83.2255522  81.4063513 140.3392336  81.0694239
  81.8494659 139.5899661  80.6713362  80.5290024 140.3302472  80.6867971
  76.5399295 146.8922677  76.5500837  77.2350199 147.5129370  76.7688152
  76.8822445 146.0418029  76.8253215  62.1567104 138.7140478  90.4097654
  61.4148840 138.8623114  90.9962285  61.8359848 138.9748744  89.5464404
  78.4390718 144.3422383  78.0788168  78.9642042 144.6809656  77.3537488
  78.3513070 143.4069398  77.8951302  67.6429778 134.4314163  94.1038229
  67.6917934 135.3076286  93.7215998  68.1852292 133.8891556  93.5309872
  78.1284624 144.9755286  93.3839366  77.3380167 144.9579425  92.8443865
  77.8917978 145.5143580  94.1388402  78.2482499 141.8247753  90.6972094
  78.2980504 141.6597760  91.6387617  78.1396422 140.9575012  90.3069975
  75.5386261 137.8078681  92.0131401  76.4396124 137.6685146  91.7215399
  75.6134236 137.9733136  92.9529579  69.8729066 135.1845536  90.8584587
  69.0032376 135.4779102  90.5867176  70.1088547 135.7685981  91.5791851
  79.7500696 144.2444694  90.9414116  79.4585504 144.6074675  91.7777577
  79.1372827 143.5311703  90.7627448  80.9496378 141.8097574  83.4616686
  81.7843269 142.2487378  83.6254246  81.0855507 141.3336227  82.6424932
  77.9987884 139.3677309  89.4094174  78.4742005 139.5604955  88.6013025
  77.0753449 139.4236495  89.1637558  64.8871390 140.5301476  78.9925252
  64.6417432 139.6263806  79.1905462  65.0567305 140.5318627  78.0504730
  72.5768100 131.4025153  88.3750008  73.0950044 132.1386179  88.0496496
  72.2223233 131.7089146  89.2096767  64.1567038 136.2629834  76.4911414
  63.4636283 136.3374189  75.8351450  63.9118790 135.4990177  77.0132931
  72.8280694 127.8225435  83.8950904  73.1082448 127.1548624  84.5211331
  73.6131301 128.0154531  83.3825568  76.6989553 136.2443069  87.6422479
  77.6506976 136.3441167  87.6634704  76.5293003 135.4521338  88.1520564
  74.7203932 133.3298652  87.8281880  74.1253864 133.6103665  87.1328369
  74.4353629 133.8192553  88.5998622  76.4799439 146.5987449  73.5488461
  76.4013071 146.2647313  74.4424218  77.3009106 147.0909217  73.5479933
  79.1777631 139.4649189  86.7564779  79.1453951 138.5265189  86.9424463
  79.7878254 139.5433225  86.0230604  71.0160961 138.3345242  72.7991983
  71.9620066 138.2051450  72.8680401  70.6375206 137.5959904  73.2761411
  79.3272119 136.2560232  86.8023062  78.8111168 135.4718689  86.6152991
  80.2112068 135.9278949  86.9669582  76.9882846 130.0001248  82.7618875
  76.7907667 129.6916336  83.6462207  77.5982552 130.7262887  82.8916805
  84.9954180 140.5265196  85.8970816  85.7257569 140.2650484  86.4578519
  84.3861126 139.7893918  85.9372884  83.0769478 138.6673058  86.4945267
  82.3502641 138.5329023  85.8861759  82.6616764 138.9749887  87.3001985
  70.8999654 142.3862988  94.2592640  71.8202663 142.5641587  94.4532687
  70.8649237 141.4419033  94.1072339  69.2003879 136.2595218  72.7346868
  68.2935334 135.9628331  72.8109582  69.4779860 135.9625036  71.8681155
  60.1181819 137.5801582  83.1845915  59.7984603 136.7266890  82.8920289
  59.5715247 137.7950160  83.9403882  63.8961727 140.2964023  86.9015421
  64.1147736 141.2281130  86.9203455  64.3087500 139.9371997  87.6870225
  70.8165944 130.8032108  78.8891110  70.0066673 130.4579193  79.2646356
  71.5050361 130.4939652  79.4778721  72.7456493 129.8810155  80.5115406
  73.2987531 130.3005608  81.1705429  72.9826579 128.9545903  80.5538362
  68.7689592 135.8697228  96.2918170  68.6686319 136.8191585  96.2230261
  68.5511134 135.5415467  95.4194240  67.9702663 133.1182153  72.8758848
  68.8321827 133.4437052  73.1354665  68.1553007 132.3313649  72.3631913
  59.9870079 141.2004493  85.1539036  59.2933550 140.7858446  84.6408991
  60.7343070 141.2425030  84.5572455  76.1235300 131.9910680  80.0194071
  75.5433969 132.6495484  79.6372123  75.8571232 131.1688024  79.6081488
  74.5738866 131.3915738  82.2215391  75.0738644 131.5032272  81.4129710
  75.2174474 131.0876790  82.8616199  68.6320862 139.2994367  95.1083232
  68.1487944 140.0994727  95.3147121  68.7181801 139.3102312  94.1550676
  61.9006822 141.1322747  83.0305051  61.8777510 141.2310434  82.0786934
  62.2107458 141.9787898  83.3522217  65.1493582 141.7600018  89.7122463
  65.9686471 142.2544097  89.7357301  65.4230389 140.8431986  89.6840031
  74.9060178 134.1510770  79.0750419  74.0186033 134.4360421  78.8570614
  75.3214167 133.9904534  78.2277696  78.2574714 134.1757291  82.7904758
  79.0335104 134.6653744  83.0629375  77.5322848 134.6015345  83.2476628
  80.6947273 134.8884910  83.8478699  81.2891763 134.6480646  83.1372007
  80.7673856 134.1692041  84.4752235  74.0503391 143.9155445  73.1698439
  74.7539241 144.1205447  73.7856094  73.3266040 144.4832207  73.4347522
  74.8801202 139.6665306  79.2900709  74.8236403 140.1233858  78.4508341
  75.4329544 138.9055991  79.1123552  78.6906007 135.4555038  80.1150829
  78.4342942 135.0551674  80.9459036  78.0658875 136.1698832  79.9900968
  83.0018345 138.1951111  82.6222120  82.4417903 138.2644301  83.3953682
  82.3961849 138.0192096  81.9021616  75.9590089 144.3537974  75.2196899
  76.7935693 143.9219173  75.0374374  75.7974432 144.1819988  76.1473793
  75.6135981 140.8570087  76.5853238  75.5584785 140.6914359  75.6441682
  74.9882036 141.5646120  76.7415428  60.4028496 136.0938152  90.4114660
  61.0487359 135.5837106  90.9001886  60.1945647 136.8306833  90.9858086
  72.9281888 143.1618999  95.9106801  73.7973048 143.3359652  95.5493436
  72.4488639 143.9813416  95.7882530  68.9232106 130.3578196  76.1638557
  68.9110776 131.3020036  76.3206827  69.8155528 130.1748342  75.8698018
  72.7384226 126.9520973  80.4184493  71.9716622 126.3979460  80.5641176
  73.1494931 127.0242842  81.2798645  64.7425987 133.2405769  94.5089675
  65.6057448 132.8842574  94.7192999  64.1691397 132.9019664  95.1965079
  87.0649480 146.2455886  87.7532871  86.7332804 147.1151297  87.5294086
  86.4695093 145.9292170  88.4326901  88.8239789 149.1667411  86.6104095
  88.1814170 149.4599944  85.9643889  88.3194718 149.0520331  87.4157291
  83.8215928 149.0888620  85.5479815  82.9600407 149.3869874  85.8396553
  83.8478363 149.3059019  84.6160848  77.3007488 146.6486485  95.5019646
  76.9074433 146.0952684  96.1767290  78.1173628 146.9597064  95.8926164
  80.2175449 148.0644365  93.0939903  80.9585162 148.6651518  93.0144365
  80.4493371 147.3222002  92.5357945  84.1632612 144.0925468  87.3704184
  83.8196881 144.9827109  87.2943295  84.5311574 143.9027125  86.5073769
  81.7130005 148.9283779  80.9361858  80.8571602 148.5390630  80.7567497
  82.1256957 149.0075740  80.0761643  83.2429152 146.4630123  85.3353418
  82.7393947 146.4260258  84.5221223  83.5359759 147.3722865  85.3950074
  79.4872038 146.5468852  84.3419599  80.3525035 146.3511661  83.9825489
  79.5549547 146.3179204  85.2688956  79.3957025 145.6512309  80.4411036
  78.7421437 145.3361326  79.8167650  79.3537499 145.0288050  81.1670859
  85.8608650 150.5742775  81.8780153  85.1231407 150.0620161  82.2090395
  86.1135423 150.1343156  81.0663430  85.9620277 143.3519027  82.4721922
  86.2679154 142.4916390  82.1847837  86.6872882 143.9436647  82.2720916
  82.0426905 147.8468258  90.3187199  81.3954820 148.5458208  90.2251676
  82.8127921 148.2804402  90.6863447  83.7902900 148.8143669  82.8226484
  84.2871600 148.0613631  82.5027554  83.0189882 148.8507985  82.2569693
  86.2321895 145.7813262  84.9705843  85.3184975 146.0117489  85.1388050
  86.6614997 145.8651706  85.8219875  80.2110595 145.6838035  86.7687858
  81.0336665 145.2098513  86.6466748  80.4548659 146.4628518  87.2686544
  81.8673643 145.9328994  83.0315016  81.8895340 145.9968327  82.0766996
  82.2841702 145.0933503  83.2255522  83.4161855 146.7317070  88.3750008
  83.9343799 147.4678097  88.0496496  83.0616988 147.0381064  89.2096767
  83.6674449 143.1517353  83.8950904  83.9476203 142.4840542  84.5211331
  84.4525056 143.3446448  83.3825568  85.5597687 148.6590570  87.8281880
  84.9647619 148.9395583  87.1328369  85.2747384 149.1484471  88.5998622
  90.1665874 151.5852150  86.8023062  89.6504922 150.8010607  86.6152991
  91.0505822 151.2570866  86.9669582  87.8276601 145.3293165  82.7618875
  87.6301422 145.0208254  83.6462207  88.4376306 146.0554804  82.8916805
  81.6559699 146.1324026  78.8891110  80.8460427 145.7871110  79.2646356
  82.3444116 145.8231569  79.4778721  83.5850247 145.2102072  80.5115406
  84.1381286 145.6297526  81.1705429  83.8220334 144.2837820  80.5538362
  86.9629054 147.3202597  80.0194071  86.3827723 147.9787402  79.6372123
  86.6964987 146.4979942  79.6081488  85.4132621 146.7207655  82.2215391
  85.9132399 146.8324190  81.4129710  86.0568229 146.4168708  82.8616199
  85.7453932 149.4802688  79.0750419  84.8579787 149.7652338  78.8570614
  86.1607921 149.3196451  78.2277696  89.0968468 149.5049209  82.7904758
  89.8728859 149.9945661  83.0629375  88.3716603 149.9307263  83.2476628
  91.5341027 150.2176828  83.8478699  92.1285518 149.9772564  83.1372007
  91.6067611 149.4983959  84.4752235  89.5299762 150.7846956  80.1150829
  89.2736696 150.3843591  80.9459036  88.9052630 151.4990750  79.9900968
  79.7625861 145.6870114  76.1638557  79.7504531 146.6311954  76.3206827
  80.6549283 145.5040259  75.8698018  83.5777980 142.2812891  80.4184493
  82.8110376 141.7271377  80.5641176  83.9888685 142.3534759  81.2798645
   8.7118084  24.5726324  72.0397382   9.3496494  24.4533071  71.3360722
   8.5938926  25.5207168  72.0985334   5.5207790  24.5253752  71.9758907
   5.1826301  24.4094817  71.0879442   6.3897558  24.1244917  71.9559913
   1.3794606  26.3789229  67.9655798   0.8159471  26.2879165  67.1972086
   1.2647001  25.5589133  68.4458290   6.0027573  25.6788604  77.9345112
   5.9916214  25.2841402  77.0625616   6.1648212  24.9454676  78.5278884
   6.9594164  30.0460196  63.2770263   6.3082144  30.6314277  62.8904277
   7.7538527  30.5766391  63.3365300   0.8849791  27.1349333  63.6757397
   1.6580667  26.5878320  63.5370273   1.2375190  27.9993583  63.8871859
   2.7234834  28.4625716  76.8824296   2.4324700  29.3671347  76.7670963
   3.3591818  28.5042243  77.5968366   3.6491041  25.8402564  73.4725656
   4.2454613  25.6158587  72.7582619   3.7066012  25.0987310  74.0751104
   3.2216069  23.2942000  61.3075847   3.4741590  22.7723521  60.5459310
   2.2840628  23.1308145  61.4102531   8.2659352  22.2977778  69.1150590
   9.0522441  21.8797201  68.7641007   8.5298056  23.2023870  69.2832239
   8.4369429  27.7350628  63.8139247   7.8015262  27.8085255  64.5260152
   8.1066836  28.3244227  63.1358326  13.6667779  22.2353011  70.0183569
  14.3992951  21.6652228  70.2521398  12.9107135  21.8474612  70.4590074
   2.9412358  25.1970105  63.5100222   2.8248616  24.5215009  64.1781306
   3.0514618  24.7102479  62.6932375   5.2843899  24.6580253  67.2146911
   4.9202106  24.1310874  67.9259833   6.1411015  24.2678722  67.0413397
  11.1893200  15.9474585  74.4778177  10.8576524  16.8169996  74.2539392
  10.5938813  15.6310869  75.1572208   4.9249386  19.6870152  62.2108260
   5.0923788  20.5550389  62.5778731   4.7346555  19.8497434  61.2869549
   7.6824719  28.1487131  73.8774090   7.3825442  29.0512170  73.7689897
   7.3375779  27.8819314  74.7295243  11.0821863  20.6669671  71.5571527
  10.1738740  20.5985080  71.2630288  11.0309459  21.1441616  72.3853353
   4.9038607  22.1427810  63.1954927   4.7838232  22.5884861  64.0340407
   4.2091195  22.4913127  62.6368465   2.6645499  34.9131452  66.8445058
   2.5869529  35.8639277  66.9233538   2.0607142  34.5677324  67.5019984
   5.1562729  22.0859317  79.5006425   4.3796063  22.6453237  79.4909289
   5.7953292  22.5716100  80.0221295  12.9483509  18.8686110  73.3349401
  12.3057889  19.1618643  72.6889196  12.4438438  18.7539030  74.1402598
  10.6023673  22.6149283  64.0235261  11.5141529  22.8476670  63.8482958
  10.0933320  23.1986327  63.4610339   3.4109101  24.8944770  79.0624392
   4.1523785  25.4329814  78.7859215   2.7046086  25.5211059  79.2195944
   8.8864441  27.0373911  77.6596553   9.2947797  26.5956321  76.9151186
   8.1641702  26.4626538  77.9130746   5.2395511  21.9746518  75.0330110
   6.0856706  22.3985931  75.1764759   5.1794148  21.3180142  75.7268673
   9.2093255  27.5975101  71.4148842   8.5802118  27.7620816  70.7124910
   8.8218917  28.0116711  72.1859806  13.0882487  28.5329539  68.7693206
  12.4033525  28.9128441  68.2190239  13.1726336  29.1424866  69.5025154
   8.3894956  19.6350886  76.6911284   8.1455888  20.3892946  76.1545560
   8.6654886  20.0136234  77.5258531  10.3433419  26.1789498  75.3688549
  10.5550314  26.8221258  74.6922930  10.2963167  25.3451815  74.9010479
   7.9459648  18.7907319  72.2725122   7.0844127  19.0888572  72.5641859
   7.9722082  19.0077718  71.3406154   4.7621217  27.3349509  68.6798927
   5.2259563  27.6137212  67.8903550   4.4978015  26.4332954  68.4972018
   1.6545298  26.8820991  71.6178690   2.2246655  27.3108259  70.9796175
   2.2453410  26.6003576  72.3162876   3.6990103  23.4572662  65.4888492
   4.4014146  23.9093706  65.9562419   3.3670732  22.8156481  66.1168385
   2.1470465  22.0484418  79.8639702   1.5169125  22.7300699  80.0975099
   2.0406553  21.9367500  78.9192840  11.4579247  29.0561454  73.5410907
  12.2796690  28.6541641  73.2593588  11.4541650  28.9529688  74.4927023
   5.2235850  28.6045497  75.6971617   5.2880283  29.0665904  76.5329789
   4.5146774  27.9742862  75.8253927  19.5485240  25.4000202  69.8895878
  18.7948948  24.8307600  69.7339883  19.6832781  25.3662867  70.8366513
   4.9383868  30.2713604  65.5650598   4.8029543  31.1165140  65.9935445
   5.4793680  30.4732882  64.8016531   6.5652344  30.8937171  79.6950940
   6.1216198  30.1073550  79.3771844   7.2269558  31.0816321  79.0294830
   1.3239465  32.4232973  74.2211618   1.8746890  32.2950036  73.4488612
   0.4850941  32.7227862  73.8706511   8.6633582  31.1739971  77.7232341
   8.6452058  31.9948852  77.2312610   9.5853502  31.0494046  77.9482482
   5.1206636  28.6884100  78.5655849   5.6534973  27.9272389  78.3355157
   4.5920717  28.3957752  79.3080004   8.2526614  23.7852777  62.6021926
   7.7373237  24.5557382  62.8410314   7.9803923  23.1117914  63.2254988
   5.8373725  18.6302478  67.6607165   4.9815321  18.2409329  67.4812803
   6.2500677  18.7094439  66.8006950  13.2260888  26.5385132  64.5375100
  12.4490331  26.1996292  64.0930262  13.9052369  26.5437755  63.8630065
   8.0412917  21.6579870  64.4281707   7.7363053  21.9726019  65.2791851
   8.9943359  21.7361289  64.4709040   6.4859349  27.8170093  66.0774661
   5.9580711  27.0822852  65.7647899   5.9846852  28.5944769  65.8314630
  11.4652195  26.0119113  71.1941708  10.8075870  26.7018375  71.2821836
  12.2692594  26.4015545  71.5375694  10.2757654  24.3663486  69.2445649
  10.7889536  24.9993478  69.7467359  10.9258878  23.7664682  68.8789009
   1.5447664  20.5094220  62.4577158   0.7084976  20.8468907  62.7786433
   1.4052433  20.3743200  61.5204295   4.6311949  25.6350303  59.0809634
   3.7239011  25.4039557  59.2800783   5.1282981  24.8387922  59.2683616
   7.5380028  34.3447810  62.0006321   6.8641727  34.6479507  62.6091278
   7.9245850  35.1476891  61.6511778   6.7538485  21.8412942  71.4903990
   5.8361046  22.0627889  71.3325678   7.1698628  21.9159252  70.6315697
   7.5373533  23.2404357  66.6206670   8.2845351  23.7525755  66.3113792
   7.8065122  22.9188410  67.4811064   5.8100183  25.7362898  63.6033624
   4.9011402  25.4521931  63.7006094   5.8395267  26.1561977  62.7436931
  11.0419450  29.3469488  67.3724792  10.5881777  28.5060397  67.4289982
  10.4113417  29.9830886  67.7099572   9.9852370  20.2761474  68.6025459
   9.2475126  19.7638860  68.9335702  10.2379143  19.8361855  67.7908736
   9.4852389  31.1845984  68.3074610   9.7775364  31.7451041  67.5886976
   9.9951010  31.4774545  69.0627769   4.3585077  23.3491519  69.7043420
   4.4133687  22.3965355  69.6285896   3.5476279  23.5050958  70.1884718
   5.5076271  27.2771642  60.9421703   5.0695700  26.5607501  60.4827340
   6.2486711  27.5047757  60.3806794   2.2977437  21.9668578  67.4633799
   1.4845302  22.2662749  67.8698991   2.7936431  21.5724267  68.1808281
   4.4486015  31.9626335  69.3968063   4.4062193  32.1887182  68.4676595
   5.3648713  31.7289710  69.5453865   7.8951648  22.4310403  76.2948693
   8.2501036  22.6581876  77.1543158   8.5423780  22.7628780  75.6725948
  13.6249385  25.5528839  66.9998022  13.4867284  25.7430435  66.0719211
  13.2685604  26.3148222  67.4566073  13.6518765  27.6205366  72.0109293
  14.0855272  27.5280655  72.8592347  14.3650346  27.5962866  71.3729309
   2.5651815  28.8389364  69.1930026   3.3592414  28.3439684  68.9912601
   1.8543508  28.3107227  68.8297732   7.3846660  31.2207460  73.5442394
   7.4383682  31.7898396  74.3120110   6.5161441  31.3909345  73.1796431
  14.5134314  27.6629066  74.5442179  14.7070205  28.5674877  74.7901453
  14.4134933  27.2036485  75.3780764   6.1670625  17.5486957  77.0432506
   5.5198540  18.2476907  76.9496982   6.9371641  17.9823101  77.4108754
   9.5749423  27.8135809  80.1183059   9.4234930  27.5846361  79.2013143
   9.5654103  28.7706411  80.1314404   6.3434760  25.3867722  75.1029326
   7.2726820  25.5378881  74.9298293   5.9225790  25.4751743  74.2477972
   5.1423091  29.4118386  72.8727863   5.0034177  29.0437171  73.7453801
   4.3537688  29.9266026  72.7011821   5.7371243  34.5127483  64.2153400
   5.9122999  34.0415526  65.0299022   5.0504031  35.1393249  64.4434660
   6.6928306  28.7899989  70.2616701   6.3578139  28.7500759  71.1574351
   6.1932252  28.1244705  69.7887111   0.6672550  24.1967619  75.7869282
   0.5292348  23.4647858  76.3880821   1.5777474  24.1076519  75.5053470
   9.6287498  26.1356023  60.5353761   9.0116669  25.4102851  60.4386813
   9.1603987  26.8965384  60.1920835   3.2954851  23.9087578  75.2752962
   4.0054470  23.2680771  75.2339580   3.2524159  24.1600473  76.1979143
  11.2841630  30.8454932  78.1959541  11.2254176  30.1614152  77.5290124
  11.6861148  31.5873922  77.7440167   2.0083785  20.8952796  77.0948601
   1.4721142  20.4443535  77.7470198   1.4200494  21.0298705  76.3519066
  11.2859037  28.8094516  76.4273521  10.3985816  28.4720437  76.5499920
  11.8557588  28.0777547  76.6642286   4.8160190  33.4695968  73.3934764
   4.7430362  34.2750939  73.9054068   4.3737584  33.6687934  72.5682785
   4.6049970  32.7067738  66.9037585   3.8217492  33.2489418  66.9975810
   5.3042715  33.2241718  67.3031827   7.9146620  18.5162367  69.5471791
   8.4115320  17.7632330  69.2272861   7.1433602  18.5526684  68.9815000
  15.7676378  24.2202733  71.1890082  15.7566254  25.1027448  70.8184015
  14.8993757  23.8674284  70.9944619   7.2758874  33.3682802  75.5492923
   7.9886846  34.0030267  75.4768824   6.7848903  33.4646668  74.7332924
   8.9976401  27.2734055  67.1210214   8.0632680  27.3935517  66.9514919
   9.1753069  26.3706521  66.8570224   4.4981589  20.6579750  69.2743475
   4.1279376  20.1050791  69.9624381   4.9940681  20.0537884  68.7218475
  12.3848952  23.1151374  67.6560248  12.8509404  23.9479366  67.5820551
  12.8356453  22.6496356  68.3605507   2.3270787  31.1177245  76.3698493
   3.0280247  31.7513728  76.5227888   1.8565902  31.4591977  75.6094133
  10.4525183  29.4595195  64.6546400  10.7285027  29.3451790  65.5640274
   9.5829682  29.0612680  64.6158573  10.3565615  15.4831961  71.6951150
   9.4428695  15.7136188  71.8633357  10.7858716  15.5670405  72.5465182
  10.1272073  23.6721853  74.1951044   9.4743524  23.9197760  73.5403496
  10.5052453  22.8585991  73.8613521   7.0879247  33.7081546  68.2979214
   7.2701642  32.8903202  68.7606966   7.9112233  33.9249238  67.8604104
   7.4221413  32.6349731  65.5594262   7.9509179  32.1242186  64.9464425
   7.6849632  32.3192261  66.4239795   6.1759646  24.4141664  80.6817081
   5.5000283  24.3135793  81.3519456   6.9987280  24.2580878  81.1453078
   4.9182429  35.7208591  74.9174697   5.4700737  35.8840213  75.6823782
   5.2588623  36.3113029  74.2454722   9.7693304  30.5469849  80.7723351
  10.3133208  31.1599807  80.2778306   9.1880149  31.1049427  81.2890364
   8.0550817  33.6690567  71.9038379   7.9301956  32.8680307  71.3949324
   8.7129908  34.1636760  71.4152349  10.1185725  31.4699587  73.5317929
   9.1716061  31.3504938  73.4596256  10.4668498  30.5822085  73.6144190
   7.1232158  31.2652303  69.7322281   6.9757121  30.3369011  69.9129851
   7.9485652  31.2872394  69.2479356  10.7266280  32.0880862  70.8187154
  11.6512828  31.8823723  70.6811605  10.5581584  31.8397263  71.7276495
   7.1193673  19.1190141  64.7254398   7.3357287  20.0014779  64.4243227
   6.6387740  18.7276354  63.9960040   1.8592894  22.0775854  71.3025143
   1.7137475  22.3916157  72.1949425   1.3818098  22.6960754  70.7496042
   5.5715408  19.5015742  73.3959160   5.3133185  20.4232813  73.3943490
   5.0400448  19.1046177  74.0859624  10.5161596  32.6066529  66.1749245
  10.6898474  32.0412952  65.4223098  11.0090488  33.4067424  65.9928735
  16.3700988  25.3702952  67.7939545  16.8132134  24.6210278  67.3958668
  15.4927498  25.3613089  67.4113277  11.5036769  31.9233294  63.2746144
  12.1987673  32.5439987  63.4933458  11.8459919  31.0728645  63.5498522
  13.4028192  29.3732999  64.8033474  13.9279516  29.7120272  64.0782795
  13.3150545  28.4380015  64.6196609   5.0648241  33.2867073  76.9323351
   5.3735367  33.0416220  77.8046051   5.8623723  33.4913711  76.4442221
   5.0868853  35.4404983  69.1628728   4.6473843  34.9481361  69.8561584
   5.8376970  34.8977950  68.9220803   2.5342725  30.9842992  71.2351029
   1.9122734  30.3213697  70.9353257   3.2047592  31.0104124  70.5524677
  13.0922098  30.0065903  80.1084672  12.3017642  29.9890042  79.5689172
  12.8555453  30.5454197  80.8633709  13.2119973  26.8558369  77.4217401
  13.2617978  26.6908377  78.3632924  13.1033896  25.9885628  77.0315282
   2.0956232  29.5346915  64.7109490   2.2444352  30.2182379  64.0576163
   2.9022675  29.5152005  65.2258946  10.5023735  22.8389297  78.7376708
  11.4033598  22.6995762  78.4460705  10.5771710  23.0043752  79.6774885
   4.8366541  20.2156152  77.5829894   3.9669850  20.5089718  77.3112483
   5.0726021  20.7996597  78.3037158  14.7138170  29.2755311  77.6659423
  14.4222978  29.6385291  78.5022883  14.1010301  28.5622319  77.4872755
  15.9133852  26.8408191  70.1861993  16.7480744  27.2797995  70.3499553
  16.0492981  26.3646844  69.3670239  12.9625358  24.3987926  76.1339481
  13.4379480  24.5915572  75.3258332  12.0390924  24.4547111  75.8882864
   7.5405575  16.4335769  75.0995314   8.0587519  17.1696796  74.7741803
   7.1860707  16.7399762  75.9342074   5.5951637  32.0295046  62.1821237
   5.0225604  32.6485233  61.7291709   6.1684431  32.5794407  62.7161159
  11.6627027  21.2753686  74.3667786  12.6144450  21.3751783  74.3880010
  11.4930478  20.4831954  74.8765870   9.6841407  18.3609269  74.5527187
   9.0891339  18.6414282  73.8573676   9.3991103  18.8503170  75.3243928
   8.8148897  32.3132196  63.3129820   9.7479570  32.2477757  63.5162695
   8.7272110  33.1488462  62.8544352  11.4436914  31.6298066  60.2733767
  11.3650545  31.2957930  61.1669525  12.2646581  32.1219834  60.2725239
  14.1415105  24.4959805  73.4810086  14.1091425  23.5575806  73.6669770
  14.7515729  24.5743842  72.7475911   5.9798436  23.3655858  59.5237290
   6.9257541  23.2362066  59.5925708   5.6012681  22.6270520  60.0006718
  14.2909593  21.2870849  73.5268369  13.7748642  20.5029305  73.3398298
  15.1749542  20.9589565  73.6914888  11.9520320  15.0311864  69.4864182
  11.7545141  14.7226952  70.3707514  12.5620026  15.7573503  69.6162111
  19.9591655  25.5575812  72.6216123  20.6895043  25.2961100  73.1823826
  19.3498600  24.8204534  72.6618191  18.0406952  23.6983675  73.2190574
  17.3140116  23.5639640  72.6107065  17.6254239  24.0060503  74.0247292
   5.8637128  27.4173604  80.9837947   6.7840138  27.5952203  81.1777993
   5.8286711  26.4729650  80.8317646   4.1641353  21.2905835  59.4592175
   3.2572808  20.9938947  59.5354889   4.4417334  20.9935653  58.5926461
   3.7327066  20.9007845  83.0163477   3.6323793  21.8502202  82.9475568
   3.5148608  20.5726084  82.1439547  11.0872774  17.0221296  66.7439377
  10.5071443  17.6806100  66.3617430  10.8208707  16.1998641  66.3326795
   9.5376340  16.4226354  68.9460698  10.0376119  16.5342889  68.1375016
  10.1811948  16.1187407  69.5861506   3.5958336  24.3304984  81.8328539
   3.1125418  25.1305344  82.0392428   3.6819275  24.3412929  80.8795983
   9.8697652  19.1821387  65.7995726   8.9823507  19.4671037  65.5815920
  10.2851641  19.0215150  64.9523002  13.2212188  19.2067908  69.5150065
  13.9972578  19.6964360  69.7874682  12.4960322  19.6325962  69.9721934
  15.6584747  19.9195527  70.5724005  16.2529238  19.6791263  69.8617314
  15.7311331  19.2002657  71.1997542   9.0140866  28.9466061  59.8943745
   9.7176716  29.1516064  60.5101401   8.2903514  29.5142823  60.1592829
   9.8438676  24.6975923  66.0146016   9.7873877  25.1544474  65.1753648
  10.3967018  23.9366607  65.8368858  13.6543482  20.4865655  66.8396135
  13.3980416  20.0862290  67.6704343  13.0296350  21.2009448  66.7146274
  17.9655820  23.2261728  69.3467427  17.4055378  23.2954917  70.1198989
  17.3599323  23.0502712  68.6266923  10.9227563  29.3848591  61.9442206
  11.7573167  28.9529789  61.7619680  10.7611906  29.2130604  62.8719100
  10.5773455  25.8880704  63.3098545  10.5222259  25.7224975  62.3686989
   9.9519510  26.5956737  63.4660735   7.8919362  28.1929616  82.6352108
   8.7610522  28.3670268  82.2738743   7.4126114  29.0124033  82.5127837
   2.0605543  35.3126717  74.3141541   2.9632789  35.3450327  74.6308036
   1.8342913  34.3827168  74.3287877   3.8159145  34.0657703  70.9751620
   2.8654776  34.0659565  70.8615992   4.1191631  33.3190438  70.4587655
  19.5511838  39.9018242  72.0397382  20.1890248  39.7824989  71.3360722
  19.4332681  40.8499086  72.0985334  16.3601544  39.8545670  71.9758907
  16.0220056  39.7386735  71.0879442  17.2291313  39.4536835  71.9559913
  12.2188360  41.7081146  67.9655798  11.6553225  41.6171083  67.1972086
  12.1040755  40.8881051  68.4458290  16.8421327  41.0080522  77.9345112
  16.8309968  40.6133320  77.0625616  17.0041967  40.2746594  78.5278884
   9.7652792  43.2032338  70.8040018  10.5574084  42.8623162  70.3886318
  10.0049442  43.3127313  71.7242172  17.7987919  45.3752114  63.2770263
  17.1475899  45.9606194  62.8904277  18.5932282  45.9058309  63.3365300
  11.7243546  42.4641251  63.6757397  12.4974422  41.9170238  63.5370273
  12.0768945  43.3285500  63.8871859  13.5628588  43.7917633  76.8824296
  13.2718454  44.6963264  76.7670963  14.1985573  43.8334161  77.5968366
  14.4884795  41.1694482  73.4725656  15.0848368  40.9450504  72.7582619
  14.5459767  40.4279227  74.0751104  14.0609824  38.6233917  61.3075847
  14.3135344  38.1015438  60.5459310  13.1234383  38.4600063  61.4102531
  19.1053107  37.6269696  69.1150590  19.8916196  37.2089119  68.7641007
  19.3691811  38.5315788  69.2832239  19.2763184  43.0642546  63.8139247
  18.6409017  43.1377172  64.5260152  18.9460590  43.6536145  63.1358326
  24.5061534  37.5644929  70.0183569  25.2386706  36.9944146  70.2521398
  23.7500889  37.1766529  70.4590074  13.7806112  40.5262023  63.5100222
  13.6642371  39.8506927  64.1781306  13.8908372  40.0394397  62.6932375
  16.1237653  39.9872170  67.2146911  15.7595861  39.4602791  67.9259833
  16.9804769  39.5970639  67.0413397  22.0286954  31.2766503  74.4778177
  21.6970279  32.1461914  74.2539392  21.4332567  30.9602787  75.1572208
  15.7643140  35.0162070  62.2108260  15.9317543  35.8842306  62.5778731
  15.5740309  35.1789352  61.2869549  18.5218474  43.4779049  73.8774090
  18.2219197  44.3804088  73.7689897  18.1769533  43.2111232  74.7295243
  11.9730955  39.9292846  69.9110795  11.0481452  39.7969060  70.1188486
  12.2215368  40.7087065  70.4080737  21.9215617  35.9961589  71.5571527
  21.0132495  35.9276997  71.2630288  21.8703213  36.4733534  72.3853353
  15.7432361  37.4719727  63.1954927  15.6231986  37.9176778  64.0340407
  15.0484950  37.8205045  62.6368465   9.3339766  39.5726119  70.7454584
   9.4632147  39.8260598  71.6593995   8.6537217  40.1653827  70.4259239
  13.5039253  50.2423369  66.8445058  13.4263283  51.1931194  66.9233538
  12.9000897  49.8969242  67.5019984  15.9956483  37.4151235  79.5006425
  15.2189817  37.9745155  79.4909289  16.6347046  37.9008018  80.0221295
  23.7877264  34.1978027  73.3349401  23.1451644  34.4910561  72.6889196
  23.2832192  34.0830948  74.1402598  21.4417427  37.9441201  64.0235261
  22.3535284  38.1768587  63.8482958  20.9327074  38.5278245  63.4610339
  14.2502855  40.2236688  79.0624392  14.9917540  40.7621732  78.7859215
  13.5439841  40.8502977  79.2195944  19.7258195  42.3665828  77.6596553
  20.1341551  41.9248239  76.9151186  19.0035457  41.7918456  77.9130746
  16.0789265  37.3038435  75.0330110  16.9250460  37.7277849  75.1764759
  16.0187903  36.6472060  75.7268673  20.0487010  42.9267019  71.4148842
  19.4195872  43.0912733  70.7124910  19.6612672  43.3408629  72.1859806
  23.9276242  43.8621457  68.7693206  23.2427280  44.2420358  68.2190239
  24.0120091  44.4716784  69.5025154  19.2288710  34.9642804  76.6911284
  18.9849642  35.7184864  76.1545560  19.5048641  35.3428151  77.5258531
  21.1827173  41.5081416  75.3688549  21.3944068  42.1513176  74.6922930
  21.1356921  40.6743733  74.9010479  18.7853402  34.1199237  72.2725122
  17.9237881  34.4180490  72.5641859  18.8115837  34.3369635  71.3406154
  15.6014972  42.6641427  68.6798927  16.0653317  42.9429130  67.8903550
  15.3371770  41.7624872  68.4972018  12.4939053  42.2112909  71.6178690
  13.0640410  42.6400177  70.9796175  13.0847164  41.9295493  72.3162876
  14.5383858  38.7864580  65.4888492  15.2407901  39.2385623  65.9562419
  14.2064486  38.1448398  66.1168385  12.9864219  37.3776336  79.8639702
  12.3562880  38.0592617  80.0975099  12.8800307  37.2659418  78.9192840
   8.2809192  37.0448132  70.7905626   7.4908246  37.3005661  70.3145737
   8.7720439  37.8596470  70.8957666  22.2973001  44.3853371  73.5410907
  23.1190445  43.9833559  73.2593588  22.2935404  44.2821606  74.4927023
  10.2323937  37.4092711  67.7489103   9.4355100  37.5211406  68.2672598
  10.0049529  37.7479364  66.8829993  16.0629605  43.9337415  75.6971617
  16.1274037  44.3957822  76.5329789  15.3540528  43.3034780  75.8253927
   6.5646895  37.2978623  73.2220617   6.8154933  38.1825633  73.4878193
   7.1006443  37.1183224  72.4495709  30.3878994  40.7292120  69.8895878
  29.6342703  40.1599518  69.7339883  30.5226535  40.6954784  70.8366513
  15.7777622  45.6005522  65.5650598  15.6423297  46.4457058  65.9935445
  16.3187435  45.8024800  64.8016531  12.2644962  31.6797102  82.2264953
  11.8711907  31.1263301  82.9012597  13.0811102  31.9907680  82.6171470
   9.2307020  43.1180960  66.1378523   9.7431540  43.9124210  66.2884087
   9.8829732  42.4207251  66.0712124  11.0401904  46.2346716  68.2201276
  11.2168533  47.1564681  68.0322260  11.8358738  45.9205136  68.6495656
  15.1812923  33.0954981  79.8185209  15.9222636  33.6962134  79.7389672
  15.4130846  32.3532619  79.2603252  10.3254261  38.2811348  78.0963439
  10.2107776  37.3796606  78.3970538   9.4698779  38.5275045  77.7448256
  17.4046099  46.2229089  79.6950940  16.9609953  45.4365467  79.3771844
  18.0663312  46.4108239  79.0294830  12.1633220  47.7524890  74.2211618
  12.7140645  47.6241954  73.4488612  11.3244696  48.0519779  73.8706511
  19.5027337  46.5031889  77.7232341  19.4845812  47.3240770  77.2312610
  20.4247257  46.3785964  77.9482482  15.9600391  44.0176018  78.5655849
  16.4928728  43.2564306  78.3355157  15.4314472  43.7249670  79.3080004
  19.1270086  29.1236084  74.0949491  18.7834355  30.0137726  74.0188602
  19.4949048  28.9337742  73.2319076   7.1955936  41.4469614  66.9138093
   8.0331158  41.8566623  66.6971801   7.3734204  40.5069057  66.8838287
  19.0920369  39.1144695  62.6021926  18.5766992  39.8849300  62.8410314
  18.8197677  38.4409831  63.2254988  16.6767480  33.9594396  67.6607165
  15.8209076  33.5701246  67.4812803  17.0894431  34.0386357  66.8006950
  18.2066626  31.4940739  72.0598724  17.7031422  31.4570874  71.2466530
  18.4997233  32.4033482  72.1195381  14.4509512  31.5779469  71.0664906
  15.3162509  31.3822278  70.7070796  14.5187021  31.3489821  71.9934263
  24.0654643  41.8677050  64.5375100  23.2884085  41.5288209  64.0930262
  24.7446124  41.8729673  63.8630065  18.8806672  36.9871787  64.4281707
  18.5756807  37.3017936  65.2791851  19.8337114  37.0653207  64.4709040
  17.3253104  43.1462011  66.0774661  16.7974465  42.4114770  65.7647899
  16.8240606  43.9236687  65.8314630  22.3045950  41.3411031  71.1941708
  21.6469624  42.0310292  71.2821836  23.1086349  41.7307463  71.5375694
  12.0571831  33.8081677  68.4381273  12.6315583  33.5856858  67.7054466
  12.6442814  33.8770371  69.1909874  21.1151408  39.6955404  69.2445649
  21.6283290  40.3285396  69.7467359  21.7652632  39.0956599  68.8789009
  12.3841418  35.8386138  62.4577158  11.5478731  36.1760824  62.7786433
  12.2446188  35.7035118  61.5204295  14.3594499  30.6822926  67.1656342
  13.7058911  30.3671943  66.5412957  14.3174973  30.0598666  67.8916165
  15.4705704  40.9642221  59.0809634  14.5632765  40.7331474  59.2800783
  15.9676736  40.1679840  59.2683616  18.3773783  49.6739728  62.0006321
  17.7035481  49.9771425  62.6091278  18.7639605  50.4768808  61.6511778
  17.5932239  37.1704859  71.4903990  16.6754801  37.3919806  71.3325678
  18.0092383  37.2451170  70.6315697  18.3767287  38.5696275  66.6206670
  19.1239106  39.0817672  66.3113792  18.6458877  38.2480328  67.4811064
  16.6493937  41.0654816  63.6033624  15.7405156  40.7813849  63.7006094
  16.6789021  41.4853894  62.7436931  21.8813205  44.6761405  67.3724792
  21.4275532  43.8352315  67.4289982  21.2507171  45.3122804  67.7099572
  20.8246124  35.6053391  68.6025459  20.0868881  35.0930777  68.9335702
  21.0772898  35.1653773  67.7908736  20.3246144  46.5137902  68.3074610
  20.6169118  47.0742959  67.5886976  20.8344764  46.8066463  69.0627769
  20.9257751  28.3829643  69.1967229  21.2316628  27.5227007  68.9093144
  21.6510356  28.9747263  68.9966223   7.2182108  38.7860330  67.5848827
   7.0206507  38.1929691  66.8599893   6.6628772  38.4812540  68.3024765
  15.1978831  38.6783436  69.7043420  15.2527441  37.7257273  69.6285896
  14.3870033  38.8342875  70.1884718  16.3470025  42.6063559  60.9421703
  15.9089455  41.8899418  60.4827340  17.0880466  42.8339674  60.3806794
  13.1371191  37.2960496  67.4633799  12.3239057  37.5954667  67.8698991
  13.6330185  36.9016185  68.1808281  15.2879769  47.2918253  69.3968063
  15.2455948  47.5179099  68.4676595  16.2042468  47.0581628  69.5453865
  18.7345403  37.7602321  76.2948693  19.0894791  37.9873794  77.1543158
  19.3817534  38.0920697  75.6725948  24.4643140  40.8820756  66.9998022
  24.3261038  41.0722352  66.0719211  24.1079359  41.6440139  67.4566073
  12.6285266  34.8678852  73.0795034  13.2684645  34.7267611  72.3817997
  11.7962796  34.5813365  72.7033636  24.4912519  42.9497283  72.0109293
  24.9249026  42.8572573  72.8592347  25.2044100  42.9254784  71.3729309
  13.4045570  44.1681282  69.1930026  14.1986168  43.6731602  68.9912601
  12.6937262  43.6399145  68.8297732  18.2240414  46.5499378  73.5442394
  18.2777437  47.1190314  74.3120110  17.3555196  46.7201263  73.1796431
   9.7128333  38.3124364  65.2689779   8.7825921  38.2508819  65.4859741
   9.8085805  37.7900316  64.4726420   9.6313882  34.8379177  67.8568020
   9.8920700  35.7524510  67.7477181  10.4531055  34.3703619  68.0064633
  11.1038808  36.2516934  75.0266845  11.7761861  36.0434296  74.3779494
  10.2768594  36.0539020  74.5872077  25.3528069  42.9920984  74.5442179
  25.5463959  43.8966795  74.7901453  25.2528687  42.5328403  75.3780764
  17.0064380  32.8778875  77.0432506  16.3592295  33.5768824  76.9496982
  17.7765395  33.3115019  77.4108754  20.4143178  43.1427727  80.1183059
  20.2628684  42.9138279  79.2013143  20.4047857  44.0998328  80.1314404
  17.1828514  40.7159640  75.1029326  18.1120574  40.8670799  74.9298293
  16.7619544  40.8043660  74.2477972  15.9816846  44.7410304  72.8727863
  15.8427932  44.3729088  73.7453801  15.1931442  45.2557943  72.7011821
  16.5764998  49.8419400  64.2153400  16.7516753  49.3707444  65.0299022
  15.8897786  50.4685167  64.4434660  17.5322061  44.1191907  70.2616701
  17.1971894  44.0792677  71.1574351  17.0326007  43.4536623  69.7887111
  11.5066305  39.5259537  75.7869282  11.3686103  38.7939776  76.3880821
  12.4171228  39.4368437  75.5053470  20.4681253  41.4647941  60.5353761
  19.8510423  40.7394769  60.4386813  19.9997741  42.2257301  60.1920835
  14.1348606  39.2379496  75.2752962  14.8448224  38.5972688  75.2339580
  14.0917914  39.4892391  76.1979143  22.1235384  46.1746849  78.1959541
  22.0647930  45.4906069  77.5290124  22.5254903  46.9165839  77.7440167
  12.8477540  36.2244714  77.0948601  12.3114897  35.7735452  77.7470198
  12.2594248  36.3590623  76.3519066  11.1426083  52.9908763  70.9893260
  11.3822681  53.6227287  71.6672278  10.2995280  52.6396803  71.2758619
  12.2579799  35.6833365  59.6575065  11.3809265  35.5622166  59.2937312
  12.7337552  34.8919444  59.4053954  22.1252792  44.1386433  76.4273521
  21.2379570  43.8012355  76.5499920  22.6951343  43.4069465  76.6642286
   3.7781939  40.4710525  69.7516572   4.4652978  40.1572255  69.1637587
   3.6230067  41.3751890  69.4783823   8.5816661  35.3600722  74.1801596
   8.4974850  34.7526391  73.4452006   7.7599367  35.8509740  74.1811092
  15.6553945  48.7987886  73.3934764  15.5824116  49.6042857  73.9054068
  15.2131338  48.9979851  72.5682785  15.4443725  48.0359656  66.9037585
  14.6611246  48.5781336  66.9975810  16.1436470  48.5533635  67.3031827
  18.7540375  33.8454285  69.5471791  19.2509074  33.0924247  69.2272861
  17.9827356  33.8818602  68.9815000  26.6070132  39.5494651  71.1890082
  26.5960008  40.4319366  70.8184015  25.7387512  39.1966201  70.9944619
  18.1152628  48.6974720  75.5492923  18.8280601  49.3322184  75.4768824
  17.6242657  48.7938586  74.7332924  19.8370155  42.6025972  67.1210214
  18.9026434  42.7227435  66.9514919  20.0146824  41.6998439  66.8570224
  15.3375343  35.9871668  69.2743475  14.9673131  35.4342709  69.9624381
  15.8334436  35.3829802  68.7218475  23.2242707  38.4443292  67.6560248
  23.6903159  39.2771283  67.5820551  23.6750207  37.9788273  68.3605507
  13.1664542  46.4469163  76.3698493  13.8674001  47.0805646  76.5227888
  12.6959657  46.7883895  75.6094133  21.2918938  44.7887113  64.6546400
  21.5678782  44.6743708  65.5640274  20.4223437  44.3904598  64.6158573
  21.1959369  30.8123879  71.6951150  20.2822449  31.0428105  71.8633357
  21.6252471  30.8962323  72.5465182  20.9665828  39.0013771  74.1951044
  20.3137278  39.2489678  73.5403496  21.3446208  38.1877909  73.8613521
  17.9273002  49.0373464  68.2979214  18.1095396  48.2195120  68.7606966
  18.7505988  49.2541156  67.8604104  18.2615167  47.9641649  65.5594262
  18.7902934  47.4534103  64.9464425  18.5243387  47.6484179  66.4239795
  17.0153401  39.7433582  80.6817081  16.3394038  39.6427711  81.3519456
  17.8381035  39.5872795  81.1453078   8.7632260  45.9805518  73.3029596
   9.3485697  45.2349206  73.4357500   8.5657098  46.2909475  74.1866260
  11.6170915  49.0156766  68.3192038  10.9481291  49.5002893  67.8356078
  11.4783785  49.2625986  69.2335417   3.3549915  38.5511118  72.0234039
   3.3934014  38.0174709  72.8171157   2.8490208  38.0246324  71.4045016
  15.7576184  51.0500509  74.9174697  16.3094492  51.2132131  75.6823782
  16.0982377  51.6404947  74.2454722  10.7340677  33.3975659  75.5196581
  10.7982004  34.2590490  75.1073979  10.6707797  32.7849661  74.7868940
  10.2092950  35.4698791  79.1669616  10.8364988  35.0875869  79.7807140
   9.3520868  35.2512993  79.5325308  20.6087058  45.8761767  80.7723351
  21.1526962  46.4891725  80.2778306  20.0273903  46.4341345  81.2890364
   6.9858492  37.2775221  65.0987971   7.2811933  36.3685899  65.0455024
   6.0846528  37.2562960  64.7768973  18.8944571  48.9982485  71.9038379
  18.7695711  48.1972224  71.3949324  19.5523662  49.4928678  71.4152349
  10.5152739  35.3531217  71.0815519   9.7939325  35.9667185  70.9422992
  11.3045995  35.8888982  71.0032165  20.9579480  46.7991505  73.5317929
  20.0109815  46.6796856  73.4596256  21.3062253  45.9114003  73.6144190
  13.3179053  32.6885644  77.3556171  13.8413455  32.9347940  78.1182480
  13.0991386  33.5205678  76.9359308   8.7146334  34.9589318  65.2227296
   8.3859040  34.0786697  65.0402402   9.0685705  34.9036987  66.1103685
  17.9625913  46.5944221  69.7322281  17.8150875  45.6660928  69.9129851
  18.7879406  46.6164312  69.2479356  11.8288157  35.2462288  65.5902773
  12.1684230  35.7748209  64.8681382  12.2760278  35.5842694  66.3661340
  21.5660035  47.4172780  70.8187154  22.4906582  47.2115641  70.6811605
  21.3975338  47.1689181  71.7276495  14.5231598  33.6299339  75.0405841
  14.1828418  32.8307152  75.4426521  13.8170604  33.9301050  74.4682675
  15.1748070  30.7148651  73.4933164  15.9974139  30.2409129  73.3712055
  15.4186133  31.4939135  73.9931851  13.8156304  33.7436910  63.7896066
  14.5364667  34.1218162  63.2859783  13.1921608  34.4625786  63.8931044
  17.9587427  34.4482059  64.7254398  18.1751042  35.3306696  64.4243227
  17.4781494  34.0568272  63.9960040  12.6986649  37.4067772  71.3025143
  12.5531229  37.7208075  72.1949425  12.2211852  38.0252672  70.7496042
  14.5583031  34.3970320  71.3506033  14.5444600  33.5011413  71.0138331
  15.2755460  34.4040984  71.9844319  16.4109162  34.8307660  73.3959160
  16.1526940  35.7524731  73.3943490  15.8794202  34.4338095  74.0859624
  21.3555351  47.9358447  66.1749245  21.5292228  47.3704870  65.4223098
  21.8484242  48.7359342  65.9928735   7.1732311  39.9473116  74.2412804
   6.6285779  40.7232924  74.3733079   8.0511661  40.2943921  74.0831926
  13.9619927  33.2784700  66.6193603  14.0835839  32.3501346  66.8184490
  13.6721970  33.2923386  65.7071918  16.8311118  30.9639610  69.7560323
  16.8532815  31.0278944  68.8012302  17.2479177  30.1244119  69.9500829
  27.2094742  40.6994870  67.7939545  27.6525888  39.9502195  67.3958668
  26.3321252  40.6905006  67.4113277  22.3430523  47.2525212  63.2746144
  23.0381428  47.8731904  63.4933458  22.6853673  46.4020563  63.5498522
   7.9598333  39.0743012  77.1342961   7.2180069  39.2225648  77.7207592
   7.6391077  39.3351278  76.2709711  24.2421946  44.7024917  64.8033474
  24.7673271  45.0412190  64.0782795  24.1544299  43.7671932  64.6196609
  15.9041995  48.6158991  76.9323351  16.2129122  48.3708137  77.8046051
  16.7017477  48.8205629  76.4442221  15.9262607  50.7696900  69.1628728
  15.4867598  50.2773279  69.8561584  16.6770724  50.2269868  68.9220803
   8.4054946  46.9608441  69.1653356   9.2312966  46.6612213  68.7851999
   8.0548998  46.1916064  69.6143144  13.3736479  46.3134909  71.2351029
  12.7516489  45.6505614  70.9353257  14.0441346  46.3396041  70.5524677
   6.6063551  44.8794768  70.1242289   5.7695460  44.4516942  69.9426291
   6.5787197  45.0727211  71.0613081  13.4461007  34.7916697  80.8283535
  13.4949162  35.6678820  80.4461305  13.9883521  34.2494090  80.2555179
  23.9315853  45.3357821  80.1084672  23.1411396  45.3181960  79.5689172
  23.6949207  45.8746114  80.8633709  24.0513728  42.1850287  77.4217401
  24.1011733  42.0200294  78.3632924  23.9427651  41.3177546  77.0315282
  12.9349986  44.8638833  64.7109490  13.0838107  45.5474297  64.0576163
  13.7416430  44.8443923  65.2258946  21.3417490  38.1681215  78.7376708
  22.2427353  38.0287680  78.4460705  21.4165464  38.3335670  79.6774885
  15.6760295  35.5448070  77.5829894  14.8063605  35.8381636  77.3112483
  15.9119776  36.1288515  78.3037158  25.5531924  44.6047229  77.6659423
  25.2616733  44.9677209  78.5022883  24.9404056  43.8914237  77.4872755
  26.7527607  42.1700108  70.1861993  27.5874498  42.6089912  70.3499553
  26.8886736  41.6938762  69.3670239  23.8019113  39.7279843  76.1339481
  24.2773234  39.9207490  75.3258332  22.8784678  39.7839029  75.8882864
  10.6902619  40.8904010  65.7170559  10.4448661  39.9866340  65.9150769
  10.8598534  40.8921161  64.7750037  18.3799329  31.7627687  75.0995314
  18.8981273  32.4988714  74.7741803  18.0254462  32.0691680  75.9342074
   9.9598267  36.6232368  63.2156720   9.2667512  36.6976723  62.5596756
   9.7150019  35.8592712  63.7378237  18.6311923  28.1827969  70.6196211
  18.9113677  27.5151158  71.2456638  19.4162530  28.3757065  70.1070875
  16.4345392  47.3586963  62.1821237  15.8619359  47.9777150  61.7291709
  17.0078185  47.9086325  62.7161159  22.5020782  36.6045603  74.3667786
  23.4538205  36.7043701  74.3880010  22.3324232  35.8123872  74.8765870
  20.5235161  33.6901186  74.5527187  19.9285093  33.9706199  73.8573676
  20.2384858  34.1795087  75.3243928  19.6542652  47.6424113  63.3129820
  20.5873325  47.5769675  63.5162695  19.5665864  48.4780380  62.8544352
  22.2830668  46.9589984  60.2733767  22.2044300  46.6249847  61.1669525
  23.1040335  47.4511752  60.2725239  24.9808859  39.8251723  73.4810086
  24.9485180  38.8867724  73.6669770  25.5909483  39.9035760  72.7475911
  16.8192190  38.6947776  59.5237290  17.7651295  38.5653984  59.5925708
  16.4406435  37.9562438  60.0006718  25.1303348  36.6162766  73.5268369
  24.6142397  35.8321223  73.3398298  26.0143296  36.2881483  73.6914888
  22.7914075  30.3603782  69.4864182  22.5938896  30.0518870  70.3707514
  23.4013780  31.0865421  69.6162111  30.7985409  40.8867730  72.6216123
  31.5288798  40.6253018  73.1823826  30.1892355  40.1496452  72.6618191
  28.8800706  39.0275592  73.2190574  28.1533870  38.8931557  72.6107065
  28.4647993  39.3352421  74.0247292  16.7030883  42.7465522  80.9837947
  17.6233892  42.9244121  81.1777993  16.6680466  41.8021567  80.8317646
  15.0035107  36.6197752  59.4592175  14.0966563  36.3230865  59.5354889
  15.2811088  36.3227570  58.5926461   5.9213048  37.9404116  69.9091221
   5.6015832  37.0869424  69.6165595   5.3746476  38.1552694  70.6649189
   9.6992955  40.6566557  73.6260728   9.9178965  41.5883665  73.6448762
  10.1118729  40.2974531  74.4115532  16.6197173  31.1634642  65.6136416
  15.8097902  30.8181727  65.9891662  17.3081590  30.8542186  66.2024028
  18.5487721  30.2412689  67.2360713  19.1018760  30.6608142  67.8950736
  18.7857808  29.3148437  67.2783669  14.5720821  36.2299762  83.0163477
  14.4717548  37.1794119  82.9475568  14.3542363  35.9018001  82.1439547
  13.7733892  33.4784688  59.6004154  14.6353056  33.8039586  59.8599972
  13.9584236  32.6916183  59.0877220   5.7901308  41.5607027  71.8784343
   5.0964779  41.1460980  71.3654297   6.5374299  41.6027564  71.2817762
  21.9266529  32.3513214  66.7439377  21.3465198  33.0098018  66.3617430
  21.6602461  31.5290559  66.3326795  20.3770095  31.7518272  68.9460698
  20.8769873  31.8634806  68.1375016  21.0205703  31.4479325  69.5861506
  14.4352091  39.6596901  81.8328539  13.9519172  40.4597261  82.0392428
  14.5213030  39.6704846  80.8795983   7.7038050  41.4925281  69.7550358
   7.6808738  41.5912968  68.8032241   8.0138687  42.3390432  70.0767524
  10.3625428  43.5501436  73.8696972  11.3168682  43.5185378  73.8026904
  10.1637952  43.0892060  74.6847198  10.9524810  42.1202552  76.4367770
  11.7717699  42.6146631  76.4602607  11.2261618  41.2034520  76.4085337
  20.7091407  34.5113304  65.7995726  19.8217262  34.7962955  65.5815920
  21.1245396  34.3507068  64.9523002  24.0605943  34.5359825  69.5150065
  24.8366333  35.0256278  69.7874682  23.3354077  34.9617880  69.9721934
  26.4978501  35.2487445  70.5724005  27.0922992  35.0083181  69.8617314
  26.5705085  34.5294575  71.1997542   8.7175657  49.0921056  70.8867170
   8.5830125  48.3321456  70.3205168   8.3007719  49.8161955  70.4195959
  19.8534620  44.2757979  59.8943745  20.5570470  44.4807982  60.5101401
  19.1297269  44.8434741  60.1592829  20.6832430  40.0267840  66.0146016
  20.6267632  40.4836392  65.1753648  21.2360773  39.2658525  65.8368858
  24.4937236  35.8157572  66.8396135  24.2374170  35.4154208  67.6704343
  23.8690104  36.5301366  66.7146274  28.8049574  38.5553645  69.3467427
  28.2449132  38.6246835  70.1198989  28.1993077  38.3794630  68.6266923
  11.8744783  49.9890373  71.0985613  11.7577167  50.9335805  70.9964303
  11.0537229  49.6863934  71.4871412  21.7621317  44.7140508  61.9442206
  22.5966921  44.2821707  61.7619680  21.6005660  44.5422522  62.8719100
  21.4167210  41.2172622  63.3098545  21.3616013  41.0516893  62.3686989
  20.7913265  41.9248654  63.4660735   6.2059725  36.4540686  77.1359967
   6.8518588  35.9439640  77.6247192   5.9976876  37.1909368  77.7103392
  18.7313117  43.5221533  82.6352108  19.6004276  43.6962186  82.2738743
  18.2519868  44.3415950  82.5127837  14.7263335  30.7180731  62.8883863
  14.7142005  31.6622570  63.0452134  15.6186757  30.5350876  62.5943324
  12.8999297  50.6418634  74.3141541  13.8026544  50.6742245  74.6308036
  12.6736667  49.7119085  74.3287877  14.6552899  49.3949621  70.9751620
  13.7048530  49.3951483  70.8615992  14.9585385  48.6482356  70.4587655
  18.5415455  27.3123507  67.1429800  17.7747850  26.7581994  67.2886482
  18.9526160  27.3845376  68.0043952  10.5457216  33.6008303  81.2334981
  11.4088677  33.2445108  81.4438306   9.9722626  33.2622198  81.9210386
  30.3905593  55.2310159  72.0397382  31.0284002  55.1116907  71.3360722
  30.2726435  56.1791003  72.0985334  27.1995299  55.1837587  71.9758907
  26.8613810  55.0678652  71.0879442  28.0685067  54.7828753  71.9559913
  23.0582115  57.0373064  67.9655798  22.4946980  56.9463001  67.1972086
  22.9434510  56.2172968  68.4458290  27.6815082  56.3372439  77.9345112
  27.6703723  55.9425237  77.0625616  27.8435721  55.6038512  78.5278884
  20.6046546  58.5324255  70.8040018  21.3967838  58.1915080  70.3886318
  20.8443197  58.6419231  71.7242172  28.6381673  60.7044032  63.2770263
  27.9869653  61.2898112  62.8904277  29.4326036  61.2350227  63.3365300
  22.5637300  57.7933169  63.6757397  23.3368176  57.2462156  63.5370273
  22.9162699  58.6577418  63.8871859  25.3278550  56.4986400  73.4725656
  25.9242122  56.2742422  72.7582619  25.3853521  55.7571145  74.0751104
  24.9003578  53.9525835  61.3075847  25.1529099  53.4307356  60.5459310
  23.9628137  53.7891980  61.4102531  29.9446861  52.9561613  69.1150590
  30.7309950  52.5381036  68.7641007  30.2085565  53.8607705  69.2832239
  30.1156938  58.3934464  63.8139247  29.4802771  58.4669090  64.5260152
  29.7854345  58.9828062  63.1358326  35.3455288  52.8936846  70.0183569
  36.0780460  52.3236063  70.2521398  34.5894644  52.5058447  70.4590074
  24.6199867  55.8553941  63.5100222  24.5036125  55.1798844  64.1781306
  24.7302127  55.3686315  62.6932375  26.9631408  55.3164088  67.2146911
  26.5989615  54.7894709  67.9259833  27.8198524  54.9262557  67.0413397
  32.8680708  46.6058421  74.4778177  32.5364033  47.4753832  74.2539392
  32.2726322  46.2894705  75.1572208  26.6036895  50.3453988  62.2108260
  26.7711297  51.2134224  62.5778731  26.4134064  50.5081269  61.2869549
  22.8124710  55.2584763  69.9110795  21.8875206  55.1260977  70.1188486
  23.0609123  56.0378983  70.4080737  32.7609372  51.3253507  71.5571527
  31.8526249  51.2568915  71.2630288  32.7096968  51.8025452  72.3853353
  26.5826116  52.8011645  63.1954927  26.4625741  53.2468696  64.0340407
  25.8878704  53.1496963  62.6368465  20.1733521  54.9018037  70.7454584
  20.3025902  55.1552516  71.6593995  19.4930972  55.4945745  70.4259239
  24.3433008  65.5715287  66.8445058  24.2657038  66.5223112  66.9233538
  23.7394651  65.2261159  67.5019984  26.8350238  52.7443152  79.5006425
  26.0583572  53.3037072  79.4909289  27.4740801  53.2299935  80.0221295
  34.6271018  49.5269945  73.3349401  33.9845398  49.8202478  72.6889196
  34.1225947  49.4122865  74.1402598  32.2811182  53.2733118  64.0235261
  33.1929038  53.5060505  63.8482958  31.7720829  53.8570163  63.4610339
  25.0896610  55.5528606  79.0624392  25.8311294  56.0913650  78.7859215
  24.3833595  56.1794894  79.2195944  26.9183020  52.6330353  75.0330110
  27.7644215  53.0569766  75.1764759  26.8581657  51.9763977  75.7268673
  30.8880764  58.2558937  71.4148842  30.2589627  58.4204651  70.7124910
  30.5006426  58.6700546  72.1859806  34.7669996  59.1913375  68.7693206
  34.0821034  59.5712276  68.2190239  34.8513845  59.8008701  69.5025154
  30.0682465  50.2934721  76.6911284  29.8243397  51.0476782  76.1545560
  30.3442395  50.6720069  77.5258531  32.0220928  56.8373334  75.3688549
  32.2337823  57.4805094  74.6922930  31.9750676  56.0035650  74.9010479
  29.6247157  49.4491154  72.2725122  28.7631636  49.7472408  72.5641859
  29.6509591  49.6661553  71.3406154  26.4408726  57.9933345  68.6798927
  26.9047072  58.2721048  67.8903550  26.1765524  57.0916789  68.4972018
  23.3332807  57.5404826  71.6178690  23.9034164  57.9692095  70.9796175
  23.9240919  57.2587411  72.3162876  25.3777612  54.1156497  65.4888492
  26.0801655  54.5677541  65.9562419  25.0458241  53.4740316  66.1168385
  23.8257974  52.7068254  79.8639702  23.1956634  53.3884535  80.0975099
  23.7194062  52.5951335  78.9192840  19.1202946  52.3740050  70.7905626
  18.3302000  52.6297578  70.3145737  19.6114193  53.1888388  70.8957666
  21.0717691  52.7384629  67.7489103  20.2748855  52.8503323  68.2672598
  20.8443284  53.0771281  66.8829993  17.4040649  52.6270540  73.2220617
  17.6548687  53.5117550  73.4878193  17.9400197  52.4475142  72.4495709
  41.2272749  56.0584038  69.8895878  40.4736457  55.4891436  69.7339883
  41.3620290  56.0246702  70.8366513  26.6171377  60.9297440  65.5650598
  26.4817052  61.7748976  65.9935445  27.1581189  61.1316717  64.8016531
  23.1038716  47.0089020  82.2264953  22.7105662  46.4555218  82.9012597
  23.9204857  47.3199598  82.6171470  20.0700774  58.4472878  66.1378523
  20.5825295  59.2416128  66.2884087  20.7223487  57.7499168  66.0712124
  21.8795659  61.5638634  68.2201276  22.0562287  62.4856599  68.0322260
  22.6752492  61.2497053  68.6495656  26.0206677  48.4246899  79.8185209
  26.7616391  49.0254052  79.7389672  26.2524600  47.6824537  79.2603252
  21.1648015  53.6103266  78.0963439  21.0501531  52.7088523  78.3970538
  20.3092533  53.8566963  77.7448256  29.9663840  44.4528002  74.0949491
  29.6228110  45.3429643  74.0188602  30.3342803  44.2629659  73.2319076
  18.0349691  56.7761532  66.9138093  18.8724913  57.1858541  66.6971801
  18.2127959  55.8360974  66.8838287  29.9314123  54.4436613  62.6021926
  29.4160746  55.2141217  62.8410314  29.6591431  53.7701749  63.2254988
  27.5161234  49.2886314  67.6607165  26.6602830  48.8993164  67.4812803
  27.9288186  49.3678274  66.8006950  29.0460381  46.8232657  72.0598724
  28.5425176  46.7862792  71.2466530  29.3390988  47.7325400  72.1195381
  25.2903267  46.9071387  71.0664906  26.1556263  46.7114195  70.7070796
  25.3580775  46.6781738  71.9934263  34.9048397  57.1968967  64.5375100
  34.1277840  56.8580127  64.0930262  35.5839878  57.2021591  63.8630065
  29.7200426  52.3163705  64.4281707  29.4150562  52.6309854  65.2791851
  30.6730868  52.3945125  64.4709040  28.1646858  58.4753928  66.0774661
  27.6368220  57.7406688  65.7647899  27.6634361  59.2528605  65.8314630
  33.1439704  56.6702949  71.1941708  32.4863379  57.3602210  71.2821836
  33.9480103  57.0599381  71.5375694  22.8965586  49.1373595  68.4381273
  23.4709338  48.9148776  67.7054466  23.4836568  49.2062289  69.1909874
  31.9545163  55.0247321  69.2445649  32.4677045  55.6577313  69.7467359
  32.6046387  54.4248517  68.8789009  23.2235173  51.1678056  62.4577158
  22.3872485  51.5052742  62.7786433  23.0839942  51.0327035  61.5204295
  25.1988253  46.0114843  67.1656342  24.5452666  45.6963861  66.5412957
  25.1568728  45.3890584  67.8916165  26.3099458  56.2934139  59.0809634
  25.4026520  56.0623392  59.2800783  26.8070490  55.4971758  59.2683616
  29.2167537  65.0031646  62.0006321  28.5429236  65.3063342  62.6091278
  29.6033359  65.8060726  61.6511778  28.4325994  52.4996777  71.4903990
  27.5148555  52.7211724  71.3325678  28.8486137  52.5743087  70.6315697
  29.2161041  53.8988193  66.6206670  29.9632860  54.4109590  66.3113792
  29.4852631  53.5772245  67.4811064  27.4887692  56.3946733  63.6033624
  26.5798911  56.1105766  63.7006094  27.5182775  56.8145812  62.7436931
  32.7206959  60.0053323  67.3724792  32.2669286  59.1644233  67.4289982
  32.0900926  60.6414721  67.7099572  31.6639879  50.9345309  68.6025459
  30.9262635  50.4222695  68.9335702  31.9166652  50.4945691  67.7908736
  31.1639898  61.8429820  68.3074610  31.4562873  62.4034877  67.5886976
  31.6738519  62.1358381  69.0627769  31.7651506  43.7121561  69.1967229
  32.0710383  42.8518924  68.9093144  32.4904111  44.3039181  68.9966223
  18.0575862  54.1152247  67.5848827  17.8600262  53.5221608  66.8599893
  17.5022526  53.8104458  68.3024765  26.0372586  54.0075354  69.7043420
  26.0921195  53.0549190  69.6285896  25.2263788  54.1634793  70.1884718
  27.1863779  57.9355477  60.9421703  26.7483209  57.2191336  60.4827340
  27.9274220  58.1631592  60.3806794  23.9764946  52.6252414  67.4633799
  23.1632811  52.9246584  67.8698991  24.4723940  52.2308102  68.1808281
  29.5739157  53.0894238  76.2948693  29.9288545  53.3165711  77.1543158
  30.2211289  53.4212615  75.6725948  35.3036894  56.2112674  66.9998022
  35.1654793  56.4014270  66.0719211  34.9473113  56.9732057  67.4566073
  23.4679020  50.1970769  73.0795034  24.1078400  50.0559528  72.3817997
  22.6356551  49.9105283  72.7033636  35.3306274  58.2789201  72.0109293
  35.7642781  58.1864490  72.8592347  36.0437855  58.2546702  71.3729309
  24.2439324  59.4973200  69.1930026  25.0379923  59.0023520  68.9912601
  23.5331017  58.9691063  68.8297732  20.5522088  53.6416281  65.2689779
  19.6219676  53.5800737  65.4859741  20.6479560  53.1192234  64.4726420
  20.4707637  50.1671094  67.8568020  20.7314454  51.0816427  67.7477181
  21.2924809  49.6995537  68.0064633  21.9432562  51.5808851  75.0266845
  22.6155616  51.3726214  74.3779494  21.1162349  51.3830937  74.5872077
  36.1921823  58.3212902  74.5442179  36.3857714  59.2258712  74.7901453
  36.0922442  57.8620321  75.3780764  27.8458134  48.2070792  77.0432506
  27.1986049  48.9060742  76.9496982  28.6159150  48.6406936  77.4108754
  28.0222269  56.0451557  75.1029326  28.9514329  56.1962717  74.9298293
  27.6013299  56.1335578  74.2477972  27.4158752  65.1711318  64.2153400
  27.5910508  64.6999361  65.0299022  26.7291540  65.7977084  64.4434660
  28.3715815  59.4483824  70.2616701  28.0365648  59.4084594  71.1574351
  27.8719761  58.7828540  69.7887111  22.3460059  54.8551454  75.7869282
  22.2079857  54.1231693  76.3880821  23.2564983  54.7660354  75.5053470
  31.3075007  56.7939859  60.5353761  30.6904178  56.0686687  60.4386813
  30.8391496  57.5549219  60.1920835  24.9742360  54.5671414  75.2752962
  25.6841979  53.9264606  75.2339580  24.9311668  54.8184309  76.1979143
  23.6871294  51.5536632  77.0948601  23.1508651  51.1027370  77.7470198
  23.0988003  51.6882540  76.3519066  23.0973553  51.0125283  59.6575065
  22.2203019  50.8914084  59.2937312  23.5731306  50.2211361  59.4053954
  14.6175693  55.8002443  69.7516572  15.3046733  55.4864173  69.1637587
  14.4623822  56.7043807  69.4783823  19.4210415  50.6892639  74.1801596
  19.3368604  50.0818309  73.4452006  18.5993122  51.1801658  74.1811092
  26.2837479  63.3651573  66.9037585  25.5005001  63.9073254  66.9975810
  26.9830224  63.8825553  67.3031827  29.5934129  49.1746203  69.5471791
  30.0902829  48.4216165  69.2272861  28.8221111  49.2110519  68.9815000
  37.4463887  54.8786568  71.1890082  37.4353763  55.7611284  70.8184015
  36.5781266  54.5258119  70.9944619  30.6763910  57.9317890  67.1210214
  29.7420189  58.0519352  66.9514919  30.8540578  57.0290357  66.8570224
  26.1769098  51.3163586  69.2743475  25.8066885  50.7634626  69.9624381
  26.6728190  50.7121719  68.7218475  34.0636461  53.7735209  67.6560248
  34.5296913  54.6063201  67.5820551  34.5143962  53.3080191  68.3605507
  32.1312692  60.1179031  64.6546400  32.4072536  60.0035625  65.5640274
  31.2617191  59.7196515  64.6158573  32.0353124  46.1415796  71.6951150
  31.1216204  46.3720023  71.8633357  32.4646225  46.2254240  72.5465182
  31.8059582  54.3305688  74.1951044  31.1531033  54.5781596  73.5403496
  32.1839962  53.5169826  73.8613521  29.1008922  63.2933567  65.5594262
  29.6296688  62.7826021  64.9464425  29.3637141  62.9776097  66.4239795
  27.8547155  55.0725499  80.6817081  27.1787792  54.9719629  81.3519456
  28.6774789  54.9164713  81.1453078  22.4564670  64.3448683  68.3192038
  21.7875045  64.8294811  67.8356078  22.3177539  64.5917904  69.2335417
  14.1943669  53.8803036  72.0234039  14.2327769  53.3466627  72.8171157
  13.6883962  53.3538242  71.4045016  21.5734432  48.7267577  75.5196581
  21.6375758  49.5882407  75.1073979  21.5101552  48.1141578  74.7868940
  21.0486704  50.7990709  79.1669616  21.6758743  50.4167786  79.7807140
  20.1914623  50.5804911  79.5325308  17.8252247  52.6067138  65.0987971
  18.1205688  51.6977817  65.0455024  16.9240283  52.5854878  64.7768973
  21.3546494  50.6823135  71.0815519  20.6333080  51.2959103  70.9422992
  22.1439750  51.2180900  71.0032165  24.1572807  48.0177561  77.3556171
  24.6807209  48.2639858  78.1182480  23.9385141  48.8497596  76.9359308
  19.5540088  50.2881236  65.2227296  19.2252795  49.4078615  65.0402402
  19.9079459  50.2328905  66.1103685  28.8019667  61.9236139  69.7322281
  28.6544630  60.9952846  69.9129851  29.6273161  61.9456229  69.2479356
  22.6681912  50.5754206  65.5902773  23.0077984  51.1040127  64.8681382
  23.1154032  50.9134612  66.3661340  25.3625352  48.9591256  75.0405841
  25.0222173  48.1599069  75.4426521  24.6564359  49.2592967  74.4682675
  26.0141824  46.0440569  73.4933164  26.8367894  45.5701047  73.3712055
  26.2579888  46.8231053  73.9931851  24.6550059  49.0728827  63.7896066
  25.3758421  49.4510080  63.2859783  24.0315363  49.7917704  63.8931044
  28.7981182  49.7773976  64.7254398  29.0144796  50.6598614  64.4243227
  28.3175249  49.3860190  63.9960040  23.5380403  52.7359689  71.3025143
  23.3924984  53.0499993  72.1949425  23.0605607  53.3544590  70.7496042
  25.3976786  49.7262237  71.3506033  25.3838355  48.8303331  71.0138331
  26.1149214  49.7332901  71.9844319  27.2502917  50.1599578  73.3959160
  26.9920694  51.0816648  73.3943490  26.7187957  49.7630012  74.0859624
  18.0126065  55.2765034  74.2412804  17.4679533  56.0524842  74.3733079
  18.8905415  55.6235838  74.0831926  24.8013682  48.6076618  66.6193603
  24.9229593  47.6793264  66.8184490  24.5115724  48.6215304  65.7071918
  27.6704872  46.2931528  69.7560323  27.6926569  46.3570861  68.8012302
  28.0872931  45.4536037  69.9500829  38.0488497  56.0286788  67.7939545
  38.4919643  55.2794113  67.3958668  37.1715007  56.0196924  67.4113277
  33.1824278  62.5817129  63.2746144  33.8775182  63.2023822  63.4933458
  33.5247428  61.7312480  63.5498522  18.7992087  54.4034930  77.1342961
  18.0573823  54.5517565  77.7207592  18.4784831  54.6643196  76.2709711
  35.0815701  60.0316835  64.8033474  35.6067025  60.3704107  64.0782795
  34.9938054  59.0963850  64.6196609  19.2448701  62.2900359  69.1653356
  20.0706721  61.9904131  68.7851999  18.8942753  61.5207981  69.6143144
  17.4457306  60.2086685  70.1242289  16.6089214  59.7808860  69.9426291
  17.4180951  60.4019129  71.0613081  24.2854761  50.1208615  80.8283535
  24.3342917  50.9970738  80.4461305  24.8277276  49.5786008  80.2555179
  34.8907482  57.5142205  77.4217401  34.9405487  57.3492212  78.3632924
  34.7821405  56.6469464  77.0315282  23.7743741  60.1930750  64.7109490
  23.9231861  60.8766215  64.0576163  24.5810184  60.1735840  65.2258946
  32.1811244  53.4973133  78.7376708  33.0821107  53.3579598  78.4460705
  32.2559219  53.6627588  79.6774885  26.5154050  50.8739988  77.5829894
  25.6457359  51.1673554  77.3112483  26.7513530  51.4580433  78.3037158
  36.3925679  59.9339146  77.6659423  36.1010487  60.2969127  78.5022883
  35.7797810  59.2206155  77.4872755  37.5921361  57.4992026  70.1861993
  38.4268253  57.9381830  70.3499553  37.7280490  57.0230679  69.3670239
  34.6412867  55.0571761  76.1339481  35.1166989  55.2499407  75.3258332
  33.7178433  55.1130947  75.8882864  21.5296374  56.2195928  65.7170559
  21.2842416  55.3158258  65.9150769  21.6992288  56.2213079  64.7750037
  29.2193084  47.0919604  75.0995314  29.7375027  47.8280631  74.7741803
  28.8648216  47.3983598  75.9342074  20.7992021  51.9524286  63.2156720
  20.1061266  52.0268641  62.5596756  20.5543773  51.1884629  63.7378237
  29.4705678  43.5119887  70.6196211  29.7507432  42.8443076  71.2456638
  30.2556285  43.7048983  70.1070875  27.2739146  62.6878881  62.1821237
  26.7013113  63.3069068  61.7291709  27.8471940  63.2378243  62.7161159
  33.3414536  51.9337521  74.3667786  34.2931959  52.0335619  74.3880010
  33.1717987  51.1415790  74.8765870  31.3628916  49.0193104  74.5527187
  30.7678848  49.2998117  73.8573676  31.0778612  49.5087005  75.3243928
  30.4936406  62.9716031  63.3129820  31.4267079  62.9061593  63.5162695
  30.4059619  63.8072298  62.8544352  33.1224423  62.2881901  60.2733767
  33.0438054  61.9541765  61.1669525  33.9434090  62.7803669  60.2725239
  35.8202614  55.1543641  73.4810086  35.7878934  54.2159641  73.6669770
  36.4303238  55.2327677  72.7475911  27.6585945  54.0239694  59.5237290
  28.6045050  53.8945902  59.5925708  27.2800190  53.2854356  60.0006718
  35.9697102  51.9454684  73.5268369  35.4536151  51.1613141  73.3398298
  36.8537051  51.6173401  73.6914888  33.6307829  45.6895700  69.4864182
  33.4332650  45.3810788  70.3707514  34.2407535  46.4157339  69.6162111
  41.6379164  56.2159647  72.6216123  42.3682552  55.9544936  73.1823826
  41.0286109  55.4788369  72.6618191  39.7194461  54.3567510  73.2190574
  38.9927624  54.2223475  72.6107065  39.3041748  54.6644339  74.0247292
  25.8428862  51.9489670  59.4592175  24.9360317  51.6522783  59.5354889
  26.1204843  51.6519488  58.5926461  16.7606802  53.2696033  69.9091221
  16.4409587  52.4161342  69.6165595  16.2140231  53.4844612  70.6649189
  20.5386710  55.9858474  73.6260728  20.7572720  56.9175582  73.6448762
  20.9512484  55.6266449  74.4115532  27.4590928  46.4926560  65.6136416
  26.6491656  46.1473645  65.9891662  28.1475345  46.1834103  66.2024028
  29.3881476  45.5704607  67.2360713  29.9412515  45.9900060  67.8950736
  29.6251562  44.6440355  67.2783669  25.4114575  51.5591680  83.0163477
  25.3111302  52.5086037  82.9475568  25.1936117  51.2309919  82.1439547
  24.6127647  48.8076605  59.6004154  25.4746811  49.1331504  59.8599972
  24.7977991  48.0208101  59.0877220  16.6295062  56.8898945  71.8784343
  15.9358534  56.4752898  71.3654297  17.3768053  56.9319481  71.2817762
  32.7660283  47.6805132  66.7439377  32.1858952  48.3389936  66.3617430
  32.4996216  46.8582476  66.3326795  31.2163849  47.0810189  68.9460698
  31.7163628  47.1926724  68.1375016  31.8599457  46.7771242  69.5861506
  25.2745845  54.9888819  81.8328539  24.7912927  55.7889179  82.0392428
  25.3606784  54.9996764  80.8795983  18.5431805  56.8217199  69.7550358
  18.5202493  56.9204886  68.8032241  18.8532441  57.6682349  70.0767524
  31.5485161  49.8405222  65.7995726  30.6611016  50.1254873  65.5815920
  31.9639150  49.6798985  64.9523002  34.8999697  49.8651743  69.5150065
  35.6760087  50.3548196  69.7874682  34.1747831  50.2909797  69.9721934
  37.3372256  50.5779362  70.5724005  37.9316747  50.3375098  69.8617314
  37.4098840  49.8586493  71.1997542  19.5569412  64.4212973  70.8867170
  19.4223879  63.6613374  70.3205168  19.1401474  65.1453873  70.4195959
  30.6928375  59.6049897  59.8943745  31.3964225  59.8099899  60.5101401
  29.9691023  60.1726659  60.1592829  31.5226185  55.3559758  66.0146016
  31.4661386  55.8128309  65.1753648  32.0754527  54.5950443  65.8368858
  35.3330991  51.1449490  66.8396135  35.0767925  50.7446126  67.6704343
  34.7083859  51.8593284  66.7146274  39.6443329  53.8845563  69.3467427
  39.0842887  53.9538752  70.1198989  39.0386832  53.7086548  68.6266923
  32.6015072  60.0432426  61.9442206  33.4360676  59.6113624  61.7619680
  32.4399415  59.8714440  62.8719100  32.2560964  56.5464539  63.3098545
  32.2009768  56.3808811  62.3686989  31.6307019  57.2540572  63.4660735
  17.0453479  51.7832604  77.1359967  17.6912343  51.2731558  77.6247192
  16.8370630  52.5201285  77.7103392  25.5657090  46.0472648  62.8883863
  25.5535759  46.9914488  63.0452134  26.4580511  45.8642794  62.5943324
  29.3809209  42.6415425  67.1429800  28.6141605  42.0873912  67.2886482
  29.7919914  42.7137294  68.0043952  21.3850970  48.9300221  81.2334981
  22.2482432  48.5737026  81.4438306  20.8116381  48.5914116  81.9210386
  33.4031055  73.1225086  63.6757397  34.1761931  72.5754074  63.5370273
  33.7556454  73.9869336  63.8871859  35.7397333  69.2817753  61.3075847
  35.9922853  68.7599274  60.5459310  34.8021892  69.1183898  61.4102531
  40.9550693  73.7226381  63.8139247  40.3196526  73.7961008  64.5260152
  40.6248099  74.3119980  63.1358326  46.1849043  68.2228764  70.0183569
  46.9174215  67.6527981  70.2521398  45.4288398  67.8350365  70.4590074
  37.4219870  68.1303563  63.1954927  37.3019495  68.5760614  64.0340407
  36.7272459  68.4788880  62.6368465  45.4664773  64.8561863  73.3349401
  44.8239153  65.1494396  72.6889196  44.9619701  64.7414783  74.1402598
  43.1204936  68.6025036  64.0235261  44.0322792  68.8352423  63.8482958
  42.6114583  69.1862080  63.4610339  40.8057595  59.7819919  74.0949491
  40.4621864  60.6721561  74.0188602  41.1736557  59.5921577  73.2319076
  40.7707878  69.7728530  62.6021926  40.2554501  70.5433135  62.8410314
  40.4985186  69.0993667  63.2254988  38.3554989  64.6178231  67.6607165
  37.4996585  64.2285082  67.4812803  38.7681940  64.6970192  66.8006950
  39.8854135  62.1524575  72.0598724  39.3818931  62.1154710  71.2466530
  40.1784742  63.0617317  72.1195381  36.1297021  62.2363304  71.0664906
  36.9950018  62.0406113  70.7070796  36.1974530  62.0073656  71.9934263
  40.5594181  67.6455623  64.4281707  40.2544316  67.9601772  65.2791851
  41.5124623  67.7237042  64.4709040  42.7938917  70.3539239  69.2445649
  43.3070799  70.9869231  69.7467359  43.4440141  69.7540435  68.8789009
  34.0628927  66.4969973  62.4577158  33.2266240  66.8344660  62.7786433
  33.9233697  66.3618953  61.5204295  36.0382008  61.3406761  67.1656342
  35.3846420  61.0255778  66.5412957  35.9962482  60.7182502  67.8916165
  37.1493213  71.6226056  59.0809634  36.2420274  71.3915310  59.2800783
  37.6464245  70.8263675  59.2683616  42.5033633  66.2637227  68.6025459
  41.7656390  65.7514613  68.9335702  42.7560407  65.8237608  67.7908736
  42.6045260  59.0413479  69.1967229  42.9104137  58.1810842  68.9093144
  43.3297865  59.6331099  68.9966223  42.1468762  72.1231776  60.5353761
  41.5297932  71.3978605  60.4386813  41.6785250  72.8841137  60.1920835
  33.9367307  66.3417201  59.6575065  33.0596774  66.2206001  59.2937312
  34.4125061  65.5503279  59.4053954  25.4569448  71.1294360  69.7516572
  26.1440487  70.8156090  69.1637587  25.3017576  72.0335725  69.4783823
  44.9030216  69.1027127  67.6560248  45.3690668  69.9355119  67.5820551
  45.3537716  68.6372109  68.3605507  42.8746878  61.4707714  71.6951150
  41.9609958  61.7011941  71.8633357  43.3039980  61.5546158  72.5465182
  36.8535579  61.3732486  73.4933164  37.6761648  60.8992965  73.3712055
  37.0973642  62.1522970  73.9931851  35.4943813  64.4020745  63.7896066
  36.2152176  64.7801998  63.2859783  34.8709117  65.1209622  63.8931044
  39.6374936  65.1065894  64.7254398  39.8538550  65.9890532  64.4243227
  39.1569003  64.7152107  63.9960040  38.5098627  61.6223446  69.7560323
  38.5320324  61.6862779  68.8012302  38.9266686  60.7827954  69.9500829
  40.0586838  62.4211522  75.0995314  40.5768782  63.1572549  74.7741803
  39.7041971  62.7275515  75.9342074  40.3099432  58.8411805  70.6196211
  40.5901186  58.1734994  71.2456638  41.0950039  59.0340900  70.1070875
  43.9618177  77.6173819  60.2733767  43.8831809  77.2833683  61.1669525
  44.7827844  78.1095587  60.2725239  38.4979699  69.3531611  59.5237290
  39.4438804  69.2237819  59.5925708  38.1193944  68.6146273  60.0006718
  44.4701584  61.0187617  69.4864182  44.2726405  60.7102706  70.3707514
  45.0801289  61.7449256  69.6162111  36.6822616  67.2781588  59.4592175
  35.7754072  66.9814700  59.5354889  36.9598597  66.9811406  58.5926461
  27.6000557  68.5987951  69.9091221  27.2803341  67.7453259  69.6165595
  27.0533985  68.8136529  70.6649189  38.2984682  61.8218477  65.6136416
  37.4885410  61.4765562  65.9891662  38.9869099  61.5126021  66.2024028
  40.2275230  60.8996524  67.2360713  40.7806269  61.3191978  67.8950736
  40.4645317  59.9732272  67.2783669  35.4521401  64.1368523  59.6004154
  36.3140565  64.4623421  59.8599972  35.6371745  63.3500019  59.0877220
  43.6054038  63.0097049  66.7439377  43.0252707  63.6681853  66.3617430
  43.3389970  62.1874394  66.3326795  42.0557604  62.4102107  68.9460698
  42.5557382  62.5218642  68.1375016  42.6993212  62.1063160  69.5861506
  42.3878916  65.1697140  65.7995726  41.5004771  65.4546790  65.5815920
  42.8032905  65.0090903  64.9523002  45.7393452  65.1943661  69.5150065
  46.5153842  65.6840113  69.7874682  45.0141586  65.6201715  69.9721934
  48.1766010  65.9071280  70.5724005  48.7710501  65.6667016  69.8617314
  48.2492594  65.1878411  71.1997542  42.3619939  70.6851676  66.0146016
  42.3055141  71.1420227  65.1753648  42.9148282  69.9242360  65.8368858
  46.1724745  66.4741408  66.8396135  45.9161679  66.0738043  67.6704343
  45.5477613  67.1885201  66.7146274  43.0954719  71.8756457  63.3098545
  43.0403522  71.7100728  62.3686989  42.4700774  72.5832490  63.4660735
  36.4050844  61.3764566  62.8883863  36.3929514  62.3206406  63.0452134
  37.2974266  61.1934711  62.5943324  40.2202964  57.9707343  67.1429800
  39.4535359  57.4165829  67.2886482  40.6313668  58.0429211  68.0043952
  50.3169182  91.3627867  63.2770263  49.6657162  91.9481947  62.8904277
  51.1113545  91.8934062  63.3365300  51.7944447  89.0518299  63.8139247
  51.1590280  89.1252925  64.5260152  51.4641854  89.6411898  63.1358326
  48.2958886  91.5881275  65.5650598  48.1604561  92.4332811  65.9935445
  48.8368698  91.7900553  64.8016531  49.8434367  89.1337764  66.0774661
  49.3155729  88.3990523  65.7647899  49.3421870  89.9112440  65.8314630
  53.6332672  85.6831157  69.2445649  54.1464554  86.3161149  69.7467359
  54.2833896  85.0832352  68.8789009  44.9022682  81.8261891  62.4577158
  44.0659994  82.1636577  62.7786433  44.7627451  81.6910871  61.5204295
  50.8955046  95.6615481  62.0006321  50.2216745  95.9647178  62.6091278
  51.2820868  96.4644561  61.6511778  49.0946261  95.8295153  64.2153400
  49.2698017  95.3583197  65.0299022  48.4079049  96.4560920  64.4434660
  44.7761062  81.6709118  59.6575065  43.8990528  81.5497919  59.2937312
  45.2518815  80.8795197  59.4053954  52.3551419  88.5901725  67.1210214
  51.4207698  88.7103188  66.9514919  52.5328087  87.6874192  66.8570224
  53.8100201  90.7762866  64.6546400  54.0860045  90.6619461  65.5640274
  52.9404700  90.3780351  64.6158573  50.7796431  93.9517402  65.5594262
  51.3084197  93.4409857  64.9464425  51.0424650  93.6359932  66.4239795
  51.4125835  94.9858238  71.9038379  51.2876974  94.1847977  71.3949324
  52.0704926  95.4804431  71.4152349  54.8611787  93.2400965  63.2746144
  55.5562691  93.8607657  63.4933458  55.2034937  92.3896316  63.5498522
  48.4443871  96.7572653  69.1628728  48.0048861  96.2649032  69.8561584
  49.1951988  96.2145621  68.9220803  45.4531250  90.8514586  64.7109490
  45.6019370  91.5350050  64.0576163  46.2597693  90.8319676  65.2258946
  48.9526655  93.3462716  62.1821237  48.3800622  93.9652903  61.7291709
  49.5259449  93.8962078  62.7161159  52.1723915  93.6299866  63.3129820
  53.1054588  93.5645428  63.5162695  52.0847128  94.4656133  62.8544352
  54.8011932  92.9465737  60.2733767  54.7225563  92.6125600  61.1669525
  55.6221599  93.4387505  60.2725239  47.5216371  82.6073505  59.4592175
  46.6147826  82.3106618  59.5354889  47.7992352  82.3103323  58.5926461
  47.0902084  82.2175516  83.0163477  46.9898811  83.1669872  82.9475568
  46.8723626  81.8893754  82.1439547  46.2915156  79.4660441  59.6004154
  47.1534320  79.7915339  59.8599972  46.4765500  78.6791936  59.0877220
  52.3715884  90.2633732  59.8943745  53.0751734  90.4683735  60.5101401
  51.6478532  90.8310494  60.1592829  53.2013694  86.0143593  66.0146016
  53.1448895  86.4712145  65.1753648  53.7542036  85.2534278  65.8368858
  54.2802581  90.7016261  61.9442206  55.1148185  90.2697460  61.7619680
  54.1186924  90.5298275  62.8719100  53.9348473  87.2048375  63.3098545
  53.8797277  87.0392646  62.3686989  53.3094528  87.9124408  63.4660735
  55.5763378 103.0248817  67.9655798  55.0128243 102.9338754  67.1972086
  55.4615773 102.2048721  68.4458290  53.1227810 104.5200009  70.8040018
  53.9149102 104.1790833  70.3886318  53.3624460 104.6294984  71.7242172
  61.1562937 106.6919785  63.2770263  60.5050916 107.2773865  62.8904277
  61.9507300 107.2225980  63.3365300  55.0818564 103.7808922  63.6757397
  55.8549440 103.2337909  63.5370273  55.4343963 104.6453171  63.8871859
  57.4184842  99.9401588  61.3075847  57.6710362  99.4183109  60.5459310
  56.4809401  99.7767733  61.4102531  57.1381130 101.8429694  63.5100222
  57.0217389 101.1674597  64.1781306  57.2483390 101.3562068  62.6932375
  59.4812671 101.3039841  67.2146911  59.1170879 100.7770462  67.9259833
  60.3379787 100.9138310  67.0413397  59.1218158  96.3329741  62.2108260
  59.2892561  97.2009977  62.5778731  58.9315327  96.4957022  61.2869549
  55.3305973 101.2460516  69.9110795  54.4056469 101.1136731  70.1188486
  55.5790386 102.0254736  70.4080737  59.1007379  98.7887398  63.1954927
  58.9807004  99.2344449  64.0340407  58.4059968  99.1372716  62.6368465
  52.6914784 100.8893790  70.7454584  52.8207165 101.1428269  71.6593995
  52.0112235 101.4821498  70.4259239  56.8614271 111.5591040  66.8445058
  56.7838301 112.5098865  66.9233538  56.2575915 111.2136912  67.5019984
  55.8514071 103.5280579  71.6178690  56.4215428 103.9567848  70.9796175
  56.4422182 103.2463164  72.3162876  57.8958876 100.1032250  65.4888492
  58.5982919 100.5553294  65.9562419  57.5639504  99.4616069  66.1168385
  51.6384210  98.3615803  70.7905626  50.8483264  98.6173331  70.3145737
  52.1295457  99.1764141  70.8957666  53.5898955  98.7260382  67.7489103
  52.7930118  98.8379076  68.2672598  53.3624547  99.0647034  66.8829993
  59.1352640 106.9173193  65.5650598  58.9998315 107.7624729  65.9935445
  59.6762453 107.1192471  64.8016531  52.5882038 104.4348631  66.1378523
  53.1006558 105.2291881  66.2884087  53.2404750 103.7374921  66.0712124
  54.3976922 107.5514387  68.2201276  54.5743551 108.4732352  68.0322260
  55.1933756 107.2372806  68.6495656  53.6829279  99.5979019  78.0963439
  53.5682794  98.6964276  78.3970538  52.8273797  99.8442716  77.7448256
  55.5208238 109.0692561  74.2211618  56.0715663 108.9409624  73.4488612
  54.6819714 109.3687450  73.8706511  50.5530954 102.7637285  66.9138093
  51.3906176 103.1734294  66.6971801  50.7309222 101.8236727  66.8838287
  55.7416436  97.1553809  62.4577158  54.9053749  97.4928495  62.7786433
  55.6021206  97.0202788  61.5204295  58.8280722 102.2809892  59.0809634
  57.9207783 102.0499145  59.2800783  59.3251754 101.4847511  59.2683616
  61.7348801 110.9907399  62.0006321  61.0610499 111.2939095  62.6091278
  62.1214623 111.7936479  61.6511778  50.5757126 100.1028001  67.5848827
  50.3781525  99.5097361  66.8599893  50.0203790  99.7980211  68.3024765
  58.5553849  99.9951107  69.7043420  58.6102459  99.0424943  69.6285896
  57.7445051 100.1510546  70.1884718  59.7045043 103.9231230  60.9421703
  59.2664473 103.2067089  60.4827340  60.4455484 104.1507345  60.3806794
  56.7620588 105.4848953  69.1930026  57.5561186 104.9899273  68.9912601
  56.0512280 104.9566816  68.8297732  53.0703351  99.6292034  65.2689779
  52.1400939  99.5676490  65.4859741  53.1660823  99.1067987  64.4726420
  52.9888900  96.1546847  67.8568020  53.2495718  97.0692181  67.7477181
  53.8106073  95.6871290  68.0064633  54.4613826  97.5684604  75.0266845
  55.1336879  97.3601967  74.3779494  53.6343612  97.3706690  74.5872077
  59.9340016 111.1587071  64.2153400  60.1091771 110.6875114  65.0299022
  59.2472804 111.7852837  64.4434660  54.8641323 100.8427207  75.7869282
  54.7261121 100.1107446  76.3880821  55.7746246 100.7536108  75.5053470
  54.5001101 114.3076434  70.9893260  54.7397699 114.9394958  71.6672278
  53.6570298 113.9564474  71.2758619  55.6154816  97.0001036  59.6575065
  54.7384283  96.8789837  59.2937312  56.0912570  96.2087114  59.4053954
  59.0128963 110.1155556  73.3934764  58.9399134 110.9210528  73.9054068
  58.5706356 110.3147522  72.5682785  58.8018743 109.3527326  66.9037585
  58.0186264 109.8949007  66.9975810  59.5011488 109.8701306  67.3031827
  52.1207278 107.2973189  73.3029596  52.7060715 106.5516877  73.4357500
  51.9232116 107.6077146  74.1866260  54.9745933 110.3324436  68.3192038
  54.3056308 110.8170564  67.8356078  54.8358803 110.5793657  69.2335417
  59.1151202 112.3668180  74.9174697  59.6669510 112.5299801  75.6823782
  59.4557395 112.9572618  74.2454722  53.5667968  96.7866462  79.1669616
  54.1940006  96.4043539  79.7807140  52.7095886  96.5680664  79.5325308
  50.3433510  98.5942891  65.0987971  50.6386951  97.6853570  65.0455024
  49.4421546  98.5730631  64.7768973  53.8727757  96.6698888  71.0815519
  53.1514343  97.2834856  70.9422992  54.6621013  97.2056653  71.0032165
  52.0721352  96.2756989  65.2227296  51.7434058  95.3954368  65.0402402
  52.4260723  96.2204658  66.1103685  56.0561666  98.7235443  71.3025143
  55.9106247  99.0375746  72.1949425  55.5786870  99.3420343  70.7496042
  65.7005541 108.5692882  63.2746144  66.3956446 109.1899575  63.4933458
  66.0428691 107.7188233  63.5498522  67.5996964 106.0192588  64.8033474
  68.1248289 106.3579861  64.0782795  67.5119317 105.0839603  64.6196609
  51.7629964 108.2776112  69.1653356  52.5887984 107.9779884  68.7851999
  51.4124016 107.5083734  69.6143144  56.7311497 107.6302580  71.2351029
  56.1091507 106.9673285  70.9353257  57.4016364 107.6563712  70.5524677
  49.9638569 106.1962438  70.1242289  49.1270478 105.7684613  69.9426291
  49.9362215 106.3894882  71.0613081  56.2925004 106.1806503  64.7109490
  56.4413125 106.8641968  64.0576163  57.0991448 106.1611594  65.2258946
  54.0477637 102.2071681  65.7170559  53.8023679 101.3034011  65.9150769
  54.2173552 102.2088832  64.7750037  53.3173285  97.9400039  63.2156720
  52.6242530  98.0144394  62.5596756  53.0725037  97.1760382  63.7378237
  59.7920410 108.6754634  62.1821237  59.2194377 109.2944821  61.7291709
  60.3653203 109.2253996  62.7161159  63.0117670 108.9591784  63.3129820
  63.9448343 108.8937346  63.5162695  62.9240882 109.7948051  62.8544352
  65.6405686 108.2757654  60.2733767  65.5619318 107.9417518  61.1669525
  66.4615353 108.7679422  60.2725239  60.1767208 100.0115447  59.5237290
  61.1226313  99.8821655  59.5925708  59.7981453  99.2730109  60.0006718
  58.3610125  97.9365423  59.4592175  57.4541581  97.6398536  59.5354889
  58.6386106  97.6395241  58.5926461  49.2788066  99.2571786  69.9091221
  48.9590850  98.4037095  69.6165595  48.7321494  99.4720365  70.6649189
  53.0567973 101.9734227  73.6260728  53.2753983 102.9051335  73.6448762
  53.4693747 101.6142202  74.4115532  57.1308910  94.7952358  59.6004154
  57.9928074  95.1207257  59.8599972  57.3159254  94.0083854  59.0877220
  51.0613068 102.8092952  69.7550358  51.0383756 102.9080639  68.8032241
  51.3713705 103.6558103  70.0767524  53.7200446 104.8669107  73.8696972
  54.6743700 104.8353049  73.8026904  53.5212970 104.4059730  74.6847198
  52.0750675 110.4088726  70.8867170  51.9405143 109.6489127  70.3205168
  51.6582737 111.1329626  70.4195959  63.2109638 105.5925650  59.8943745
  63.9145488 105.7975652  60.5101401  62.4872287 106.1602412  60.1592829
  55.2319801 111.3058043  71.0985613  55.1152185 112.2503476  70.9964303
  54.4112247 111.0031605  71.4871412  65.1196335 106.0308179  61.9442206
  65.9541939 105.5989377  61.7619680  64.9580678 105.8590193  62.8719100
  56.2574315 111.9586305  74.3141541  57.1601562 111.9909915  74.6308036
  56.0311685 111.0286756  74.3287877  58.0127917 110.7117292  70.9751620
  57.0623548 110.7119153  70.8615992  58.3160403 109.9650026  70.4587655
  73.7480610 116.5477830  72.0397382  74.3859020 116.4284577  71.3360722
  73.6301453 117.4958674  72.0985334  70.5570317 116.5005258  71.9758907
  70.2188828 116.3846323  71.0879442  71.4260085 116.0996423  71.9559913
  66.4157132 118.3540735  67.9655798  65.8521998 118.2630672  67.1972086
  66.3009528 117.5340639  68.4458290  71.0390100 117.6540110  77.9345112
  71.0278741 117.2592908  77.0625616  71.2010739 116.9206183  78.5278884
  63.9621564 119.8491926  70.8040018  64.7542856 119.5082751  70.3886318
  64.2018215 119.9586901  71.7242172  71.9956691 122.0211702  63.2770263
  71.3444671 122.6065783  62.8904277  72.7901054 122.5517897  63.3365300
  65.9212318 119.1100839  63.6757397  66.6943194 118.5629827  63.5370273
  66.2737717 119.9745089  63.8871859  67.7597361 120.4377222  76.8824296
  67.4687227 121.3422853  76.7670963  68.3954345 120.4793749  77.5968366
  68.6853568 117.8154070  73.4725656  69.2817140 117.5910093  72.7582619
  68.7428539 117.0738816  74.0751104  68.2578596 115.2693506  61.3075847
  68.5104117 114.7475027  60.5459310  67.3203155 115.1059651  61.4102531
  73.3021879 114.2729284  69.1150590  74.0884968 113.8548707  68.7641007
  73.5660583 115.1775376  69.2832239  73.4731956 119.7102134  63.8139247
  72.8377789 119.7836761  64.5260152  73.1429363 120.2995733  63.1358326
  78.7030306 114.2104517  70.0183569  79.4355478 113.6403734  70.2521398
  77.9469662 113.8226118  70.4590074  67.9774885 117.1721612  63.5100222
  67.8611143 116.4966515  64.1781306  68.0877145 116.6853985  62.6932375
  70.3206426 116.6331759  67.2146911  69.9564633 116.1062380  67.9259833
  71.1773542 116.2430228  67.0413397  76.2255726 107.9226091  74.4778177
  75.8939051 108.7921502  74.2539392  75.6301340 107.6062375  75.1572208
  69.9611913 111.6621658  62.2108260  70.1286315 112.5301895  62.5778731
  69.7709082 111.8248940  61.2869549  72.7187246 120.1238637  73.8774090
  72.4187969 121.0263676  73.7689897  72.3738306 119.8570820  74.7295243
  66.1699727 116.5752434  69.9110795  65.2450224 116.4428648  70.1188486
  66.4184141 117.3546653  70.4080737  76.1184390 112.6421177  71.5571527
  75.2101267 112.5736586  71.2630288  76.0671986 113.1193122  72.3853353
  69.9401134 114.1179316  63.1954927  69.8200759 114.5636367  64.0340407
  69.2453722 114.4664634  62.6368465  63.5308539 116.2185708  70.7454584
  63.6600920 116.4720187  71.6593995  62.8505990 116.8113416  70.4259239
  67.7008026 126.8882958  66.8445058  67.6232055 127.8390783  66.9233538
  67.0969669 126.5428830  67.5019984  70.1925256 114.0610823  79.5006425
  69.4158590 114.6204743  79.4909289  70.8315819 114.5467606  80.0221295
  77.9846036 110.8437616  73.3349401  77.3420416 111.1370149  72.6889196
  77.4800965 110.7290536  74.1402598  75.6386200 114.5900789  64.0235261
  76.5504056 114.8228176  63.8482958  75.1295847 115.1737833  63.4610339
  68.4471628 116.8696276  79.0624392  69.1886312 117.4081320  78.7859215
  67.7408613 117.4962565  79.2195944  73.9226968 119.0125417  77.6596553
  74.3310324 118.5707827  76.9151186  73.2004229 118.4378044  77.9130746
  70.2758038 113.9498024  75.0330110  71.1219233 114.3737437  75.1764759
  70.2156675 113.2931648  75.7268673  74.2455782 119.5726607  71.4148842
  73.6164645 119.7372322  70.7124910  73.8581444 119.9868217  72.1859806
  78.1245014 120.5081045  68.7693206  77.4396052 120.8879947  68.2190239
  78.2088863 121.1176372  69.5025154  73.4257483 111.6102392  76.6911284
  73.1818415 112.3644452  76.1545560  73.7017413 111.9887740  77.5258531
  75.3795946 118.1541004  75.3688549  75.5912841 118.7972764  74.6922930
  75.3325694 117.3203321  74.9010479  72.9822175 110.7658825  72.2725122
  72.1206654 111.0640079  72.5641859  73.0084609 110.9829224  71.3406154
  69.7983744 119.3101016  68.6798927  70.2622090 119.5888719  67.8903550
  69.5340542 118.4084460  68.4972018  66.6907825 118.8572497  71.6178690
  67.2609182 119.2859765  70.9796175  67.2815937 118.5755082  72.3162876
  68.7352630 115.4324168  65.4888492  69.4376673 115.8845212  65.9562419
  68.4033259 114.7907987  66.1168385  67.1832992 114.0235925  79.8639702
  66.5531652 114.7052205  80.0975099  67.0769080 113.9119006  78.9192840
  76.4941774 121.0312960  73.5410907  77.3159217 120.6293147  73.2593588
  76.4904176 120.9281194  74.4927023  70.2598377 120.5797003  75.6971617
  70.3242810 121.0417410  76.5329789  69.5509301 119.9494368  75.8253927
  60.7615667 113.9438211  73.2220617  61.0123705 114.8285221  73.4878193
  61.2975215 113.7642813  72.4495709  84.5847767 117.3751708  69.8895878
  83.8311475 116.8059106  69.7339883  84.7195308 117.3414373  70.8366513
  69.9746395 122.2465111  65.5650598  69.8392069 123.0916646  65.9935445
  70.5156207 122.4484388  64.8016531  63.4275792 119.7640549  66.1378523
  63.9400313 120.5583799  66.2884087  64.0798505 119.0666839  66.0712124
  65.2370677 122.8806305  68.2201276  65.4137305 123.8024270  68.0322260
  66.0327510 122.5664724  68.6495656  64.5223033 114.9270937  78.0963439
  64.4076548 114.0256194  78.3970538  63.6667551 115.1734634  77.7448256
  71.6014871 122.8688677  79.6950940  71.1578725 122.0825056  79.3771844
  72.2632085 123.0567828  79.0294830  66.3601992 124.3984479  74.2211618
  66.9109417 124.2701542  73.4488612  65.5213468 124.6979368  73.8706511
  73.6996109 123.1491477  77.7232341  73.6814585 123.9700358  77.2312610
  74.6216029 123.0245552  77.9482482  70.1569163 120.6635606  78.5655849
  70.6897500 119.9023895  78.3355157  69.6283244 120.3709258  79.3080004
  61.3924709 118.0929203  66.9138093  62.2299931 118.5026211  66.6971801
  61.5702977 117.1528645  66.8838287  73.2889141 115.7604284  62.6021926
  72.7735764 116.5308888  62.8410314  73.0166449 115.0869420  63.2254988
  72.4035399 108.1400328  72.0598724  71.9000194 108.1030463  71.2466530
  72.6966006 109.0493070  72.1195381  78.2623415 118.5136638  64.5375100
  77.4852858 118.1747798  64.0930262  78.9414896 118.5189261  63.8630065
  73.0775444 113.6331376  64.4281707  72.7725580 113.9477525  65.2791851
  74.0305886 113.7112796  64.4709040  71.5221876 119.7921599  66.0774661
  70.9943238 119.0574359  65.7647899  71.0209379 120.5696275  65.8314630
  76.5014722 117.9870619  71.1941708  75.8438396 118.6769881  71.2821836
  77.3055121 118.3767051  71.5375694  75.3120181 116.3414992  69.2445649
  75.8252063 116.9744984  69.7467359  75.9621405 115.7416188  68.8789009
  66.5810191 112.4845726  62.4577158  65.7447503 112.8220413  62.7786433
  66.4414960 112.3494706  61.5204295  69.6674476 117.6101809  59.0809634
  68.7601538 117.3791063  59.2800783  70.1645508 116.8139428  59.2683616
  72.5742555 126.3199316  62.0006321  71.9004254 126.6231013  62.6091278
  72.9608377 127.1228397  61.6511778  71.7901012 113.8164448  71.4903990
  70.8723573 114.0379395  71.3325678  72.2061155 113.8910758  70.6315697
  72.5736059 115.2155863  66.6206670  73.3207878 115.7277261  66.3113792
  72.8427649 114.8939916  67.4811064  70.8462710 117.7114404  63.6033624
  69.9373929 117.4273437  63.7006094  70.8757793 118.1313483  62.7436931
  76.0781977 121.3220994  67.3724792  75.6244304 120.4811903  67.4289982
  75.4475944 121.9582392  67.7099572  75.0214897 112.2512980  68.6025459
  74.2837653 111.7390366  68.9335702  75.2741670 111.8113361  67.7908736
  74.5214916 123.1597490  68.3074610  74.8137891 123.7202547  67.5886976
  75.0313537 123.4526051  69.0627769  61.4150880 115.4319918  67.5848827
  61.2175280 114.8389279  66.8599893  60.8597544 115.1272128  68.3024765
  70.5438797 119.2523148  60.9421703  70.1058227 118.5359007  60.4827340
  71.2849238 119.4799263  60.3806794  69.4848541 123.9377841  69.3968063
  69.4424720 124.1638688  68.4676595  70.4011240 123.7041216  69.5453865
  72.9314175 114.4061909  76.2948693  73.2863563 114.6333382  77.1543158
  73.5786307 114.7380286  75.6725948  78.6611912 117.5280345  66.9998022
  78.5229811 117.7181941  66.0719211  78.3048131 118.2899728  67.4566073
  78.6881292 119.5956872  72.0109293  79.1217798 119.5032161  72.8592347
  79.4012873 119.5714372  71.3729309  67.6014342 120.8140870  69.1930026
  68.3954941 120.3191191  68.9912601  66.8906035 120.2858733  68.8297732
  72.4209187 123.1958966  73.5442394  72.4746209 123.7649902  74.3120110
  71.5523968 123.3660851  73.1796431  79.5496841 119.6380572  74.5442179
  79.7432731 120.5426383  74.7901453  79.4497460 119.1787992  75.3780764
  71.2033152 109.5238463  77.0432506  70.5561067 110.2228413  76.9496982
  71.9734168 109.9574607  77.4108754  74.6111950 119.7887315  80.1183059
  74.4597456 119.5597867  79.2013143  74.6016630 120.7457917  80.1314404
  71.3797286 117.3619228  75.1029326  72.3089346 117.5130388  74.9298293
  70.9588316 117.4503249  74.2477972  70.1785618 121.3869892  72.8727863
  70.0396704 121.0188677  73.7453801  69.3900214 121.9017532  72.7011821
  70.7733770 126.4878989  64.2153400  70.9485526 126.0167032  65.0299022
  70.0866558 127.1144755  64.4434660  71.7290833 120.7651495  70.2616701
  71.3940666 120.7252265  71.1574351  71.2294779 120.0996211  69.7887111
  65.7035077 116.1719125  75.7869282  65.5654875 115.4399364  76.3880821
  66.6140001 116.0828025  75.5053470  74.6650025 118.1107529  60.5353761
  74.0479196 117.3854358  60.4386813  74.1966514 118.8716890  60.1920835
  68.3317378 115.8839084  75.2752962  69.0416997 115.2432277  75.2339580
  68.2886686 116.1351979  76.1979143  76.3204157 122.8206438  78.1959541
  76.2616703 122.1365658  77.5290124  76.7223675 123.5625428  77.7440167
  67.0446312 112.8704302  77.0948601  66.5083669 112.4195041  77.7470198
  66.4563020 113.0050211  76.3519066  65.3394856 129.6368352  70.9893260
  65.5791454 130.2686876  71.6672278  64.4964052 129.2856392  71.2758619
  66.4548571 112.3292954  59.6575065  65.5778037 112.2081754  59.2937312
  66.9306324 111.5379032  59.4053954  76.3221564 120.7846022  76.4273521
  75.4348343 120.4471943  76.5499920  76.8920115 120.0529053  76.6642286
  57.9750711 117.1170113  69.7516572  58.6621751 116.8031843  69.1637587
  57.8198840 118.0211478  69.4783823  69.8522717 125.4447474  73.3934764
  69.7792889 126.2502446  73.9054068  69.4100110 125.6439440  72.5682785
  69.6412497 124.6819244  66.9037585  68.8580019 125.2240924  66.9975810
  70.3405242 125.1993224  67.3031827  72.9509147 110.4913874  69.5471791
  73.4477847 109.7383836  69.2272861  72.1796129 110.5278190  68.9815000
  80.8038905 116.1954239  71.1890082  80.7928781 117.0778954  70.8184015
  79.9356284 115.8425790  70.9944619  72.3121401 125.3434308  75.5492923
  73.0249373 125.9781773  75.4768824  71.8211430 125.4398174  74.7332924
  74.0338928 119.2485561  67.1210214  73.0995207 119.3687023  66.9514919
  74.2115596 118.3458028  66.8570224  77.4211479 115.0902880  67.6560248
  77.8871931 115.9230872  67.5820551  77.8718980 114.6247862  68.3605507
  67.3633314 123.0928752  76.3698493  68.0642774 123.7265234  76.5227888
  66.8928429 123.4343483  75.6094133  75.4887710 121.4346701  64.6546400
  75.7647554 121.3203296  65.5640274  74.6192209 121.0364186  64.6158573
  75.3928142 107.4583467  71.6951150  74.4791222 107.6887694  71.8633357
  75.8221243 107.5421911  72.5465182  75.1634600 115.6473359  74.1951044
  74.5106051 115.8949266  73.5403496  75.5414980 114.8337497  73.8613521
  72.1241774 125.6833052  68.2979214  72.3064169 124.8654708  68.7606966
  72.9474760 125.9000744  67.8604104  72.4583940 124.6101237  65.5594262
  72.9871706 124.0993692  64.9464425  72.7212159 124.2943767  66.4239795
  71.2122173 116.3893170  80.6817081  70.5362810 116.2887299  81.3519456
  72.0349807 116.2332384  81.1453078  62.9601032 122.6265107  73.3029596
  63.5454469 121.8808794  73.4357500  62.7625871 122.9369063  74.1866260
  65.8139688 125.6616354  68.3192038  65.1450063 126.1462482  67.8356078
  65.6752557 125.9085574  69.2335417  57.5518687 115.1970707  72.0234039
  57.5902787 114.6634297  72.8171157  57.0458980 114.6705912  71.4045016
  69.9544956 127.6960097  74.9174697  70.5063264 127.8591719  75.6823782
  70.2951150 128.2864535  74.2454722  74.8055831 122.5221355  80.7723351
  75.3495735 123.1351313  80.2778306  74.2242675 123.0800933  81.2890364
  73.0913344 125.6442073  71.9038379  72.9664483 124.8431813  71.3949324
  73.7492435 126.1388266  71.4152349  75.1548252 123.4451093  73.5317929
  74.2078587 123.3256444  73.4596256  75.5031025 122.5573591  73.6144190
  72.1594685 123.2403809  69.7322281  72.0119648 122.3120517  69.9129851
  72.9848179 123.2623900  69.2479356  75.7628807 124.0632368  70.8187154
  76.6875355 123.8575229  70.6811605  75.5944110 123.8148769  71.7276495
  68.0125077 110.3896498  63.7896066  68.7333439 110.7677751  63.2859783
  67.3890381 111.1085375  63.8931044  72.1556200 111.0941647  64.7254398
  72.3719814 111.9766285  64.4243227  71.6750267 110.7027860  63.9960040
  75.5524123 124.5818035  66.1749245  75.7261001 124.0164458  65.4223098
  76.0453015 125.3818930  65.9928735  61.3701083 116.5932705  74.2412804
  60.8254551 117.3692513  74.3733079  62.2480433 116.9403509  74.0831926
  81.4063514 117.3454458  67.7939545  81.8494661 116.5961784  67.3958668
  80.5290025 117.3364595  67.4113277  76.5399296 123.8984800  63.2746144
  77.2350200 124.5191493  63.4933458  76.8822446 123.0480151  63.5498522
  62.1567105 115.7202601  77.1342961  61.4148841 115.8685236  77.7207592
  61.8359849 115.9810866  76.2709711  78.4390719 121.3484505  64.8033474
  78.9642043 121.6871778  64.0782795  78.3513071 120.4131521  64.6196609
  70.1010768 125.2618579  76.9323351  70.4097894 125.0167726  77.8046051
  70.8986250 125.4665218  76.4442221  70.1231380 127.4156489  69.1628728
  69.6836370 126.9232867  69.8561584  70.8739497 126.8729456  68.9220803
  62.6023719 123.6068030  69.1653356  63.4281739 123.3071801  68.7851999
  62.2517771 122.8375652  69.6143144  67.5705252 122.9594498  71.2351029
  66.9485261 122.2965203  70.9353257  68.2410119 122.9855630  70.5524677
  60.8032324 121.5254356  70.1242289  59.9664232 121.0976530  69.9426291
  60.7755969 121.7186799  71.0613081  67.6429779 111.4376286  80.8283535
  67.6917935 112.3138409  80.4461305  68.1852294 110.8953679  80.2555179
  78.1284625 121.9817409  80.1084672  77.3380169 121.9641548  79.5689172
  77.8917980 122.5205703  80.8633709  78.2482500 118.8309875  77.4217401
  78.2980505 118.6659883  78.3632924  78.1396423 117.9637134  77.0315282
  67.1318759 121.5098421  64.7109490  67.2806879 122.1933886  64.0576163
  67.9385202 121.4903511  65.2258946  75.5386262 114.8140803  78.7376708
  76.4396125 114.6747268  78.4460705  75.6134237 114.9795258  79.6774885
  69.8729068 112.1907658  77.5829894  69.0032377 112.4841224  77.3112483
  70.1088548 112.7748103  78.3037158  79.7500697 121.2506817  77.6659423
  79.4585505 121.6136798  78.5022883  79.1372828 120.5373825  77.4872755
  80.9496379 118.8159697  70.1861993  81.7843271 119.2549501  70.3499553
  81.0855508 118.3398350  69.3670239  77.9987885 116.3739432  76.1339481
  78.4742007 116.5667078  75.3258332  77.0753450 116.4298617  75.8882864
  64.8871392 117.5363599  65.7170559  64.6417434 116.6325929  65.9150769
  65.0567306 117.5380749  64.7750037  72.5768102 108.4087275  75.0995314
  73.0950045 109.1448302  74.7741803  72.2223234 108.7151268  75.9342074
  64.1567039 113.2691956  63.2156720  63.4636284 113.3436311  62.5596756
  63.9118791 112.5052300  63.7378237  70.6314164 124.0046552  62.1821237
  70.0588131 124.6236739  61.7291709  71.2046958 124.5545913  62.7161159
  76.6989554 113.2505192  74.3667786  77.6506977 113.3503289  74.3880010
  76.5293005 112.4583460  74.8765870  74.7203934 110.3360775  74.5527187
  74.1253866 110.6165788  73.8573676  74.4353630 110.8254676  75.3243928
  73.8511424 124.2883702  63.3129820  74.7842097 124.2229263  63.5162695
  73.7634637 125.1239969  62.8544352  76.4799441 123.6049572  60.2733767
  76.4013072 123.2709436  61.1669525  77.3009108 124.0971340  60.2725239
  79.1777632 116.4711311  73.4810086  79.1453952 115.5327312  73.6669770
  79.7878256 116.5495348  72.7475911  71.0160963 115.3407364  59.5237290
  71.9620067 115.2113572  59.5925708  70.6375208 114.6022026  60.0006718
  79.3272120 113.2622355  73.5268369  78.8111169 112.4780811  73.3398298
  80.2112069 112.9341071  73.6914888  84.9954182 117.5327318  72.6216123
  85.7257570 117.2712606  73.1823826  84.3861127 116.7956040  72.6618191
  83.0769479 115.6735181  73.2190574  82.3502642 115.5391146  72.6107065
  82.6616766 115.9812009  74.0247292  70.8999655 119.3925110  80.9837947
  71.8202665 119.5703709  81.1777993  70.8649238 118.4481156  80.8317646
  69.2003880 113.2657341  59.4592175  68.2935335 112.9690453  59.5354889
  69.4779861 112.9687159  58.5926461  60.1181820 114.5863704  69.9091221
  59.7984605 113.7329012  69.6165595  59.5715248 114.8012282  70.6649189
  63.8961728 117.3026145  73.6260728  64.1147738 118.2343253  73.6448762
  64.3087502 116.9434120  74.4115532  70.8165946 107.8094230  65.6136416
  70.0066674 107.4641315  65.9891662  71.5050363 107.5001774  66.2024028
  72.7456494 106.8872277  67.2360713  73.2987533 107.3067731  67.8950736
  72.9826580 105.9608025  67.2783669  68.7689593 112.8759351  83.0163477
  68.6686320 113.8253708  82.9475568  68.5511135 112.5477590  82.1439547
  67.9702665 110.1244276  59.6004154  68.8321829 110.4499174  59.8599972
  68.1553009 109.3375772  59.0877220  59.9870080 118.2066616  71.8784343
  59.2933552 117.7920568  71.3654297  60.7343071 118.2487152  71.2817762
  76.1235301 108.9972802  66.7439377  75.5433970 109.6557606  66.3617430
  75.8571234 108.1750147  66.3326795  74.5738867 108.3977860  68.9460698
  75.0738646 108.5094395  68.1375016  75.2174475 108.0938913  69.5861506
  68.6320863 116.3056490  81.8328539  68.1487945 117.1056850  82.0392428
  68.7181802 116.3164435  80.8795983  61.9006823 118.1384869  69.7550358
  61.8777511 118.2372557  68.8032241  62.2107459 118.9850020  70.0767524
  64.5594201 120.1961024  73.8696972  65.5137454 120.1644967  73.8026904
  64.3606724 119.7351648  74.6847198  65.1493583 118.7662140  76.4367770
  65.9686472 119.2606219  76.4602607  65.4230391 117.8494109  76.4085337
  74.9060179 111.1572893  65.7995726  74.0186034 111.4422543  65.5815920
  75.3214168 110.9966656  64.9523002  78.2574715 111.1819414  69.5150065
  79.0335105 111.6715866  69.7874682  77.5322849 111.6077468  69.9721934
  80.6947274 111.8947033  70.5724005  81.2891765 111.6542769  69.8617314
  80.7673857 111.1754164  71.1997542  62.9144429 125.7380644  70.8867170
  62.7798897 124.9781045  70.3205168  62.4976492 126.4621544  70.4195959
  74.0503392 120.9217567  59.8943745  74.7539243 121.1267570  60.5101401
  73.3266041 121.4894329  60.1592829  74.8801203 116.6727429  66.0146016
  74.8236404 117.1295980  65.1753648  75.4329545 115.9118113  65.8368858
  78.6906009 112.4617161  66.8396135  78.4342943 112.0613796  67.6704343
  78.0658877 113.1760955  66.7146274  83.0018347 115.2013234  69.3467427
  82.4417905 115.2706423  70.1198989  82.3961850 115.0254218  68.6266923
  66.0713555 126.6349961  71.0985613  65.9545940 127.5795393  70.9964303
  65.2506002 126.3323522  71.4871412  75.9590090 121.3600097  61.9442206
  76.7935694 120.9281295  61.7619680  75.7974433 121.1882110  62.8719100
  75.6135982 117.8632210  63.3098545  75.5584786 117.6976481  62.3686989
  74.9882037 118.5708243  63.4660735  60.4028497 113.1000274  77.1359967
  61.0487361 112.5899228  77.6247192  60.1945648 113.8368956  77.7103392
  72.9281889 120.1681122  82.6352108  73.7973049 120.3421774  82.2738743
  72.4488641 120.9875539  82.5127837  68.9232108 107.3640319  62.8883863
  68.9110777 108.3082159  63.0452134  69.8155529 107.1810464  62.5943324
  67.0968069 127.2878223  74.3141541  67.9995316 127.3201833  74.6308036
  66.8705440 126.3578674  74.3287877  68.8521672 126.0409209  70.9751620
  67.9017303 126.0411071  70.8615992  69.1554158 125.2941944  70.4587655
  84.5874365 131.8769748  72.0397382  85.2252775 131.7576495  71.3360722
  84.4695208 132.8250592  72.0985334  81.3964071 131.8297176  71.9758907
  81.0582583 131.7138241  71.0879442  82.2653839 131.4288341  71.9559913
  77.2550887 133.6832652  67.9655798  76.6915752 133.5922589  67.1972086
  77.1403282 132.8632557  68.4458290  81.8783854 132.9832028  77.9345112
  81.8672495 132.5884826  77.0625616  82.0404494 132.2498100  78.5278884
  74.8015319 135.1783844  70.8040018  75.5936611 134.8374669  70.3886318
  75.0411969 135.2878819  71.7242172  82.8350446 137.3503620  63.2770263
  82.1838425 137.9357700  62.8904277  83.6294808 137.8809815  63.3365300
  76.7606073 134.4392757  63.6757397  77.5336949 133.8921744  63.5370273
  77.1131472 135.3037006  63.8871859  78.5991115 135.7669139  76.8824296
  78.3080981 136.6714770  76.7670963  79.2348100 135.8085667  77.5968366
  79.5247322 133.1445988  73.4725656  80.1210895 132.9202010  72.7582619
  79.5822294 132.4030733  74.0751104  79.0972351 130.5985423  61.3075847
  79.3497871 130.0766945  60.5459310  78.1596910 130.4351569  61.4102531
  84.1415633 129.6021202  69.1150590  84.9278723 129.1840625  68.7641007
  84.4054338 130.5067294  69.2832239  84.3125711 135.0394052  63.8139247
  83.6771544 135.1128678  64.5260152  83.9823117 135.6287651  63.1358326
  89.5424061 129.5396435  70.0183569  90.2749233 128.9695652  70.2521398
  88.7863416 129.1518035  70.4590074  78.8168639 132.5013529  63.5100222
  78.7004897 131.8258433  64.1781306  78.9270899 132.0145903  62.6932375
  81.1600180 131.9623676  67.2146911  80.7958388 131.4354297  67.9259833
  82.0167296 131.5722145  67.0413397  87.0649481 123.2518009  74.4778177
  86.7332806 124.1213420  74.2539392  86.4695094 122.9354293  75.1572208
  80.8005667 126.9913576  62.2108260  80.9680070 127.8593812  62.5778731
  80.6102836 127.1540858  61.2869549  83.5581000 135.4530555  73.8774090
  83.2581724 136.3555594  73.7689897  83.2132060 135.1862738  74.7295243
  77.0093482 131.9044352  69.9110795  76.0843978 131.7720566  70.1188486
  77.2577895 132.6838571  70.4080737  86.9578144 127.9713095  71.5571527
  86.0495022 127.9028504  71.2630288  86.9065740 128.4485040  72.3853353
  80.7794888 129.4471234  63.1954927  80.6594513 129.8928284  64.0340407
  80.0847477 129.7956551  62.6368465  74.3702293 131.5477625  70.7454584
  74.4994674 131.8012104  71.6593995  73.6899744 132.1405333  70.4259239
  78.5401780 142.2174875  66.8445058  78.4625810 143.1682700  66.9233538
  77.9363424 141.8720748  67.5019984  81.0319010 129.3902741  79.5006425
  80.2552344 129.9496661  79.4909289  81.6709573 129.8759524  80.0221295
  88.8239791 126.1729533  73.3349401  88.1814171 126.4662067  72.6889196
  88.3194719 126.0582454  74.1402598  86.4779954 129.9192707  64.0235261
  87.3897810 130.1520093  63.8482958  85.9689601 130.5029751  63.4610339
  79.2865382 132.1988194  79.0624392  80.0280067 132.7373238  78.7859215
  78.5802368 132.8254483  79.2195944  84.7620722 134.3417335  77.6596553
  85.1704078 133.8999745  76.9151186  84.0397984 133.7669962  77.9130746
  81.1151792 129.2789941  75.0330110  81.9612987 129.7029355  75.1764759
  81.0550430 128.6223566  75.7268673  85.0849537 134.9018525  71.4148842
  84.4558399 135.0664239  70.7124910  84.6975199 135.3160135  72.1859806
  88.9638769 135.8372963  68.7693206  88.2789807 136.2171864  68.2190239
  89.0482618 136.4468290  69.5025154  84.2651237 126.9394310  76.6911284
  84.0212169 127.6936370  76.1545560  84.5411168 127.3179657  77.5258531
  86.2189700 133.4832922  75.3688549  86.4306595 134.1264682  74.6922930
  86.1719448 132.6495239  74.9010479  83.8215929 126.0950743  72.2725122
  82.9600408 126.3931996  72.5641859  83.8478364 126.3121142  71.3406154
  80.6377499 134.6392933  68.6798927  81.1015844 134.9180636  67.8903550
  80.3734297 133.7376378  68.4972018  77.5301580 134.1864415  71.6178690
  78.1002937 134.6151683  70.9796175  78.1209691 133.9046999  72.3162876
  79.5746385 130.7616086  65.4888492  80.2770428 131.2137129  65.9562419
  79.2427013 130.1199904  66.1168385  78.0226746 129.3527842  79.8639702
  77.3925407 130.0344123  80.0975099  77.9162834 129.2410924  78.9192840
  73.3171719 129.0199638  70.7905626  72.5270773 129.2757167  70.3145737
  73.8082966 129.8347976  70.8957666  87.3335528 136.3604877  73.5410907
  88.1552972 135.9585065  73.2593588  87.3297931 136.2573112  74.4927023
  75.2686464 129.3844218  67.7489103  74.4717627 129.4962912  68.2672598
  75.0412056 129.7230870  66.8829993  81.0992132 135.9088921  75.6971617
  81.1636564 136.3709328  76.5329789  80.3903055 135.2786286  75.8253927
  71.6009422 129.2730129  73.2220617  71.8517460 130.1577139  73.4878193
  72.1368970 129.0934730  72.4495709  95.4241521 132.7043626  69.8895878
  94.6705230 132.1351024  69.7339883  95.5589062 132.6706290  70.8366513
  80.8140149 137.5757028  65.5650598  80.6785824 138.4208564  65.9935445
  81.3549962 137.7776306  64.8016531  77.3007489 123.6548608  82.2264953
  76.9074434 123.1014807  82.9012597  78.1173629 123.9659187  82.6171470
  74.2669547 135.0932466  66.1378523  74.7794067 135.8875717  66.2884087
  74.9192259 134.3958757  66.0712124  76.0764431 138.2098223  68.2201276
  76.2531060 139.1316187  68.0322260  76.8721265 137.8956642  68.6495656
  80.2175450 125.0706487  79.8185209  80.9585163 125.6713640  79.7389672
  80.4493373 124.3284125  79.2603252  75.3616788 130.2562854  78.0963439
  75.2470303 129.3548112  78.3970538  74.5061306 130.5026551  77.7448256
  82.4408626 138.1980595  79.6950940  81.9972480 137.4116973  79.3771844
  83.1025839 138.3859745  79.0294830  77.1995747 139.7276396  74.2211618
  77.7503172 139.5993460  73.4488612  76.3607223 140.0271285  73.8706511
  84.5389864 138.4783395  77.7232341  84.5208339 139.2992276  77.2312610
  85.4609784 138.3537470  77.9482482  80.9962918 135.9927524  78.5655849
  81.5291255 135.2315812  78.3355157  80.4676999 135.7001176  79.3080004
  84.1632613 121.0987590  74.0949491  83.8196882 121.9889232  74.0188602
  84.5311575 120.9089248  73.2319076  72.2318463 133.4221121  66.9138093
  73.0693685 133.8318129  66.6971801  72.4096731 132.4820563  66.8838287
  84.1282895 131.0896201  62.6021926  83.6129519 131.8600806  62.8410314
  83.8560204 130.4161337  63.2254988  81.7130007 125.9345902  67.6607165
  80.8571603 125.5452752  67.4812803  82.1256958 126.0137863  66.8006950
  83.2429153 123.4692245  72.0598724  82.7393949 123.4322380  71.2466530
  83.5359760 124.3784988  72.1195381  79.4872039 123.5530975  71.0664906
  80.3525036 123.3573784  70.7070796  79.5549548 123.3241327  71.9934263
  89.1017170 133.8428556  64.5375100  88.3246612 133.5039715  64.0930262
  89.7808651 133.8481179  63.8630065  83.9169199 128.9623293  64.4281707
  83.6119334 129.2769442  65.2791851  84.8699641 129.0404713  64.4709040
  82.3615631 135.1213517  66.0774661  81.8336992 134.3866276  65.7647899
  81.8603133 135.8988193  65.8314630  87.3408477 133.3162537  71.1941708
  86.6832151 134.0061799  71.2821836  88.1448876 133.7058969  71.5375694
  77.0934358 125.7833183  68.4381273  77.6678110 125.5608364  67.7054466
  77.6805341 125.8521877  69.1909874  86.1513935 131.6706910  69.2445649
  86.6645817 132.3036902  69.7467359  86.8015159 131.0708105  68.8789009
  77.4203945 127.8137644  62.4577158  76.5841257 128.1512330  62.7786433
  77.2808715 127.6786624  61.5204295  79.3957026 122.6574432  67.1656342
  78.7421438 122.3423449  66.5412957  79.3537500 122.0350172  67.8916165
  80.5068231 132.9393727  59.0809634  79.5995292 132.7082980  59.2800783
  81.0039263 132.1431346  59.2683616  83.4136310 141.6491234  62.0006321
  82.7398008 141.9522931  62.6091278  83.8002132 142.4520314  61.6511778
  82.6294766 129.1456365  71.4903990  81.7117328 129.3671312  71.3325678
  83.0454910 129.2202676  70.6315697  83.4129814 130.5447781  66.6206670
  84.1601633 131.0569178  66.3113792  83.6821404 130.2231834  67.4811064
  81.6856464 133.0406322  63.6033624  80.7767683 132.7565355  63.7006094
  81.7151548 133.4605400  62.7436931  86.9175732 136.6512911  67.3724792
  86.4638059 135.8103821  67.4289982  86.2869698 137.2874310  67.7099572
  85.8608651 127.5804897  68.6025459  85.1231408 127.0682283  68.9335702
  86.1135425 127.1405279  67.7908736  85.3608671 138.4889408  68.3074610
  85.6531645 139.0494465  67.5886976  85.8707291 138.7817969  69.0627769
  85.9620278 120.3581149  69.1967229  86.2679155 119.4978513  68.9093144
  86.6872883 120.9498769  68.9966223  72.2544635 130.7611836  67.5848827
  72.0569034 130.1681197  66.8599893  71.6991299 130.4564046  68.3024765
  80.2341358 130.6534942  69.7043420  80.2889968 129.7008779  69.6285896
  79.4232560 130.8094381  70.1884718  81.3832552 134.5815065  60.9421703
  80.9451982 133.8650924  60.4827340  82.1242993 134.8091180  60.3806794
  78.1733718 129.2712002  67.4633799  77.3601584 129.5706173  67.8698991
  78.6692712 128.8767691  68.1808281  80.3242296 139.2669759  69.3968063
  80.2818475 139.4930605  68.4676595  81.2404995 139.0333134  69.5453865
  83.7707930 129.7353827  76.2948693  84.1257317 129.9625300  77.1543158
  84.4180061 130.0672203  75.6725948  89.5005667 132.8572262  66.9998022
  89.3623565 133.0473858  66.0719211  89.1441886 133.6191645  67.4566073
  77.6647793 126.8430358  73.0795034  78.3047172 126.7019117  72.3817997
  76.8325323 126.5564871  72.7033636  89.5275046 134.9248789  72.0109293
  89.9611553 134.8324079  72.8592347  90.2406627 134.9006290  71.3729309
  78.4408097 136.1432788  69.1930026  79.2348695 135.6483108  68.9912601
  77.7299789 135.6150651  68.8297732  83.2602941 138.5250884  73.5442394
  83.3139964 139.0941820  74.3120110  82.3917723 138.6952769  73.1796431
  74.7490860 130.2875870  65.2689779  73.8188448 130.2260325  65.4859741
  74.8448332 129.7651823  64.4726420  74.6676409 126.8130683  67.8568020
  74.9283227 127.7276016  67.7477181  75.4893582 126.3455125  68.0064633
  76.1401335 128.2268440  75.0266845  76.8124388 128.0185802  74.3779494
  75.3131121 128.0290526  74.5872077  90.3890596 134.9672490  74.5442179
  90.5826486 135.8718301  74.7901453  90.2891214 134.5079909  75.3780764
  82.0426907 124.8530381  77.0432506  81.3954822 125.5520330  76.9496982
  82.8127922 125.2866525  77.4108754  85.4505705 135.1179233  80.1183059
  85.2991211 134.8889785  79.2013143  85.4410384 136.0749834  80.1314404
  82.2191041 132.6911146  75.1029326  83.1483101 132.8422305  74.9298293
  81.7982071 132.7795166  74.2477972  81.0179373 136.7161810  72.8727863
  80.8790458 136.3480594  73.7453801  80.2293969 137.2309449  72.7011821
  81.6127525 141.8170906  64.2153400  81.7879280 141.3458950  65.0299022
  80.9260313 142.4436673  64.4434660  82.5684588 136.0943413  70.2616701
  82.2334421 136.0544183  71.1574351  82.0688534 135.4288129  69.7887111
  76.5428832 131.5011043  75.7869282  76.4048630 130.7691282  76.3880821
  77.4533755 131.4119943  75.5053470  85.5043780 133.4399447  60.5353761
  84.8872950 132.7146275  60.4386813  85.0360268 134.2008807  60.1920835
  79.1711133 131.2131002  75.2752962  79.8810751 130.5724194  75.2339580
  79.1280441 131.4643897  76.1979143  87.1597911 138.1498355  78.1959541
  87.1010457 137.4657576  77.5290124  87.5617430 138.8917345  77.7440167
  77.8840067 128.1996220  77.0948601  77.3477424 127.7486958  77.7470198
  77.2956775 128.3342129  76.3519066  76.1788610 144.9660269  70.9893260
  76.4185208 145.5978793  71.6672278  75.3357806 144.6148309  71.2758619
  77.2942325 127.6584871  59.6575065  76.4171792 127.5373672  59.2937312
  77.7700079 126.8670950  59.4053954  87.1615318 136.1137939  76.4273521
  86.2742097 135.7763861  76.5499920  87.7313870 135.3820971  76.6642286
  68.8144466 132.4462031  69.7516572  69.5015505 132.1323761  69.1637587
  68.6592594 133.3503396  69.4783823  73.6179188 127.3352228  74.1801596
  73.5337376 126.7277897  73.4452006  72.7961894 127.8261246  74.1811092
  80.6916472 140.7739392  73.3934764  80.6186643 141.5794363  73.9054068
  80.2493865 140.9731358  72.5682785  80.4806251 140.0111162  66.9037585
  79.6973773 140.5532842  66.9975810  81.1798997 140.5285141  67.3031827
  83.7902902 125.8205791  69.5471791  84.2871601 125.0675754  69.2272861
  83.0189883 125.8570108  68.9815000  91.6432659 131.5246157  71.1890082
  91.6322535 132.4070872  70.8184015  90.7750038 131.1717708  70.9944619
  83.1515155 140.6726226  75.5492923  83.8643128 141.3073691  75.4768824
  82.6605184 140.7690092  74.7332924  84.8732682 134.5777478  67.1210214
  83.9388961 134.6978941  66.9514919  85.0509351 133.6749945  66.8570224
  80.3737870 127.9623174  69.2743475  80.0035658 127.4094215  69.9624381
  80.8696963 127.3581308  68.7218475  88.2605234 130.4194798  67.6560248
  88.7265686 131.2522789  67.5820551  88.7112734 129.9539779  68.3605507
  78.2027069 138.4220669  76.3698493  78.9036528 139.0557152  76.5227888
  77.7322184 138.7635401  75.6094133  86.3281465 136.7638619  64.6546400
  86.6041309 136.6495214  65.5640274  85.4585963 136.3656104  64.6158573
  86.2321896 122.7875385  71.6951150  85.3184976 123.0179612  71.8633357
  86.6614998 122.8713829  72.5465182  86.0028355 130.9765277  74.1951044
  85.3499805 131.2241184  73.5403496  86.3808735 130.1629415  73.8613521
  82.9635529 141.0124970  68.2979214  83.1457923 140.1946626  68.7606966
  83.7868515 141.2292662  67.8604104  83.2977694 139.9393155  65.5594262
  83.8265461 139.4285610  64.9464425  83.5605914 139.6235685  66.4239795
  82.0515928 131.7185088  80.6817081  81.3756565 131.6179217  81.3519456
  82.8743562 131.5624301  81.1453078  73.7994787 137.9557024  73.3029596
  74.3848224 137.2100712  73.4357500  73.6019625 138.2660981  74.1866260
  76.6533442 140.9908272  68.3192038  75.9843817 141.4754399  67.8356078
  76.5146312 141.2377492  69.2335417  68.3912442 130.5262624  72.0234039
  68.4296541 129.9926215  72.8171157  67.8852735 129.9997830  71.4045016
  80.7938711 143.0252015  74.9174697  81.3457019 143.1883637  75.6823782
  81.1344904 143.6156453  74.2454722  75.7703204 125.3727165  75.5196581
  75.8344531 126.2341996  75.1073979  75.7070324 124.7601167  74.7868940
  75.2455477 127.4450298  79.1669616  75.8727515 127.0627375  79.7807140
  74.3883395 127.2264499  79.5325308  85.6449585 137.8513273  80.7723351
  86.1889489 138.4643231  80.2778306  85.0636430 138.4092851  81.2890364
  72.0221019 129.2526727  65.0987971  72.3174460 128.3437405  65.0455024
  71.1209055 129.2314466  64.7768973  83.9307098 140.9733991  71.9038379
  83.8058238 140.1723731  71.3949324  84.5886189 141.4680184  71.4152349
  75.5515266 127.3282723  71.0815519  74.8301852 127.9418691  70.9422992
  76.3408522 127.8640488  71.0032165  85.9942006 138.7743011  73.5317929
  85.0472342 138.6548362  73.4596256  86.3424780 137.8865509  73.6144190
  78.3541580 124.6637150  77.3556171  78.8775982 124.9099446  78.1182480
  78.1353913 125.4957184  76.9359308  73.7508861 126.9340824  65.2227296
  73.4221567 126.0538203  65.0402402  74.1048232 126.8788493  66.1103685
  82.9988440 138.5695727  69.7322281  82.8513402 137.6412434  69.9129851
  83.8241933 138.5915818  69.2479356  76.8650684 127.2213794  65.5902773
  77.2046757 127.7499715  64.8681382  77.3122805 127.5594200  66.3661340
  86.6022562 139.3924286  70.8187154  87.5269109 139.1867147  70.6811605
  86.4337865 139.1440687  71.7276495  79.5594125 125.6050845  75.0405841
  79.2190945 124.8058658  75.4426521  78.8533131 125.9052556  74.4682675
  80.2110597 122.6900157  73.4933164  81.0336666 122.2160635  73.3712055
  80.4548660 123.4690641  73.9931851  78.8518831 125.7188416  63.7896066
  79.5727194 126.0969668  63.2859783  78.2284135 126.4377292  63.8931044
  82.9949954 126.4233565  64.7254398  83.2113568 127.3058203  64.4243227
  82.5144021 126.0319778  63.9960040  77.7349175 129.3819278  71.3025143
  77.5893756 129.6959581  72.1949425  77.2574379 130.0004178  70.7496042
  79.5945558 126.3721826  71.3506033  79.5807127 125.4762919  71.0138331
  80.3117986 126.3792490  71.9844319  81.4471689 126.8059166  73.3959160
  81.1889467 127.7276237  73.3943490  80.9156729 126.4089601  74.0859624
  86.3917878 139.9109953  66.1749245  86.5654755 139.3456376  65.4223098
  86.8846769 140.7110848  65.9928735  72.2094838 131.9224622  74.2412804
  71.6648306 132.6984430  74.3733079  73.0874187 132.2695427  74.0831926
  78.9982454 125.2536206  66.6193603  79.1198365 124.3252852  66.8184490
  78.7084497 125.2674892  65.7071918  81.8673645 122.9391117  69.7560323
  81.8895341 123.0030450  68.8012302  82.2841704 122.0995625  69.9500829
  92.2457269 132.6746376  67.7939545  92.6888415 131.9253701  67.3958668
  91.3683779 132.6656512  67.4113277  87.3793050 139.2276718  63.2746144
  88.0743955 139.8483410  63.4933458  87.7216200 138.3772069  63.5498522
  72.9960859 131.0494519  77.1342961  72.2542596 131.1977154  77.7207592
  72.6753604 131.3102784  76.2709711  89.2784473 136.6776423  64.8033474
  89.8035798 137.0163696  64.0782795  89.1906826 135.7423438  64.6196609
  80.9404522 140.5910497  76.9323351  81.2491649 140.3459644  77.8046051
  81.7380004 140.7957135  76.4442221  80.9625134 142.7448406  69.1628728
  80.5230124 142.2524785  69.8561584  81.7133251 142.2021374  68.9220803
  73.4417473 138.9359947  69.1653356  74.2675493 138.6363719  68.7851999
  73.0911525 138.1667570  69.6143144  78.4099006 138.2886415  71.2351029
  77.7879016 137.6257120  70.9353257  79.0803873 138.3147547  70.5524677
  71.6426078 136.8546274  70.1242289  70.8057987 136.4268448  69.9426291
  71.6149724 137.0478717  71.0613081  78.4823534 126.7668203  80.8283535
  78.5311689 127.6430326  80.4461305  79.0246048 126.2245597  80.2555179
  88.9678379 137.3109327  80.1084672  88.1773923 137.2933466  79.5689172
  88.7311734 137.8497620  80.8633709  89.0876255 134.1601793  77.4217401
  89.1374259 133.9951801  78.3632924  88.9790178 133.2929052  77.0315282
  77.9712513 136.8390339  64.7109490  78.1200634 137.5225803  64.0576163
  78.7778957 136.8195429  65.2258946  86.3780017 130.1432721  78.7376708
  87.2789880 130.0039186  78.4460705  86.4527991 130.3087176  79.6774885
  80.7122822 127.5199576  77.5829894  79.8426132 127.8133142  77.3112483
  80.9482303 128.1040021  78.3037158  90.5894451 136.5798735  77.6659423
  90.2979260 136.9428715  78.5022883  89.9766583 135.8665743  77.4872755
  91.7890134 134.1451614  70.1861993  92.6237025 134.5841418  70.3499553
  91.9249262 133.6690268  69.3670239  88.8381640 131.7031349  76.1339481
  89.3135761 131.8958996  75.3258332  87.9147205 131.7590535  75.8882864
  75.7265146 132.8655516  65.7170559  75.4811188 131.9617846  65.9150769
  75.8961061 132.8672667  64.7750037  83.4161856 123.7379193  75.0995314
  83.9343800 124.4740220  74.7741803  83.0616989 124.0443186  75.9342074
  74.9960794 128.5983874  63.2156720  74.3030039 128.6728229  62.5596756
  74.7512546 127.8344218  63.7378237  83.6674450 120.1579475  70.6196211
  83.9476204 119.4902664  71.2456638  84.4525057 120.3508571  70.1070875
  81.4707919 139.3338469  62.1821237  80.8981886 139.9528656  61.7291709
  82.0440712 139.8837831  62.7161159  87.5383309 128.5797109  74.3667786
  88.4900731 128.6795207  74.3880010  87.3686759 127.7875378  74.8765870
  85.5597688 125.6652693  74.5527187  84.9647620 125.9457705  73.8573676
  85.2747385 126.1546593  75.3243928  84.6905179 139.6175619  63.3129820
  85.6235852 139.5521181  63.5162695  84.6028391 140.4531886  62.8544352
  87.3193195 138.9341490  60.2733767  87.2406827 138.6001353  61.1669525
  88.1402862 139.4263258  60.2725239  90.0171386 131.8003229  73.4810086
  89.9847706 130.8619230  73.6669770  90.6272010 131.8787266  72.7475911
  81.8554717 130.6699282  59.5237290  82.8013822 130.5405490  59.5925708
  81.4768962 129.9313944  60.0006718  90.1665875 128.5914272  73.5268369
  89.6504924 127.8072729  73.3398298  91.0505823 128.2632989  73.6914888
  87.8276602 122.3355288  69.4864182  87.6301423 122.0270376  70.3707514
  88.4376307 123.0616927  69.6162111  95.8347936 132.8619236  72.6216123
  96.5651325 132.6004524  73.1823826  95.2254882 132.1247958  72.6618191
  93.9163233 131.0027098  73.2190574  93.1896397 130.8683063  72.6107065
  93.5010520 131.3103927  74.0247292  81.7393410 134.7217028  80.9837947
  82.6596419 134.8995627  81.1777993  81.7042993 133.7773073  80.8317646
  80.0397634 128.5949258  59.4592175  79.1329090 128.2982371  59.5354889
  80.3173615 128.2979076  58.5926461  70.9575575 129.9155622  69.9091221
  70.6378359 129.0620930  69.6165595  70.4109003 130.1304200  70.6649189
  74.7355482 132.6318063  73.6260728  74.9541492 133.5635171  73.6448762
  75.1481256 132.2726037  74.4115532  81.6559700 123.1386148  65.6136416
  80.8460428 122.7933233  65.9891662  82.3444117 122.8293692  66.2024028
  83.5850248 122.2164195  67.2360713  84.1381287 122.6359648  67.8950736
  83.8220335 121.2899943  67.2783669  79.6083348 128.2051269  83.0163477
  79.5080075 129.1545626  82.9475568  79.3904890 127.8769507  82.1439547
  78.8096419 125.4536194  59.6004154  79.6715583 125.7791092  59.8599972
  78.9946763 124.6667690  59.0877220  70.8263835 133.5358533  71.8784343
  70.1327306 133.1212486  71.3654297  71.5736826 133.5779070  71.2817762
  86.9629055 124.3264720  66.7439377  86.3827725 124.9849524  66.3617430
  86.6964988 123.5042065  66.3326795  85.4132622 123.7269778  68.9460698
  85.9132400 123.8386312  68.1375016  86.0568230 123.4230831  69.5861506
  79.4714618 131.6348407  81.8328539  78.9881699 132.4348768  82.0392428
  79.5575557 131.6456352  80.8795983  72.7400577 133.4676787  69.7550358
  72.7171265 133.5664474  68.8032241  73.0501214 134.3141938  70.0767524
  75.3987955 135.5252942  73.8696972  76.3531209 135.4936884  73.8026904
  75.2000479 135.0643566  74.6847198  75.9887337 134.0954058  76.4367770
  76.8080226 134.5898137  76.4602607  76.2624145 133.1786026  76.4085337
  85.7453934 126.4864810  65.7995726  84.8579789 126.7714461  65.5815920
  86.1607923 126.3258574  64.9523002  89.0968470 126.5111331  69.5150065
  89.8728860 127.0007784  69.7874682  88.3716604 126.9369386  69.9721934
  91.5341028 127.2238951  70.5724005  92.1285519 126.9834687  69.8617314
  91.6067612 126.5046081  71.1997542  73.7538184 141.0672562  70.8867170
  73.6192652 140.3072962  70.3205168  73.3370246 141.7913461  70.4195959
  84.8897147 136.2509485  59.8943745  85.5932997 136.4559488  60.5101401
  84.1659796 136.8186247  60.1592829  85.7194957 132.0019346  66.0146016
  85.6630159 132.4587898  65.1753648  86.2723300 131.2410031  65.8368858
  89.5299763 127.7909078  66.8396135  89.2736697 127.3905714  67.6704343
  88.9052631 128.5052872  66.7146274  93.8412101 130.5305152  69.3467427
  93.2811659 130.5998341  70.1198989  93.2355604 130.3546136  68.6266923
  76.9107310 141.9641879  71.0985613  76.7939694 142.9087311  70.9964303
  76.0899756 141.6615440  71.4871412  86.7983844 136.6892014  61.9442206
  87.6329448 136.2573213  61.7619680  86.6368187 136.5174028  62.8719100
  86.4529737 133.1924128  63.3098545  86.3978540 133.0268399  62.3686989
  85.8275792 133.9000161  63.4660735  71.2422252 128.4292192  77.1359967
  71.8881115 127.9191146  77.6247192  71.0339403 129.1660874  77.7103392
  83.7675644 135.4973039  82.6352108  84.6366803 135.6713692  82.2738743
  83.2882395 136.3167456  82.5127837  79.7625862 122.6932237  62.8883863
  79.7504532 123.6374077  63.0452134  80.6549284 122.5102382  62.5943324
  77.9361824 142.6170141  74.3141541  78.8389071 142.6493751  74.6308036
  77.7099194 141.6870591  74.3287877  79.6915426 141.3701127  70.9751620
  78.7411057 141.3702989  70.8615992  79.9947912 140.6233862  70.4587655
  83.5777981 119.2875013  67.1429800  82.8110377 118.7333500  67.2886482
  83.9888686 119.3596882  68.0043952  75.5819743 125.5759809  81.2334981
  76.4451204 125.2196614  81.4438306  75.0085153 125.2373704  81.9210386
  95.4268119 147.2061665  72.0397382  96.0646529 147.0868413  71.3360722
  95.3088962 148.1542509  72.0985334  92.2357826 147.1589094  71.9758907
  91.8976337 147.0430158  71.0879442  93.1047594 146.7580259  71.9559913
  88.0944641 149.0124570  67.9655798  87.5309507 148.9214507  67.1972086
  87.9797037 148.1924474  68.4458290  92.7177609 148.3123945  77.9345112
  92.7066250 147.9176744  77.0625616  92.8798248 147.5790018  78.5278884
  85.6409073 150.5075762  70.8040018  86.4330365 150.1666586  70.3886318
  85.8805724 150.6170737  71.7242172  87.5999827 149.7684675  63.6757397
  88.3730703 149.2213662  63.5370273  87.9525226 150.6328924  63.8871859
  90.3641077 148.4737906  73.4725656  90.9604649 148.2493928  72.7582619
  90.4216048 147.7322651  74.0751104  89.9366105 145.9277341  61.3075847
  90.1891626 145.4058862  60.5459310  88.9990664 145.7643486  61.4102531
  94.9809388 144.9313119  69.1150590  95.7672477 144.5132542  68.7641007
  95.2448092 145.8359211  69.2832239  95.1519465 150.3685970  63.8139247
  94.5165298 150.4420596  64.5260152  94.8216872 150.9579568  63.1358326
 100.3817815 144.8688352  70.0183569 101.1142987 144.2987569  70.2521398
  99.6257171 144.4809953  70.4590074  89.6562394 147.8305447  63.5100222
  89.5398652 147.1550350  64.1781306  89.7664654 147.3437821  62.6932375
  91.9993935 147.2915594  67.2146911  91.6352142 146.7646215  67.9259833
  92.8561051 146.9014063  67.0413397  97.9043235 138.5809927  74.4778177
  97.5726560 139.4505338  74.2539392  97.3088849 138.2646211  75.1572208
  91.6399422 142.3205494  62.2108260  91.8073824 143.1885730  62.5778731
  91.4496591 142.4832775  61.2869549  94.3974755 150.7822473  73.8774090
  94.0975478 151.6847511  73.7689897  94.0525814 150.5154656  74.7295243
  87.8487236 147.2336269  69.9110795  86.9237733 147.1012484  70.1188486
  88.0971650 148.0130489  70.4080737  97.7971899 143.3005013  71.5571527
  96.8888776 143.2320421  71.2630288  97.7459495 143.7776958  72.3853353
  91.6188643 144.7763151  63.1954927  91.4988268 145.2220202  64.0340407
  90.9241231 145.1248469  62.6368465  85.2096047 146.8769543  70.7454584
  85.3388429 147.1304022  71.6593995  84.5293499 147.4697251  70.4259239
  91.8712765 144.7194658  79.5006425  91.0946099 145.2788579  79.4909289
  92.5103328 145.2051441  80.0221295  99.6633545 141.5021451  73.3349401
  99.0207925 141.7953984  72.6889196  99.1588474 141.3874372  74.1402598
  97.3173709 145.2484624  64.0235261  98.2291565 145.4812011  63.8482958
  96.8083356 145.8321669  63.4610339  90.1259137 147.5280112  79.0624392
  90.8673821 148.0665156  78.7859215  89.4196122 148.1546400  79.2195944
  95.6014476 149.6709252  77.6596553  96.0097833 149.2291663  76.9151186
  94.8791738 149.0961880  77.9130746  91.9545547 144.6081859  75.0330110
  92.8006742 145.0321273  75.1764759  91.8944184 143.9515483  75.7268673
  95.9243291 150.2310443  71.4148842  95.2952154 150.3956157  70.7124910
  95.5368953 150.6452052  72.1859806  95.1044992 142.2686227  76.6911284
  94.8605924 143.0228288  76.1545560  95.3804922 142.6471575  77.5258531
  97.0583455 148.8124840  75.3688549  97.2700350 149.4556600  74.6922930
  97.0113203 147.9787156  74.9010479  94.6609684 141.4242660  72.2725122
  93.7994163 141.7223914  72.5641859  94.6872118 141.6413059  71.3406154
  91.4771253 149.9684851  68.6798927  91.9409599 150.2472554  67.8903550
  91.2128051 149.0668295  68.4972018  88.3695334 149.5156332  71.6178690
  88.9396691 149.9443601  70.9796175  88.9603446 149.2338917  72.3162876
  90.4140139 146.0908003  65.4888492  91.1164182 146.5429047  65.9562419
  90.0820768 145.4491822  66.1168385  88.8620501 144.6819760  79.8639702
  88.2319161 145.3636041  80.0975099  88.7556588 144.5702842  78.9192840
  84.1565473 144.3491556  70.7905626  83.3664527 144.6049084  70.3145737
  84.6476720 145.1639894  70.8957666  86.1080218 144.7136135  67.7489103
  85.3111382 144.8254829  68.2672598  85.8805811 145.0522787  66.8829993
  91.9385886 151.2380838  75.6971617  92.0030319 151.7001246  76.5329789
  91.2296810 150.6078203  75.8253927  82.4403176 144.6022046  73.2220617
  82.6911214 145.4869056  73.4878193  82.9762724 144.4226648  72.4495709
  88.1401243 138.9840526  82.2264953  87.7468189 138.4306724  82.9012597
  88.9567384 139.2951104  82.6171470  91.0569204 140.3998405  79.8185209
  91.7978918 141.0005558  79.7389672  91.2887127 139.6576043  79.2603252
  86.2010542 145.5854772  78.0963439  86.0864057 144.6840029  78.3970538
  85.3455060 145.8318469  77.7448256  91.8356672 151.3219442  78.5655849
  92.3685009 150.5607730  78.3355157  91.3070753 151.0293094  79.3080004
  95.0026367 136.4279508  74.0949491  94.6590637 137.3181149  74.0188602
  95.3705330 136.2381165  73.2319076  83.0712218 148.7513038  66.9138093
  83.9087440 149.1610047  66.6971801  83.2490486 147.8112480  66.8838287
  94.9676650 146.4188119  62.6021926  94.4523273 147.1892724  62.8410314
  94.6953958 145.7453255  63.2254988  92.5523761 141.2637820  67.6607165
  91.6965357 140.8744670  67.4812803  92.9650713 141.3429780  66.8006950
  94.0822908 138.7984163  72.0598724  93.5787703 138.7614298  71.2466530
  94.3753515 139.7076906  72.1195381  90.3265794 138.8822893  71.0664906
  91.1918790 138.6865701  70.7070796  90.3943302 138.6533244  71.9934263
  94.7562953 144.2915211  64.4281707  94.4513089 144.6061360  65.2791851
  95.7093395 144.3696631  64.4709040  93.2009385 150.4505434  66.0774661
  92.6730747 149.7158194  65.7647899  92.6996888 151.2280111  65.8314630
  98.1802231 148.6454455  71.1941708  97.5225905 149.3353716  71.2821836
  98.9842630 149.0350887  71.5375694  87.9328113 141.1125101  68.4381273
  88.5071865 140.8900282  67.7054466  88.5199095 141.1813795  69.1909874
  96.9907690 146.9998827  69.2445649  97.5039572 147.6328819  69.7467359
  97.6408914 146.4000023  68.8789009  88.2597700 143.1429562  62.4577158
  87.4235012 143.4804248  62.7786433  88.1202469 143.0078541  61.5204295
  90.2350780 137.9866349  67.1656342  89.5815193 137.6715367  66.5412957
  90.1931254 137.3642090  67.8916165  91.3461985 148.2685645  59.0809634
  90.4389047 148.0374898  59.2800783  91.8433017 147.4723264  59.2683616
  93.4688521 144.4748283  71.4903990  92.5511082 144.6963230  71.3325678
  93.8848664 144.5494593  70.6315697  94.2523568 145.8739699  66.6206670
  94.9995387 146.3861096  66.3113792  94.5215158 145.5523751  67.4811064
  92.5250219 148.3698239  63.6033624  91.6161438 148.0857272  63.7006094
  92.5545302 148.7897318  62.7436931  96.7002406 142.9096815  68.6025459
  95.9625162 142.3974201  68.9335702  96.9529179 142.4697197  67.7908736
  96.8014033 135.6873067  69.1967229  97.1072910 134.8270430  68.9093144
  97.5266638 136.2790687  68.9966223  83.0938389 146.0903754  67.5848827
  82.8962789 145.4973114  66.8599893  82.5385053 145.7855964  68.3024765
  91.0735113 145.9826860  69.7043420  91.1283722 145.0300696  69.6285896
  90.2626315 146.1386299  70.1884718  92.2226306 149.9106983  60.9421703
  91.7845736 149.1942842  60.4827340  92.9636747 150.1383098  60.3806794
  89.0127473 144.6003920  67.4633799  88.1995338 144.8998090  67.8698991
  89.5086467 144.2059609  68.1808281  94.6101684 145.0645744  76.2948693
  94.9651072 145.2917217  77.1543158  95.2573815 145.3964121  75.6725948
 100.3399421 148.1864180  66.9998022 100.2017320 148.3765776  66.0719211
  99.9835640 148.9483563  67.4566073  88.5041547 142.1722275  73.0795034
  89.1440927 142.0311034  72.3817997  87.6719078 141.8856789  72.7033636
  89.2801851 151.4724706  69.1930026  90.0742450 150.9775026  68.9912601
  88.5693544 150.9442569  68.8297732  85.5884615 145.6167787  65.2689779
  84.6582203 145.5552243  65.4859741  85.6842087 145.0943740  64.4726420
  85.5070164 142.1422600  67.8568020  85.7676981 143.0567934  67.7477181
  86.3287336 141.6747043  68.0064633  86.9795089 143.5560357  75.0266845
  87.6518143 143.3477720  74.3779494  86.1524876 143.3582443  74.5872077
  92.8820661 140.1822298  77.0432506  92.2348576 140.8812248  76.9496982
  93.6521677 140.6158442  77.4108754  96.2899459 150.4471151  80.1183059
  96.1384965 150.2181702  79.2013143  96.2804139 151.4041752  80.1314404
  93.0584795 148.0203063  75.1029326  93.9876855 148.1714223  74.9298293
  92.6375825 148.1087084  74.2477972  93.4078342 151.4235330  70.2616701
  93.0728175 151.3836100  71.1574351  92.9082288 150.7580046  69.7887111
  87.3822586 146.8302960  75.7869282  87.2442384 146.0983199  76.3880821
  88.2927510 146.7411861  75.5053470  96.3437534 148.7691365  60.5353761
  95.7266705 148.0438193  60.4386813  95.8754022 149.5300725  60.1920835
  90.0104887 146.5422920  75.2752962  90.7204506 145.9016112  75.2339580
  89.9674195 146.7935815  76.1979143  88.7233821 143.5288138  77.0948601
  88.1871178 143.0778876  77.7470198  88.1350529 143.6634046  76.3519066
  88.1336080 142.9876789  59.6575065  87.2565546 142.8665590  59.2937312
  88.6093833 142.1962867  59.4053954  84.4572942 142.6644145  74.1801596
  84.3731131 142.0569815  73.4452006  83.6355649 143.1553164  74.1811092
  94.6296656 141.1497709  69.5471791  95.1265356 140.3967671  69.2272861
  93.8583638 141.1862026  68.9815000 102.4826413 146.8538074  71.1890082
 102.4716290 147.7362790  70.8184015 101.6143793 146.5009625  70.9944619
  95.7126437 149.9069396  67.1210214  94.7782716 150.0270859  66.9514919
  95.8903105 149.0041863  66.8570224  91.2131625 143.2915092  69.2743475
  90.8429412 142.7386132  69.9624381  91.7090717 142.6873225  68.7218475
  99.0998988 145.7486715  67.6560248  99.5659440 146.5814707  67.5820551
  99.5506489 145.2831697  68.3605507  97.0715651 138.1167302  71.6951150
  96.1578731 138.3471529  71.8633357  97.5008752 138.2005746  72.5465182
  96.8422109 146.3057194  74.1951044  96.1893560 146.5533102  73.5403496
  97.2202489 145.4921333  73.8613521  92.8909682 147.0477005  80.6817081
  92.2150319 146.9471135  81.3519456  93.7137316 146.8916219  81.1453078
  79.2306196 145.8554542  72.0234039  79.2690296 145.3218133  72.8171157
  78.7246489 145.3289748  71.4045016  86.6096959 140.7019083  75.5196581
  86.6738285 141.5633914  75.1073979  86.5464079 140.0893084  74.7868940
  86.0849231 142.7742215  79.1669616  86.7121270 142.3919292  79.7807140
  85.2277150 142.5556417  79.5325308  82.8614774 144.5818644  65.0987971
  83.1568215 143.6729323  65.0455024  81.9602810 144.5606384  64.7768973
  86.3909021 142.6574641  71.0815519  85.6695607 143.2710609  70.9422992
  87.1802277 143.1932406  71.0032165  89.1935334 139.9929067  77.3556171
  89.7169736 140.2391364  78.1182480  88.9747668 140.8249102  76.9359308
  84.5902615 142.2632742  65.2227296  84.2615322 141.3830121  65.0402402
  84.9441986 142.2080411  66.1103685  87.7044439 142.5505712  65.5902773
  88.0440511 143.0791633  64.8681382  88.1516559 142.8886118  66.3661340
  90.3987879 140.9342762  75.0405841  90.0584700 140.1350576  75.4426521
  89.6926886 141.2344473  74.4682675  91.0504351 138.0192075  73.4933164
  91.8730420 137.5452553  73.3712055  91.2942415 138.7982559  73.9931851
  89.6912586 141.0480333  63.7896066  90.4120948 141.4261586  63.2859783
  89.0677890 141.7669210  63.8931044  93.8343709 141.7525482  64.7254398
  94.0507323 142.6350120  64.4243227  93.3537776 141.3611696  63.9960040
  88.5742930 144.7111196  71.3025143  88.4287511 145.0251499  72.1949425
  88.0968134 145.3296096  70.7496042  90.4339313 141.7013744  71.3506033
  90.4200882 140.8054837  71.0138331  91.1511741 141.7084407  71.9844319
  92.2865444 142.1351084  73.3959160  92.0283221 143.0568154  73.3943490
  91.7550484 141.7381518  74.0859624  83.0488592 147.2516540  74.2412804
  82.5042060 148.0276348  74.3733079  83.9267942 147.5987344  74.0831926
  89.8376209 140.5828124  66.6193603  89.9592120 139.6544770  66.8184490
  89.5478251 140.5966810  65.7071918  92.7067399 138.2683034  69.7560323
  92.7289096 138.3322367  68.8012302  93.1235458 137.4287543  69.9500829
  83.8354614 146.3786436  77.1342961  83.0936350 146.5269072  77.7207592
  83.5147358 146.6394702  76.2709711  89.3217288 142.0960121  80.8283535
  89.3705444 142.9722244  80.4461305  89.8639802 141.5537514  80.2555179
  99.9270009 149.4893711  77.4217401  99.9768014 149.3243718  78.3632924
  99.8183932 148.6220970  77.0315282  97.2173771 145.4724639  78.7376708
  98.1183634 145.3331104  78.4460705  97.2921746 145.6379094  79.6774885
  91.5516577 142.8491494  77.5829894  90.6819886 143.1425060  77.3112483
  91.7876057 143.4331939  78.3037158  99.6775394 147.0323267  76.1339481
 100.1529516 147.2250913  75.3258332  98.7540959 147.0882453  75.8882864
  86.5658901 148.1947434  65.7170559  86.3204943 147.2909764  65.9150769
  86.7354815 148.1964585  64.7750037  94.2555611 139.0671110  75.0995314
  94.7737554 139.8032137  74.7741803  93.9010743 139.3735104  75.9342074
  85.8354548 143.9275792  63.2156720  85.1423793 144.0020147  62.5596756
  85.5906300 143.1636135  63.7378237  94.5068205 135.4871393  70.6196211
  94.7869959 134.8194582  71.2456638  95.2918812 135.6800489  70.1070875
  98.3777063 143.9089027  74.3667786  99.3294486 144.0087125  74.3880010
  98.2080514 143.1167296  74.8765870  96.3991443 140.9944610  74.5527187
  95.8041375 141.2749623  73.8573676  96.1141139 141.4838511  75.3243928
 100.8565141 147.1295147  73.4810086 100.8241461 146.1911147  73.6669770
 101.4665765 147.2079183  72.7475911  92.6948472 145.9991200  59.5237290
  93.6407576 145.8697408  59.5925708  92.3162717 145.2605862  60.0006718
 101.0059629 143.9206190  73.5268369 100.4898678 143.1364647  73.3398298
 101.8899578 143.5924907  73.6914888  98.6670356 137.6647206  69.4864182
  98.4695177 137.3562294  70.3707514  99.2770062 138.3908845  69.6162111
  92.5787164 150.0508946  80.9837947  93.4990174 150.2287545  81.1777993
  92.5436747 149.1064991  80.8317646  90.8791389 143.9241176  59.4592175
  89.9722844 143.6274289  59.5354889  91.1567370 143.6270994  58.5926461
  81.7969329 145.2447539  69.9091221  81.4772114 144.3912848  69.6165595
  81.2502757 145.4596118  70.6649189  85.5749237 147.9609980  73.6260728
  85.7935247 148.8927088  73.6448762  85.9875011 147.6017955  74.4115532
  92.4953455 138.4678066  65.6136416  91.6854183 138.1225151  65.9891662
  93.1837872 138.1585610  66.2024028  94.4244003 137.5456113  67.2360713
  94.9775042 137.9651566  67.8950736  94.6614089 136.6191861  67.2783669
  90.4477102 143.5343186  83.0163477  90.3473829 144.4837543  82.9475568
  90.2298644 143.2061425  82.1439547  89.6490174 140.7828111  59.6004154
  90.5109338 141.1083010  59.8599972  89.8340518 139.9959607  59.0877220
  81.6657589 148.8650451  71.8784343  80.9721061 148.4504404  71.3654297
  82.4130580 148.9070987  71.2817762  97.8022810 139.6556638  66.7439377
  97.2221479 140.3141442  66.3617430  97.5358743 138.8333982  66.3326795
  96.2526376 139.0561695  68.9460698  96.7526155 139.1678230  68.1375016
  96.8961984 138.7522748  69.5861506  90.3108372 146.9640325  81.8328539
  89.8275454 147.7640685  82.0392428  90.3969311 146.9748270  80.8795983
  83.5794332 148.7968705  69.7550358  83.5565020 148.8956392  68.8032241
  83.8894968 149.6433856  70.0767524  86.8281092 149.4245976  76.4367770
  87.6473981 149.9190054  76.4602607  87.1017900 148.5077944  76.4085337
  96.5847688 141.8156728  65.7995726  95.6973543 142.1006379  65.5815920
  97.0001677 141.6550492  64.9523002  99.9362224 141.8403249  69.5150065
 100.7122614 142.3299702  69.7874682  99.2110358 142.2661303  69.9721934
 102.3734783 142.5530868  70.5724005 102.9679274 142.3126604  69.8617314
 102.4461366 141.8337999  71.1997542  95.7290901 151.5801403  59.8943745
  96.4326752 151.7851405  60.5101401  95.0053550 152.1478165  60.1592829
  96.5588712 147.3311264  66.0146016  96.5023913 147.7879815  65.1753648
  97.1117054 146.5701949  65.8368858 100.3693518 143.1200996  66.8396135
 100.1130452 142.7197632  67.6704343  99.7446386 143.8344790  66.7146274
 104.6805856 145.8597069  69.3467427 104.1205413 145.9290258  70.1198989
 104.0749359 145.6838054  68.6266923  97.2923491 148.5216045  63.3098545
  97.2372295 148.3560317  62.3686989  96.6669546 149.2292078  63.4660735
  82.0816006 143.7584110  77.1359967  82.7274870 143.2483064  77.6247192
  81.8733157 144.4952791  77.7103392  94.6069398 150.8264957  82.6352108
  95.4760558 151.0005609  82.2738743  94.1276150 151.6459374  82.5127837
  90.6019617 138.0224154  62.8883863  90.5898286 138.9665994  63.0452134
  91.4943038 137.8394300  62.5943324  94.4171736 134.6166931  67.1429800
  93.6504132 134.0625418  67.2886482  94.8282441 134.6888800  68.0043952
  86.4213497 140.9051727  81.2334981  87.2844959 140.5488532  81.4438306
  85.8478908 140.5665622  81.9210386  19.5511839  16.9080364  58.7642689
  20.1890249  16.7887112  58.0606029  19.4332682  17.8561208  58.8230641
  16.3601546  16.8607792  58.7004214  16.0220057  16.7448857  57.8124748
  17.2291314  16.4598957  58.6805220  12.2188361  18.7143269  54.6901105
  11.6553226  18.6233206  53.9217392  12.1040756  17.8943173  55.1703597
  16.8421329  18.0142644  64.6590419  16.8309969  17.6195442  63.7870923
  17.0041968  17.2808717  65.2524191   9.7652793  20.2094460  57.5285325
  10.5574085  19.8685285  57.1131624  10.0049443  20.3189435  58.4487478
  17.7987920  22.3814237  50.0015569  17.1475900  22.9668317  49.6149583
  18.5932283  22.9120431  50.0610607  11.7243547  19.4703374  50.4002704
  12.4974423  18.9232361  50.2615580  12.0768946  20.3347623  50.6117165
  13.5628590  20.7979756  63.6069603  13.2718456  21.7025387  63.4916269
  14.1985574  20.8396284  64.3213673  14.4884797  18.1756604  60.1970963
  15.0848369  17.9512627  59.4827926  14.5459768  17.4341350  60.7996411
  14.0609825  15.6296040  48.0321154  14.3135346  15.1077561  47.2704617
  13.1234384  15.4662185  48.1347837  19.1053108  14.6331818  55.8395897
  19.8916197  14.2151241  55.4886314  19.3691812  15.5377910  56.0077545
  19.2763185  20.0704668  50.5384554  18.6409018  20.1439295  51.2505458
  18.9460592  20.6598267  49.8603633  24.5061535  14.5707051  56.7428875
  25.2386707  14.0006268  56.9766705  23.7500891  14.1828652  57.1835381
  13.7806114  17.5324146  50.2345529  13.6642372  16.8569049  50.9026613
  13.8908374  17.0456520  49.4177682  16.1237655  16.9934293  53.9392218
  15.7595862  16.4664914  54.6505139  16.9804771  16.6032762  53.7658703
  22.0286955   8.2828625  61.2023484  21.6970280   9.1524036  60.9784699
  21.4332569   7.9664909  61.8817514  15.7643142  12.0224193  48.9353566
  15.9317544  12.8904429  49.3024037  15.5740311  12.1851474  48.0114856
  18.5218475  20.4841171  60.6019397  18.2219198  21.3866210  60.4935204
  18.1769534  20.2173355  61.4540550  11.9730956  16.9354968  56.6356101
  11.0481453  16.8031182  56.8433793  12.2215369  17.7149188  57.1326044
  21.9215619  13.0023712  58.2816834  21.0132496  12.9339120  57.9875595
  21.8703214  13.4795657  59.1098660  15.7432363  14.4781850  49.9200233
  15.6231988  14.9238901  50.7585714  15.0484951  14.8267168  49.3613771
   9.3339767  16.5788242  57.4699890   9.4632148  16.8322721  58.3839302
   8.6537219  17.1715950  57.1504545  13.5039255  27.2485492  53.5690365
  13.4263284  28.1993317  53.6478845  12.9000898  26.9031364  54.2265291
  15.9956484  14.4213357  66.2251731  15.2189818  14.9807277  66.2154596
  16.6347047  14.9070140  66.7466602  23.7877265  11.2040150  60.0594708
  23.1451645  11.4972683  59.4134503  23.2832194  11.0893070  60.8647905
  21.4417429  14.9503323  50.7480567  22.3535285  15.1830710  50.5728265
  20.9327076  15.5340367  50.1855646  14.2502857  17.2298811  65.7869698
  14.9917541  17.7683855  65.5104522  13.5439842  17.8565099  65.9441250
  19.7258196  19.3727951  64.3841860  20.1341552  18.9310362  63.6396492
  19.0035458  18.7980579  64.6376053  16.0789266  14.3100558  61.7575417
  16.9250462  14.7339971  61.9010066  16.0187904  13.6534182  62.4513980
  20.0487011  19.9329142  58.1394149  19.4195873  20.0974856  57.4370217
  19.6612673  20.3470751  58.9105113  23.9276243  20.8683580  55.4938513
  23.2427281  21.2482481  54.9435546  24.0120092  21.4778906  56.2270460
  19.2288712  11.9704926  63.4156590  18.9849644  12.7246987  62.8790866
  19.5048642  12.3490274  64.2503838  21.1827174  18.5143539  62.0933856
  21.3944070  19.1575298  61.4168237  21.1356923  17.6805855  61.6255786
  18.7853403  11.1261359  58.9970428  17.9237882  11.4242613  59.2887166
  18.8115838  11.3431758  58.0651461  15.6014973  19.6703550  55.4044234
  16.0653318  19.9491253  54.6148856  15.3371771  18.7686994  55.2217325
  12.4939054  19.2175031  58.3423997  13.0640411  19.6462300  57.7041482
  13.0847166  18.9357616  59.0408183  14.5383859  15.7926702  52.2133799
  15.2407902  16.2447746  52.6807725  14.2064487  15.1510521  52.8413692
  12.9864220  14.3838459  66.5885008  12.3562881  15.0654740  66.8220405
  12.8800308  14.2721540  65.6438147  22.2973002  21.3915494  60.2656213
  23.1190446  20.9895681  59.9838895  22.2935405  21.2883728  61.2172329
  16.0629606  20.9399537  62.4216924  16.1274038  21.4019945  63.2575096
  15.3540530  20.3096902  62.5499234  30.3878995  17.7354242  56.6141185
  29.6342704  17.1661641  56.4585189  30.5226537  17.7016907  57.5611820
  15.7777624  22.6067645  52.2895904  15.6423298  23.4519180  52.7180752
  16.3187436  22.8086922  51.5261838   9.2307021  20.1243083  52.8623829
   9.7431541  20.9186333  53.0129394   9.8829734  19.4269373  52.7957431
  11.0401906  23.2408839  54.9446582  11.2168534  24.1626804  54.7567566
  11.8358739  22.9267258  55.3740962  10.3254262  15.2873471  64.8208746
  10.2107777  14.3858728  65.1215845   9.4698780  15.5337168  64.4693562
  17.4046100  23.2291211  66.4196246  16.9609954  22.4427590  66.1017151
  18.0663313  23.4170362  65.7540137  12.1633221  24.7587013  60.9456925
  12.7140646  24.6304076  60.1733919  11.3244697  25.0581902  60.5951818
  19.5027338  23.5094011  64.4477648  19.4845813  24.3302892  63.9557917
  20.4247258  23.3848086  64.6727789  15.9600392  21.0238141  65.2901156
  16.4928729  20.2626429  65.0600464  15.4314473  20.7311792  66.0325310
   7.1955938  18.4531737  53.6383400   8.0331160  18.8628745  53.4217108
   7.3734205  17.5131179  53.6083594  19.0920370  16.1206818  49.3267233
  18.5766993  16.8911422  49.5655620  18.8197678  15.4471954  49.9500294
  16.6767481  10.9656519  54.3852471  15.8209077  10.5763369  54.2058110
  17.0894433  11.0448479  53.5252257  24.0654644  18.8739172  51.2620406
  23.2884087  18.5350332  50.8175568  24.7446125  18.8791796  50.5875371
  18.8806673  13.9933910  51.1527014  18.5756809  14.3080059  52.0037157
  19.8337115  14.0715330  51.1954347  17.3253105  20.1524133  52.8019968
  16.7974466  19.4176893  52.4893205  16.8240608  20.9298810  52.5559936
  22.3045951  18.3473154  57.9187014  21.6469625  19.0372415  58.0067143
  23.1086350  18.7369586  58.2621001  21.1151410  16.7017526  55.9690956
  21.6283291  17.3347518  56.4712666  21.7652634  16.1018722  55.6034316
  12.3841420  12.8448260  49.1822465  11.5478732  13.1822947  49.5031739
  12.2446189  12.7097240  48.2449602  15.4705705  17.9704343  45.8054941
  14.5632767  17.7393597  46.0046090  15.9676737  17.1741963  45.9928923
  18.3773784  26.6801851  48.7251627  17.7035483  26.9833547  49.3336585
  18.7639606  27.4830931  48.3757084  17.5932241  14.1766982  58.2149297
  16.6754802  14.3981929  58.0570985  18.0092384  14.2513292  57.3561004
  18.3767288  15.5758398  53.3451977  19.1239107  16.0879795  53.0359099
  18.6458878  15.2542450  54.2056370  16.6493938  18.0716938  50.3278931
  15.7405158  17.7875971  50.4251401  16.6789022  18.4916017  49.4682238
  21.8813206  21.6823528  54.0970099  21.4275533  20.8414438  54.1535289
  21.2507173  22.3184926  54.4344879  20.8246125  12.6115514  55.3270766
  20.0868882  12.0992900  55.6581009  21.0772899  12.1715895  54.5154043
  20.3246145  23.5200024  55.0319917  20.6169119  24.0805082  54.3132282
  20.8344766  23.8128585  55.7873076  15.1978832  15.6845559  56.4288726
  15.2527442  14.7319395  56.3531203  14.3870035  15.8404998  56.9130025
  16.3470026  19.6125682  47.6667010  15.9089456  18.8961541  47.2072647
  17.0880467  19.8401797  47.1052101  13.1371192  14.3022619  54.1879105
  12.3239058  14.6016789  54.5944297  13.6330187  13.9078307  54.9053588
  15.2879770  24.2980376  56.1213370  15.2455949  24.5241222  55.1921902
  16.2042469  24.0643750  56.2699171  18.7345404  14.7664443  63.0193999
  19.0894792  14.9935916  63.8788465  19.3817535  15.0982820  62.3971255
  24.4643141  17.8882879  53.7243328  24.3261040  18.0784475  52.7964517
  24.1079360  18.6502262  54.1811379  24.4912521  19.9559406  58.7354600
  24.9249027  19.8634695  59.5837654  25.2044101  19.9316906  58.0974616
  13.4045571  21.1743405  55.9175333  14.1986170  20.6793725  55.7157908
  12.6937263  20.6461268  55.5543038  18.2240416  23.5561500  60.2687700
  18.2777438  24.1252436  61.0365416  17.3555197  23.7263385  59.9041737
   9.7128335  15.3186486  51.9935085   8.7825923  15.2570942  52.2105048
   9.8085807  14.7962439  51.1971727  25.3528070  19.9983107  61.2687485
  25.5463960  20.9028917  61.5146760  25.2528688  19.5390526  62.1026070
  17.0064381   9.8840997  63.7677812  16.3592296  10.5830947  63.6742289
  17.7765396  10.3177141  64.1354061  20.4143179  20.1489849  66.8428366
  20.2628685  19.9200401  65.9258449  20.4047858  21.1060451  66.8559711
  17.1828515  17.7221762  61.8274632  18.1120575  17.8732922  61.6543600
  16.7619545  17.8105783  60.9723279  15.9816847  21.7472427  59.5973170
  15.8427933  21.3791211  60.4699108  15.1931443  22.2620066  59.4257128
  16.5764999  26.8481523  50.9398706  16.7516755  26.3769566  51.7544329
  15.8897787  27.4747289  51.1679967  17.5322062  21.1254029  56.9862008
  17.1971895  21.0854799  57.8819657  17.0326008  20.4598745  56.5132418
  11.5066306  16.5321659  62.5114589  11.3686104  15.8001898  63.1126128
  12.4171230  16.4430559  62.2298777  20.4681254  18.4710064  47.2599067
  19.8510424  17.7456892  47.1632120  19.9997742  19.2319424  46.9166142
  14.1348607  16.2441619  61.9998268  14.8448225  15.6034811  61.9584887
  14.0917915  16.4954513  62.9224449  22.1235386  23.1808972  64.9204848
  22.0647932  22.4968192  64.2535431  22.5254904  23.9227962  64.4685474
  12.8477541  13.2306836  63.8193908  12.3114898  12.7797575  64.4715504
  12.2594249  13.3652745  63.0764372  11.1426084  29.9970886  57.7138567
  11.3822683  30.6289410  58.3917585  10.2995281  29.6458926  58.0003926
  22.1252793  21.1448556  63.1518827  21.2379572  20.8074478  63.2745226
  22.6951344  20.4131587  63.3887593  15.6553946  25.8050008  60.1180071
  15.5824118  26.6104980  60.6299375  15.2131339  26.0041974  59.2928092
  15.4443726  25.0421778  53.6282892  14.6611248  25.5843458  53.7221117
  16.1436471  25.5595758  54.0277133  18.7540376  10.8516408  56.2717097
  19.2509075  10.0986370  55.9518168  17.9827357  10.8880724  55.7060307
  26.6070133  16.5556773  57.9135389  26.5960010  17.4381489  57.5429322
  25.7387513  16.2028324  57.7189926  18.1152630  25.7036842  62.2738229
  18.8280602  26.3384307  62.2014131  17.6242658  25.8000708  61.4578231
  19.8370157  19.6088095  53.8455521  18.9026435  19.7289557  53.6760225
  20.0146825  18.7060562  53.5815531  15.3375345  12.9933791  55.9988782
  14.9673132  12.4404831  56.6869688  15.8334437  12.3891924  55.4463782
  23.2242708  15.4505414  54.3805555  23.6903160  16.2833406  54.3065858
  23.6750208  14.9850396  55.0850813  13.1664543  23.4531286  63.0943800
  13.8674003  24.0867769  63.2473194  12.6959658  23.7946017  62.3339439
  21.2918939  21.7949236  51.3791707  21.5678783  21.6805830  52.2885581
  20.4223438  21.3966720  51.3403880  21.1959371   7.8186001  58.4196456
  20.2822451   8.0490228  58.5878663  21.6252472   7.9024445  59.2710489
  20.9665829  16.0075893  60.9196350  20.3137279  16.2551801  60.2648803
  21.3446209  15.1940031  60.5858828  17.9273003  26.0435586  55.0224521
  18.1095398  25.2257242  55.4852273  18.7505989  26.2603279  54.5849411
  18.2615169  24.9703771  52.2839569  18.7902935  24.4596226  51.6709731
  18.5243388  24.6546302  53.1485102  17.0153402  16.7495704  67.4062387
  16.3394039  16.6489834  68.0764763  17.8381036  16.5934918  67.8698385
   8.7632261  22.9867641  60.0274903   9.3485698  22.2411329  60.1602807
   8.5657100  23.2971597  60.9111567  11.6170917  26.0218888  55.0437345
  10.9481292  26.5065016  54.5601385  11.4783786  26.2688109  55.9580724
  15.7576185  28.0562632  61.6420003  16.3094493  28.2194253  62.4069089
  16.0982379  28.6467070  60.9700028  20.6087059  22.8823889  67.4968658
  21.1526963  23.4953847  67.0023613  20.0273904  23.4403468  68.0135671
  18.8944572  26.0044607  58.6283686  18.7695712  25.2034347  58.1194631
  19.5523663  26.4990801  58.1397656  20.9579481  23.8053627  60.2563236
  20.0109816  23.6858978  60.1841562  21.3062254  22.9176125  60.3389497
  17.9625914  23.6006344  56.4567588  17.8150876  22.6723051  56.6375158
  18.7879408  23.6226434  55.9724663  21.5660036  24.4234902  57.5432461
  22.4906583  24.2177764  57.4056912  21.3975339  24.1751303  58.4521802
  17.9587428  11.4544181  51.4499705  18.1751043  12.3368819  51.1488533
  17.4781496  11.0630395  50.7205347  12.6986650  14.4129894  58.0270450
  12.5531230  14.7270197  58.9194731  12.2211853  15.0314795  57.4741348
  16.4109163  11.8369783  60.1204467  16.1526941  12.7586853  60.1188797
  15.8794204  11.4400217  60.8104931  21.3555352  24.9420570  52.8994552
  21.5292230  24.3766992  52.1468405  21.8484243  25.7421465  52.7174042
   7.1732312  16.9535239  60.9658111   6.6285780  17.7295047  61.0978385
   8.0511662  17.3006043  60.8077232  27.2094743  17.7056993  54.5184852
  27.6525889  16.9564318  54.1203975  26.3321254  17.6967129  54.1358584
  22.3430525  24.2587334  49.9991450  23.0381429  24.8794027  50.2178765
  22.6853675  23.4082685  50.2743828   7.9598334  16.0805135  63.8588268
   7.2180070  16.2287770  64.4452898   7.6391078  16.3413401  62.9955017
  24.2421948  21.7087040  51.5278781  24.7673272  22.0474312  50.8028101
  24.1544300  20.7734055  51.3441916  15.9041996  25.6221113  63.6568658
  16.2129123  25.3770260  64.5291357  16.7017478  25.8267752  63.1687528
  15.9262608  27.7759023  55.8874034  15.4867599  27.2835402  56.5806891
  16.6770725  27.2331991  55.6466110   8.4054947  23.9670564  55.8898662
   9.2312967  23.6674336  55.5097306   8.0548999  23.1978186  56.3388451
  13.3736481  23.3197032  57.9596336  12.7516490  22.6567737  57.6598564
  14.0441348  23.3458164  57.2769984   6.6063553  21.8856890  56.8487596
   5.7695461  21.4579065  56.6671597   6.5787198  22.0789334  57.7858387
  23.9315854  22.3419943  66.8329979  23.1411398  22.3244082  66.2934479
  23.6949208  22.8808237  67.5879016  24.0513729  19.1912410  64.1462708
  24.1011734  19.0262417  65.0878230  23.9427652  18.3239669  63.7560588
  12.9349988  21.8700955  51.4354797  13.0838108  22.5536420  50.7821469
  13.7416431  21.8506045  51.9504252  21.3417491  15.1743338  65.4622014
  22.2427354  15.0349803  65.1706012  21.4165466  15.3397793  66.4020192
  15.6760297  12.5510192  64.3075201  14.8063606  12.8443758  64.0357789
  15.9119777  13.1350637  65.0282464  25.5531926  21.6109351  64.3904729
  25.2616734  21.9739332  65.2268190  24.9404057  20.8976359  64.2118061
  26.7527608  19.1762231  56.9107299  27.5874499  19.6152035  57.0744860
  26.8886737  18.7000884  56.0915545  23.8019114  16.7341966  62.8584787
  24.2773236  16.9269612  62.0503639  22.8784679  16.7901152  62.6128171
  10.6902621  17.8966133  52.4415865  10.4448662  16.9928463  52.6396076
  10.8598535  17.8983283  51.4995343  18.3799330   8.7689809  61.8240621
  18.8981274   9.5050836  61.4987110  18.0254463   9.0753803  62.6587380
  16.4345393  24.3649086  48.9066544  15.8619360  24.9839273  48.4537016
  17.0078187  24.9148447  49.4406466  22.5020783  13.6107726  61.0913093
  23.4538206  13.7105824  61.1125317  22.3324233  12.8185994  61.6011177
  20.5235162  10.6963309  61.2772494  19.9285094  10.9768322  60.5818982
  20.2384859  11.1857210  62.0489235  19.6542653  24.6486236  50.0375126
  20.5873326  24.5831798  50.2408002  19.5665866  25.4842503  49.5789659
  22.2830670  23.9652106  46.9979074  22.2044301  23.6311970  47.8914832
  23.1040336  24.4573874  46.9970546  24.9808861  16.8313846  60.2055392
  24.9485181  15.8929846  60.3915076  25.5909484  16.9097882  59.4721217
  16.8192192  15.7009899  46.2482596  17.7651296  15.5716107  46.3171014
  16.4406437  14.9624560  46.7252025  25.1303349  13.6224889  60.2513676
  24.6142398  12.8383346  60.0643604  26.0143298  13.2943606  60.4160195
  22.7914076   7.3665905  56.2109488  22.5938897   7.0580993  57.0952820
  23.4013782   8.0927543  56.3407418  30.7985411  17.8929852  59.3461429
  31.5288799  17.6315141  59.9069133  30.1892356  17.1558574  59.3863497
  28.8800708  16.0337715  59.9435880  28.1533871  15.8993680  59.3352372
  28.4647995  16.3414544  60.7492598  16.7030884  19.7527645  67.7083253
  17.6233894  19.9306244  67.9023300  16.6680467  18.8083690  67.5562953
  15.0035109  13.6259875  46.1837482  14.0966564  13.3292988  46.2600195
  15.2811090  13.3289693  45.3171768   9.6992957  17.6628679  60.3506035
   9.9178966  18.5945787  60.3694068  10.1118730  17.3036654  61.1360838
  14.5720822  13.2361885  69.7408784  14.4717549  14.1856242  69.6720875
  14.3542364  12.9080124  68.8684854   5.7901309  18.5669150  58.6029650
   5.0964781  18.1523103  58.0899604   6.5374300  18.6089686  58.0063069
  21.9266530   9.3575337  53.4684684  21.3465199  10.0160141  53.0862736
  21.6602463   8.5352681  53.0572101  20.3770096   8.7580394  55.6706004
  20.8769875   8.8696929  54.8620323  21.0205704   8.4541447  56.3106813
  14.4352092  16.6659024  68.5573845  13.9519174  17.4659384  68.7637734
  14.5213031  16.6766969  67.6041289   7.7038052  18.4987404  56.4795665
   7.6808740  18.5975091  55.5277548   8.0138688  19.3452554  56.8012831
  10.3625430  20.5563559  60.5942279  11.3168683  20.5247501  60.5272211
  10.1637953  20.0954182  61.4092505  10.9524812  19.1264675  63.1613077
  11.7717701  19.6208753  63.1847914  11.2261619  18.2096643  63.1330644
  20.7091408  11.5175427  52.5241032  19.8217263  11.8025078  52.3061227
  21.1245397  11.3569190  51.6768309  24.0605944  11.5421948  56.2395371
  24.8366334  12.0318400  56.5119988  23.3354078  11.9680002  56.6967241
  26.4978503  12.2549567  57.2969312  27.0922993  12.0145303  56.5862620
  26.5705086  11.5356698  57.9242848   8.7175658  26.0983178  57.6112477
   8.5830126  25.3383579  57.0450475   8.3007721  26.8224078  57.1441266
  19.8534621  21.2820102  46.6189052  20.5570471  21.4870104  47.2346708
  19.1297270  21.8496864  46.8838136  20.6832432  17.0329963  52.7391322
  20.6267633  17.4898514  51.8998955  21.2360774  16.2720648  52.5614165
  24.4937237  12.8219695  53.5641442  24.2374172  12.4216330  54.3949649
  23.8690106  13.5363489  53.4391581  28.8049575  15.5615768  56.0712733
  28.2449133  15.6308957  56.8444295  28.1993079  15.3856753  55.3512229
  11.8744784  26.9952495  57.8230919  11.7577168  27.9397928  57.7209610
  11.0537230  26.6926057  58.2116719  21.7621319  21.7202631  48.6687512
  22.5966923  21.2883829  48.4864987  21.6005662  21.5484645  49.5964407
  21.4167211  18.2234744  50.0343851  21.3616015  18.0579016  49.0932296
  20.7913266  18.9310777  50.1906041  18.7313118  20.5283656  69.3597414
  19.6004278  20.7024308  68.9984049  18.2519870  21.3478073  69.2373144
  12.8999298  27.6480757  61.0386848  13.8026545  27.6804367  61.3553343
  12.6736668  26.7181208  61.0533184  14.6552900  26.4011744  57.6996927
  13.7048531  26.4013605  57.5861299  14.9585386  25.6544478  57.1832961
  30.3905594  32.2372282  58.7642689  31.0284004  32.1179029  58.0606029
  30.2726437  33.1853126  58.8230641  27.1995300  32.1899710  58.7004214
  26.8613812  32.0740775  57.8124748  28.0685068  31.7890875  58.6805220
  23.0582116  34.0435186  54.6901105  22.4946981  33.9525123  53.9217392
  22.9434511  33.2235091  55.1703597  27.6815083  33.3434562  64.6590419
  27.6703724  32.9487360  63.7870923  27.8435723  32.6100634  65.2524191
  20.6046548  35.5386378  57.5285325  21.3967840  35.1977203  57.1131624
  20.8443198  35.6481353  58.4487478  28.6381675  37.7106154  50.0015569
  27.9869654  38.2960235  49.6149583  29.4326037  38.2412349  50.0610607
  22.5637302  34.7995291  50.4002704  23.3368178  34.2524278  50.2615580
  22.9162701  35.6639541  50.6117165  24.4022344  36.1271674  63.6069603
  24.1112210  37.0317304  63.4916269  25.0379329  36.1688201  64.3213673
  25.3278551  33.5048522  60.1970963  25.9242123  33.2804545  59.4827926
  25.3853523  32.7633268  60.7996411  24.9003579  30.9587957  48.0321154
  25.1529100  30.4369479  47.2704617  23.9628139  30.7954103  48.1347837
  29.9446862  29.9623736  55.8395897  30.7309952  29.5443159  55.4886314
  30.2085567  30.8669828  56.0077545  30.1156940  35.3996586  50.5384554
  29.4802773  35.4731213  51.2505458  29.7854346  35.9890185  49.8603633
  35.3455289  29.8998969  56.7428875  36.0780461  29.3298186  56.9766705
  34.5894645  29.5120569  57.1835381  24.6199868  32.8616063  50.2345529
  24.5036126  32.1860967  50.9026613  24.7302128  32.3748437  49.4177682
  26.9631409  32.3226211  53.9392218  26.5989616  31.7956831  54.6505139
  27.8198525  31.9324680  53.7658703  32.8680710  23.6120543  61.2023484
  32.5364035  24.4815954  60.9784699  32.2726323  23.2956827  61.8817514
  26.6036896  27.3516110  48.9353566  26.7711298  28.2196347  49.3024037
  26.4134065  27.5143392  48.0114856  29.3612229  35.8133089  60.6019397
  29.0612952  36.7158128  60.4935204  29.0163289  35.5465272  61.4540550
  22.8124711  32.2646886  56.6356101  21.8875207  32.1323100  56.8433793
  23.0609124  33.0441105  57.1326044  32.7609373  28.3315629  58.2816834
  31.8526250  28.2631038  57.9875595  32.7096969  28.8087574  59.1098660
  26.5826117  29.8073768  49.9200233  26.4625742  30.2530818  50.7585714
  25.8878705  30.1559085  49.3613771  20.1733522  31.9080160  57.4699890
  20.3025903  32.1614638  58.3839302  19.4930973  32.5007868  57.1504545
  24.3433009  42.5777409  53.5690365  24.2657039  43.5285235  53.6478845
  23.7394653  42.2323282  54.2265291  26.8350239  29.7505275  66.2251731
  26.0583573  30.3099195  66.2154596  27.4740802  30.2362058  66.7466602
  34.6271019  26.5332068  60.0594708  33.9845400  26.8264601  59.4134503
  34.1225948  26.4184988  60.8647905  32.2811183  30.2795241  50.7480567
  33.1929039  30.5122628  50.5728265  31.7720830  30.8632285  50.1855646
  25.0896611  32.5590728  65.7869698  25.8311296  33.0975772  65.5104522
  24.3833597  33.1857017  65.9441250  30.5651951  34.7019869  64.3841860
  30.9735307  34.2602279  63.6396492  29.8429212  34.1272496  64.6376053
  26.9183021  29.6392475  61.7575417  27.7644216  30.0631889  61.9010066
  26.8581659  28.9826100  62.4513980  30.8880765  35.2621059  58.1394149
  30.2589628  35.4266773  57.4370217  30.5006428  35.6762669  58.9105113
  34.7669997  36.1975497  55.4938513  34.0821036  36.5774399  54.9435546
  34.8513847  36.8070824  56.2270460  30.0682466  27.2996844  63.4156590
  29.8243398  28.0538904  62.8790866  30.3442397  27.6782191  64.2503838
  32.0220929  33.8435456  62.0933856  32.2337824  34.4867216  61.4168237
  31.9750677  33.0097773  61.6255786  29.6247158  26.4553277  58.9970428
  28.7631637  26.7534530  59.2887166  29.6509593  26.6723676  58.0651461
  26.4408727  34.9995467  55.4044234  26.9047073  35.2783170  54.6148856
  26.1765525  34.0978912  55.2217325  23.3332808  34.5466949  58.3423997
  23.9034165  34.9754217  57.7041482  23.9240920  34.2649534  59.0408183
  25.3777613  31.1218620  52.2133799  26.0801657  31.5739663  52.6807725
  25.0458242  30.4802439  52.8413692  23.8257975  29.7130376  66.5885008
  23.1956635  30.3946657  66.8220405  23.7194063  29.6013458  65.6438147
  19.1202947  29.3802172  57.5150933  18.3302001  29.6359701  57.0391043
  19.6114195  30.1950510  57.6202973  33.1366757  36.7207412  60.2656213
  33.9584201  36.3187599  59.9838895  33.1329160  36.6175646  61.2172329
  21.0717693  29.7446752  54.4734409  20.2748856  29.8565446  54.9917905
  20.8443285  30.0833404  53.6075300  26.9023360  36.2691455  62.4216924
  26.9667793  36.7311862  63.2575096  26.1934284  35.6388820  62.5499234
  17.4040650  29.6332663  59.9465923  17.6548689  30.5179673  60.2123499
  17.9400199  29.4537264  59.1741015  41.2272750  33.0646160  56.6141185
  40.4736458  32.4953558  56.4585189  41.3620291  33.0308825  57.5611820
  26.6171378  37.9359562  52.2895904  26.4817053  38.7811098  52.7180752
  27.1581191  38.1378840  51.5261838  23.1038718  24.0151142  68.9510259
  22.7105663  23.4617341  69.6257904  23.9204858  24.3261721  69.3416777
  20.0700775  35.4535000  52.8623829  20.5825296  36.2478251  53.0129394
  20.7223488  34.7561291  52.7957431  21.8795660  38.5700757  54.9446582
  22.0562288  39.4918721  54.7567566  22.6752494  38.2559176  55.3740962
  26.0206679  25.4309021  66.5430516  26.7616392  26.0316175  66.4634978
  26.2524601  24.6886659  65.9848559  21.1648017  30.6165389  64.8208746
  21.0501532  29.7150646  65.1215845  20.3092534  30.8629085  64.4693562
  28.2439854  38.5583129  66.4196246  27.8003709  37.7719508  66.1017151
  28.9057068  38.7462279  65.7540137  23.0026976  40.0878931  60.9456925
  23.5534401  39.9595994  60.1733919  22.1638451  40.3873820  60.5951818
  30.3421092  38.8385929  64.4477648  30.3239568  39.6594810  63.9557917
  31.2641013  38.7140004  64.6727789  26.7994147  36.3530058  65.2901156
  27.3322483  35.5918347  65.0600464  26.2708228  36.0603710  66.0325310
  29.9663842  21.4590124  60.8194798  29.6228111  22.3491766  60.7433908
  30.3342804  21.2691782  59.9564383  18.0349692  33.7823655  53.6383400
  18.8724914  34.1920663  53.4217108  18.2127960  32.8423097  53.6083594
  29.9314124  31.4498735  49.3267233  29.4160748  32.2203340  49.5655620
  29.6591433  30.7763872  49.9500294  27.5161235  26.2948436  54.3852471
  26.6602832  25.9055287  54.2058110  27.9288187  26.3740397  53.5252257
  29.0460382  23.8294779  58.7844031  28.5425178  23.7924915  57.9711836
  29.3390989  24.7387522  58.8440688  25.2903268  23.9133509  57.7910213
  26.1556265  23.7176318  57.4316102  25.3580777  23.6843861  58.7179569
  34.9048398  34.2031090  51.2620406  34.1277841  33.8642250  50.8175568
  35.5839879  34.2083713  50.5875371  29.7200427  29.3225828  51.1527014
  29.4150563  29.6371977  52.0037157  30.6730870  29.4007247  51.1954347
  28.1646859  35.4816051  52.8019968  27.6368221  34.7468810  52.4893205
  27.6634362  36.2590727  52.5559936  33.1439705  33.6765071  57.9187014
  32.4863380  34.3664333  58.0067143  33.9480105  34.0661503  58.2621001
  22.8965587  26.1435717  55.1626579  23.4709339  25.9210899  54.4299772
  23.4836569  26.2124412  55.9155181  31.9545164  32.0309444  55.9690956
  32.4677046  32.6639436  56.4712666  32.6046388  31.4310640  55.6034316
  23.2235174  28.1740178  49.1822465  22.3872486  28.5114865  49.5031739
  23.0839944  28.0389158  48.2449602  25.1988255  23.0176966  53.8901649
  24.5452667  22.7025983  53.2658264  25.1568729  22.3952706  54.6161472
  26.3099459  33.2996261  45.8054941  25.4026521  33.0685515  46.0046090
  26.8070491  32.5033880  45.9928923  29.2167538  42.0093768  48.7251627
  28.5429237  42.3125465  49.3336585  29.6033360  42.8122849  48.3757084
  28.4325995  29.5058900  58.2149297  27.5148556  29.7273847  58.0570985
  28.8486139  29.5805210  57.3561004  29.2161043  30.9050315  53.3451977
  29.9632862  31.4171712  53.0359099  29.4852632  30.5834368  54.2056370
  27.4887693  33.4008856  50.3278931  26.5798912  33.1167889  50.4251401
  27.5182777  33.8207935  49.4682238  32.7206960  37.0115445  54.0970099
  32.2669287  36.1706355  54.1535289  32.0900927  37.6476844  54.4344879
  31.6639880  27.9407431  55.3270766  30.9262637  27.4284818  55.6581009
  31.9166653  27.5007813  54.5154043  31.1639900  38.8491942  55.0319917
  31.4562874  39.4096999  54.3132282  31.6738520  39.1420503  55.7873076
  31.7651507  20.7183683  55.9212535  32.0710384  19.8581047  55.6338450
  32.4904112  21.3101304  55.7211529  18.0575863  31.1214370  54.3094133
  17.8600263  30.5283731  53.5845200  17.5022527  30.8166580  55.0270072
  26.0372587  31.0137477  56.4288726  26.0921197  30.0611313  56.3531203
  25.2263789  31.1696916  56.9130025  27.1863781  34.9417600  47.6667010
  26.7483211  34.2253459  47.2072647  27.9274222  35.1693714  47.1052101
  23.9764947  29.6314536  54.1879105  23.1632812  29.9308707  54.5944297
  24.4723941  29.2370225  54.9053588  26.1273525  39.6272293  56.1213370
  26.0849704  39.8533140  55.1921902  27.0436224  39.3935668  56.2699171
  29.5739159  30.0956361  63.0193999  29.9288546  30.3227834  63.8788465
  30.2211290  30.4274738  62.3971255  35.3036896  33.2174797  53.7243328
  35.1654794  33.4076393  52.7964517  34.9473114  33.9794179  54.1811379
  23.4679022  27.2032892  59.8040340  24.1078401  27.0621651  59.1063304
  22.6356552  26.9167405  59.4278942  35.3306275  35.2851324  58.7354600
  35.7642782  35.1926613  59.5837654  36.0437856  35.2608824  58.0974616
  24.2439326  36.5035322  55.9175333  25.0379924  36.0085642  55.7157908
  23.5331018  35.9753185  55.5543038  29.0634170  38.8853418  60.2687700
  29.1171192  39.4544354  61.0365416  28.1948951  39.0555303  59.9041737
  20.5522089  30.6478404  51.9935085  19.6219677  30.5862859  52.2105048
  20.6479561  30.1254357  51.1971727  20.4707638  27.1733217  54.5813327
  20.7314455  28.0878550  54.4722488  21.2924810  26.7057659  54.7309940
  21.9432563  28.5870974  61.7512152  22.6155617  28.3788336  61.1024801
  21.1162350  28.3893060  61.3117384  36.1921825  35.3275024  61.2687485
  36.3857715  36.2320835  61.5146760  36.0922443  34.8682443  62.1026070
  27.8458135  25.2132915  63.7677812  27.1986050  25.9122865  63.6742289
  28.6159151  25.6469059  64.1354061  31.2536933  35.4781767  66.8428366
  31.1022440  35.2492319  65.9258449  31.2441613  36.4352368  66.8559711
  28.0222270  33.0513680  61.8274632  28.9514330  33.2024839  61.6543600
  27.6013300  33.1397701  60.9723279  26.8210602  37.0764344  59.5973170
  26.6821687  36.7083129  60.4699108  26.0325198  37.5911984  59.4257128
  27.4158754  42.1773441  50.9398706  27.5910509  41.7061484  51.7544329
  26.7291542  42.8039207  51.1679967  28.3715817  36.4545947  56.9862008
  28.0365649  36.4146717  57.8819657  27.8719762  35.7890663  56.5132418
  22.3460061  31.8613577  62.5114589  22.2079859  31.1293816  63.1126128
  23.2564984  31.7722477  62.2298777  31.3075008  33.8001981  47.2599067
  30.6904179  33.0748809  47.1632120  30.8391497  34.5611342  46.9166142
  24.9742361  31.5733536  61.9998268  25.6841980  30.9326728  61.9584887
  24.9311669  31.8246431  62.9224449  32.9629140  38.5100890  64.9204848
  32.9041686  37.8260110  64.2535431  33.3648658  39.2519880  64.4685474
  23.6871295  28.5598754  63.8193908  23.1508652  28.1089493  64.4715504
  23.0988004  28.6944663  63.0764372  21.9819839  45.3262803  57.7138567
  22.2216437  45.9581328  58.3917585  21.1389035  44.9750843  58.0003926
  23.0973554  28.0187406  46.3820372  22.2203021  27.8976206  46.0182618
  23.5731307  27.2273484  46.1299260  32.9646547  36.4740474  63.1518827
  32.0773326  36.1366395  63.2745226  33.5345098  35.7423505  63.3887593
  14.6175694  32.8064565  56.4761879  15.3046734  32.4926295  55.8882894
  14.4623823  33.7105930  56.2029130  19.4210417  27.6954762  60.9046902
  19.3368605  27.0880431  60.1697312  18.5993123  28.1863780  60.9056399
  26.4947701  41.1341926  60.1180071  26.4217872  41.9396897  60.6299375
  26.0525094  41.3333892  59.2928092  26.2837480  40.3713696  53.6282892
  25.5005002  40.9135376  53.7221117  26.9830225  40.8887676  54.0277133
  29.5934130  26.1808325  56.2717097  30.0902830  25.4278288  55.9518168
  28.8221112  26.2172642  55.7060307  37.4463888  31.8848691  57.9135389
  37.4353764  32.7673406  57.5429322  36.5781267  31.5320242  57.7189926
  28.9546384  41.0328760  62.2738229  29.6674356  41.6676225  62.2014131
  28.4636413  41.1292626  61.4578231  30.6763911  34.9380013  53.8455521
  29.7420190  35.0581475  53.6760225  30.8540580  34.0352479  53.5815531
  26.1769099  28.3225708  55.9988782  25.8066887  27.7696749  56.6869688
  26.6728192  27.7183842  55.4463782  34.0636462  30.7797332  54.3805555
  34.5296915  31.6125323  54.3065858  34.5143963  30.3142313  55.0850813
  24.0058298  38.7823203  63.0943800  24.7067757  39.4159686  63.2473194
  23.5353413  39.1237935  62.3339439  32.1312694  37.1241153  51.3791707
  32.4072537  37.0097748  52.2885581  31.2617192  36.7258638  51.3403880
  32.0353125  23.1477919  58.4196456  31.1216205  23.3782146  58.5878663
  32.4646227  23.2316363  59.2710489  31.8059584  31.3367811  60.9196350
  31.1531034  31.5843718  60.2648803  32.1839964  30.5231949  60.5858828
  28.7666758  41.3727504  55.0224521  28.9489152  40.5549160  55.4852273
  29.5899744  41.5895196  54.5849411  29.1008923  40.2995689  52.2839569
  29.6296689  39.7888144  51.6709731  29.3637143  39.9838219  53.1485102
  27.8547157  32.0787622  67.4062387  27.1787794  31.9781751  68.0764763
  28.6774791  31.9226836  67.8698385  19.6026016  38.3159558  60.0274903
  20.1879453  37.5703246  60.1602807  19.4050854  38.6263515  60.9111567
  22.4564671  41.3510806  55.0437345  21.7875046  41.8356933  54.5601385
  22.3177541  41.5980026  55.9580724  14.1943671  30.8865159  58.7479346
  14.2327770  30.3528749  59.5416464  13.6883963  30.3600364  58.1290323
  26.5969940  43.3854549  61.6420003  27.1488248  43.5486171  62.4069089
  26.9376133  43.9758987  60.9700028  21.5734433  25.7329699  62.2441888
  21.6375759  26.5944530  61.8319286  21.5101553  25.1203701  61.5114247
  21.0486705  27.8052832  65.8914922  21.6758744  27.4229909  66.5052447
  20.1914624  27.5867034  66.2570615  31.4480814  38.2115807  67.4968658
  31.9920718  38.8245765  67.0023613  30.8667659  38.7695385  68.0135671
  17.8252248  29.6129261  51.8233277  18.1205689  28.7039939  51.7700331
  16.9240284  29.5917000  51.5014280  29.7338327  41.3336525  58.6283686
  29.6089466  40.5326265  58.1194631  30.3917418  41.8282718  58.1397656
  21.3546495  27.6885257  57.8060826  20.6333081  28.3021225  57.6668299
  22.1439751  28.2243022  57.7277472  31.7973235  39.1345545  60.2563236
  30.8503571  39.0150896  60.1841562  32.1456008  38.2468043  60.3389497
  24.1572809  25.0239684  64.0801478  24.6807210  25.2701980  64.8427787
  23.9385142  25.8559719  63.6604615  19.5540090  27.2943358  51.9472602
  19.2252796  26.4140737  51.7647708  19.9079460  27.2391027  52.8348992
  28.8019669  38.9298261  56.4567588  28.6544631  38.0014969  56.6375158
  29.6273162  38.9518352  55.9724663  22.6681913  27.5816328  52.3148080
  23.0077985  28.1102250  51.5926688  23.1154033  27.9196734  53.0906647
  32.4053790  39.7526820  57.5432461  33.3300338  39.5469681  57.4056912
  32.2369094  39.5043221  58.4521802  25.3625354  25.9653379  61.7651148
  25.0222174  25.1661192  62.1671828  24.6564360  26.2655090  61.1927981
  26.0141825  23.0502691  60.2178471  26.8367895  22.5763170  60.0957361
  26.2579889  23.8293175  60.7177157  24.6550060  26.0790950  50.5141373
  25.3758422  26.4572203  50.0105090  24.0315364  26.7979827  50.6176351
  28.7981183  26.7836099  51.4499705  29.0144797  27.6660737  51.1488533
  28.3175250  26.3922312  50.7205347  23.5380404  29.7421812  58.0270450
  23.3924985  30.0562115  58.9194731  23.0605608  30.3606712  57.4741348
  25.3976787  26.7324360  58.0751339  25.3838356  25.8365453  57.7383637
  26.1149215  26.7395024  58.7089625  27.2502918  27.1661700  60.1204467
  26.9920696  28.0878771  60.1188797  26.7187958  26.7692135  60.8104931
  32.1949107  40.2712487  52.8994552  32.3685984  39.7058910  52.1468405
  32.6877998  41.0713382  52.7174042  18.0126066  32.2827156  60.9658111
  17.4679534  33.0586964  61.0978385  18.8905416  32.6297961  60.8077232
  24.8013683  25.6138740  53.3438909  24.9229594  24.6855387  53.5429797
  24.5115725  25.6277426  52.4317225  27.6704873  23.2993651  56.4805629
  27.6926570  23.3632984  55.5257609  28.0872932  22.4598159  56.6746135
  38.0488498  33.0348910  54.5184852  38.4919644  32.2856236  54.1203975
  37.1715008  33.0259047  54.1358584  33.1824279  39.5879252  49.9991450
  33.8775184  40.2085944  50.2178765  33.5247429  38.7374603  50.2743828
  18.7992088  31.4097053  63.8588268  18.0573824  31.5579688  64.4452898
  18.4784833  31.6705318  62.9955017  35.0815702  37.0378957  51.5278781
  35.6067026  37.3766230  50.8028101  34.9938055  36.1025973  51.3441916
  26.7435751  40.9513031  63.6568658  27.0522877  40.7062178  64.5291357
  27.5411233  41.1559669  63.1687528  26.7656363  43.1050941  55.8874034
  26.3261353  42.6127319  56.5806891  27.5164480  42.5623908  55.6466110
  19.2448702  39.2962481  55.8898662  20.0706722  38.9966253  55.5097306
  18.8942754  38.5270104  56.3388451  24.2130235  38.6488950  57.9596336
  23.5910244  37.9859655  57.6598564  24.8835102  38.6750082  57.2769984
  17.4457307  37.2148808  56.8487596  16.6089215  36.7870982  56.6671597
  17.4180952  37.4081251  57.7858387  24.2854763  27.1270738  67.5528842
  24.3342918  28.0032861  67.1706612  24.8277277  26.5848131  66.9800485
  34.7709608  37.6711861  66.8329979  33.9805152  37.6536000  66.2934479
  34.5342963  38.2100155  67.5879016  34.8907483  34.5204327  64.1462708
  34.9405488  34.3554335  65.0878230  34.7821407  33.6531586  63.7560588
  23.7743742  37.1992873  51.4354797  23.9231862  37.8828337  50.7821469
  24.5810185  37.1797963  51.9504252  32.1811246  30.5035255  65.4622014
  33.0821108  30.3641720  65.1706012  32.2559220  30.6689710  66.4020192
  26.5154051  27.8802110  64.3075201  25.6457360  28.1735676  64.0357789
  26.7513531  28.4642555  65.0282464  36.3925680  36.9401269  64.3904729
  36.1010488  37.3031249  65.2268190  35.7797811  36.2268277  64.2118061
  37.5921362  34.5054149  56.9107299  38.4268254  34.9443953  57.0744860
  37.7280491  34.0292802  56.0915545  34.6412868  32.0633883  62.8584787
  35.1166990  32.2561530  62.0503639  33.7178434  32.1193069  62.6128171
  21.5296375  33.2258051  52.4415865  21.2842417  32.3220381  52.6396076
  21.6992290  33.2275201  51.4995343  29.2193085  24.0981727  61.8240621
  29.7375029  24.8342754  61.4987110  28.8648218  24.4045720  62.6587380
  20.7992023  28.9586408  49.9402027  20.1061267  29.0330763  49.2842063
  20.5543774  28.1946752  50.4623544  29.4705679  20.5182010  57.3441518
  29.7507433  19.8505199  57.9701944  30.2556286  20.7111105  56.8316181
  27.2739148  39.6941003  48.9066544  26.7013115  40.3131191  48.4537016
  27.8471941  40.2440365  49.4406466  33.3414537  28.9399644  61.0913093
  34.2931960  29.0397741  61.1125317  33.1717988  28.1477912  61.6011177
  31.3628917  26.0255227  61.2772494  30.7678849  26.3060239  60.5818982
  31.0778614  26.5149128  62.0489235  30.4936407  39.9778154  50.0375126
  31.4267080  39.9123715  50.2408002  30.4059620  40.8134420  49.5789659
  33.1224424  39.2944024  46.9979074  33.0438056  38.9603888  47.8914832
  33.9434091  39.7865792  46.9970546  35.8202615  32.1605763  60.2055392
  35.7878935  31.2221764  60.3915076  36.4303239  32.2389800  59.4721217
  27.6585946  31.0301816  46.2482596  28.6045051  30.9008024  46.3171014
  27.2800191  30.2916478  46.7252025  35.9697104  28.9516807  60.2513676
  35.4536152  28.1675263  60.0643604  36.8537052  28.6235523  60.4160195
  33.6307831  22.6957822  56.2109488  33.4332652  22.3872910  57.0952820
  34.2407536  23.4219461  56.3407418  41.6379165  33.2221770  59.3461429
  42.3682554  32.9607058  59.9069133  41.0286111  32.4850492  59.3863497
  39.7194462  31.3629633  59.9435880  38.9927626  31.2285598  59.3352372
  39.3041749  31.6706461  60.7492598  27.5424639  35.0819562  67.7083253
  28.4627648  35.2598161  67.9023300  27.5074222  34.1375608  67.5562953
  25.8428863  28.9551793  46.1837482  24.9360319  28.6584905  46.2600195
  26.1204844  28.6581611  45.3171768  16.7606804  30.2758156  56.6336528
  16.4409588  29.4223464  56.3410902  16.2140232  30.4906734  57.3894495
  20.5386711  32.9920597  60.3506035  20.7572721  33.9237705  60.3694068
  20.9512485  32.6328571  61.1360838  27.4590929  23.4988682  52.3381723
  26.6491657  23.1535767  52.7136969  28.1475346  23.1896226  52.9269335
  29.3881477  22.5766729  53.9606020  29.9412516  22.9962183  54.6196043
  29.6251564  21.6502477  54.0028976  25.4114576  28.5653803  69.7408784
  25.3111303  29.5148160  69.6720875  25.1936118  28.2372042  68.8684854
  24.6127648  25.8138728  46.3249461  25.4746812  26.1393626  46.5845278
  24.7977992  25.0270224  45.8122527  16.6295064  33.8961068  58.6029650
  15.9358535  33.4815020  58.0899604  17.3768055  33.9381604  58.0063069
  32.7660284  24.6867254  53.4684684  32.1858953  25.3452058  53.0862736
  32.4996217  23.8644599  53.0572101  31.2163851  24.0872312  55.6706004
  31.7163629  24.1988847  54.8620323  31.8599459  23.7833365  56.3106813
  25.2745847  31.9950942  68.5573845  24.7912928  32.7951302  68.7637734
  25.3606786  32.0058886  67.6041289  18.5431806  33.8279321  56.4795665
  18.5202494  33.9267009  55.5277548  18.8532443  34.6744472  56.8012831
  21.2019184  35.8855476  60.5942279  22.1562438  35.8539419  60.5272211
  21.0031708  35.4246100  61.4092505  21.7918566  34.4556592  63.1613077
  22.6111455  34.9500671  63.1847914  22.0655374  33.5388560  63.1330644
  31.5485162  26.8467345  52.5241032  30.6611017  27.1316995  52.3061227
  31.9639151  26.6861108  51.6768309  34.8999698  26.8713866  56.2395371
  35.6760089  27.3610318  56.5119988  34.1747833  27.2971920  56.6967241
  37.3372257  27.5841485  57.2969312  37.9316748  27.3437221  56.5862620
  37.4098841  26.8648615  57.9242848  19.5569413  41.4275096  57.6112477
  19.4223881  40.6675497  57.0450475  19.1401475  42.1515996  57.1441266
  30.6928376  36.6112019  46.6189052  31.3964226  36.8162022  47.2346708
  29.9691025  37.1788781  46.8838136  31.5226186  32.3621881  52.7391322
  31.4661387  32.8190432  51.8998955  32.0754529  31.6012565  52.5614165
  35.3330992  28.1511612  53.5641442  35.0767926  27.7508248  54.3949649
  34.7083860  28.8655406  53.4391581  39.6443330  30.8907686  56.0712733
  39.0842888  30.9600875  56.8444295  39.0386833  30.7148670  55.3512229
  22.7138539  42.3244413  57.8230919  22.5970923  43.2689845  57.7209610
  21.8930985  42.0217974  58.2116719  32.6015073  37.0494549  48.6687512
  33.4360677  36.6175747  48.4864987  32.4399416  36.8776562  49.5964407
  32.2560965  33.5526662  50.0343851  32.2009769  33.3870933  49.0932296
  31.6307021  34.2602695  50.1906041  17.0453480  28.7894726  63.8605274
  17.6912344  28.2793680  64.3492499  16.8370631  29.5263408  64.4348699
  29.5706873  35.8575574  69.3597414  30.4398032  36.0316226  68.9984049
  29.0913624  36.6769991  69.2373144  25.5657091  23.0534771  49.6129170
  25.5535761  23.9976611  49.7697441  26.4580513  22.8704916  49.3188631
  23.7393053  42.9772675  61.0386848  24.6420299  43.0096285  61.3553343
  23.5130423  42.0473126  61.0533184  25.4946655  41.7303661  57.6996927
  24.5442286  41.7305523  57.5861299  25.7979141  40.9836396  57.1832961
  29.3809210  19.6477547  53.8675107  28.6141606  19.0936034  54.0131789
  29.7919915  19.7199416  54.7289258  21.3850971  25.9362343  67.9580288
  22.2482433  25.5799148  68.1683612  20.8116382  25.5976238  68.6455692
  41.2299348  47.5664200  58.7642689  41.8677758  47.4470947  58.0606029
  41.1120191  48.5145044  58.8230641  38.0389055  47.5191628  58.7004214
  37.7007566  47.4032692  57.8124748  38.9078823  47.1182793  58.6805220
  33.8975870  49.3727104  54.6901105  33.3340735  49.2817041  53.9217392
  33.7828265  48.5527009  55.1703597  38.5208838  48.6726479  64.6590419
  38.5097478  48.2779278  63.7870923  38.6829477  47.9392552  65.2524191
  31.4440302  50.8678296  57.5285325  32.2361594  50.5269120  57.1131624
  31.6836952  50.9773271  58.4487478  39.4775429  53.0398072  50.0015569
  38.8263409  53.6252152  49.6149583  40.2719792  53.5704267  50.0610607
  33.4031056  50.1287209  50.4002704  34.1761932  49.5816196  50.2615580
  33.7556455  50.9931458  50.6117165  35.2416099  51.4563591  63.6069603
  34.9505965  52.3609222  63.4916269  35.8773083  51.4980119  64.3213673
  36.1672306  48.8340440  60.1970963  36.7635878  48.6096462  59.4827926
  36.2247277  48.0925185  60.7996411  35.7397334  46.2879875  48.0321154
  35.9922855  45.7661396  47.2704617  34.8021893  46.1246021  48.1347837
  40.7840617  45.2915653  55.8395897  41.5703706  44.8735077  55.4886314
  41.0479321  46.1961746  56.0077545  40.9550694  50.7288504  50.5384554
  40.3196527  50.8023130  51.2505458  40.6248101  51.3182103  49.8603633
  46.1849044  45.2290887  56.7428875  46.9174216  44.6590104  56.9766705
  45.4288400  44.8412487  57.1835381  35.4593623  48.1907981  50.2345529
  35.3429881  47.5152884  50.9026613  35.5695883  47.7040355  49.4177682
  37.8025164  47.6518128  53.9392218  37.4383371  47.1248749  54.6505139
  38.6592280  47.2616597  53.7658703  43.7074464  38.9412461  61.2023484
  43.3757789  39.8107872  60.9784699  43.1120078  38.6248745  61.8817514
  37.4430651  42.6808028  48.9353566  37.6105053  43.5488264  49.3024037
  37.2527820  42.8435310  48.0114856  40.2005984  51.1425007  60.6019397
  39.9006707  52.0450046  60.4935204  39.8557043  50.8757190  61.4540550
  33.6518465  47.5938804  56.6356101  32.7268962  47.4615018  56.8433793
  33.9002878  48.3733023  57.1326044  43.6003128  43.6607547  58.2816834
  42.6920005  43.5922955  57.9875595  43.5490723  44.1379492  59.1098660
  37.4219871  45.1365685  49.9200233  37.3019497  45.5822736  50.7585714
  36.7272460  45.4851003  49.3613771  31.0127276  47.2372077  57.4699890
  31.1419657  47.4906556  58.3839302  30.3324728  47.8299785  57.1504545
  35.1826764  57.9069327  53.5690365  35.1050793  58.8577152  53.6478845
  34.5788407  57.5615200  54.2265291  37.6743993  45.0797193  66.2251731
  36.8977327  45.6391113  66.2154596  38.3134556  45.5653976  66.7466602
  45.4664774  41.8623985  60.0594708  44.8239154  42.1556519  59.4134503
  44.9619703  41.7476906  60.8647905  43.1204938  45.6087159  50.7480567
  44.0322794  45.8414545  50.5728265  42.6114585  46.1924203  50.1855646
  35.9290366  47.8882646  65.7869698  36.6705050  48.4267690  65.5104522
  35.2227351  48.5148935  65.9441250  41.4045705  50.0311786  64.3841860
  41.8129061  49.5894197  63.6396492  40.6822967  49.4564414  64.6376053
  37.7576775  44.9684393  61.7575417  38.6037971  45.3923807  61.9010066
  37.6975413  44.3118017  62.4513980  41.7274520  50.5912977  58.1394149
  41.0983382  50.7558691  57.4370217  41.3400182  51.0054587  58.9105113
  45.6063752  51.5267415  55.4938513  44.9214790  51.9066316  54.9435546
  45.6907601  52.1362742  56.2270460  40.9076221  42.6288762  63.4156590
  40.6637153  43.3830822  62.8790866  41.1836151  43.0074109  64.2503838
  42.8614683  49.1727374  62.0933856  43.0731579  49.8159134  61.4168237
  42.8144432  48.3389690  61.6255786  40.4640912  41.7845195  58.9970428
  39.6025391  42.0826448  59.2887166  40.4903347  42.0015593  58.0651461
  37.2802482  50.3287385  55.4044234  37.7440827  50.6075088  54.6148856
  37.0159280  49.4270830  55.2217325  34.1726563  49.8758867  58.3423997
  34.7427920  50.3046135  57.7041482  34.7634675  49.5941451  59.0408183
  36.2171368  46.4510537  52.2133799  36.9195411  46.9031581  52.6807725
  35.8851996  45.8094356  52.8413692  34.6651729  45.0422294  66.5885008
  34.0350390  45.7238575  66.8220405  34.5587817  44.9305376  65.6438147
  29.9596702  44.7094090  57.5150933  29.1695756  44.9651619  57.0391043
  30.4507949  45.5242428  57.6202973  43.9760511  52.0499329  60.2656213
  44.7977955  51.6479517  59.9838895  43.9722914  51.9467563  61.2172329
  31.9111447  45.0738669  54.4734409  31.1142610  45.1857364  54.9917905
  31.6837039  45.4125322  53.6075300  37.7417115  51.5983373  62.4216924
  37.8061547  52.0603780  63.2575096  37.0328039  50.9680738  62.5499234
  28.2434405  44.9624581  59.9465923  28.4942443  45.8471591  60.2123499
  28.7793953  44.7829182  59.1741015  52.0666504  48.3938078  56.6141185
  51.3130213  47.8245476  56.4585189  52.2014046  48.3600742  57.5611820
  37.4565132  53.2651480  52.2895904  37.3210807  54.1103016  52.7180752
  37.9974945  53.4670758  51.5261838  33.9432472  39.3443060  68.9510259
  33.5499418  38.7909259  69.6257904  34.7598612  39.6553638  69.3416777
  30.9094530  50.7826918  52.8623829  31.4219050  51.5770168  53.0129394
  31.5617243  50.0853209  52.7957431  32.7189415  53.8992674  54.9446582
  32.8956043  54.8210639  54.7567566  33.5146248  53.5851094  55.3740962
  36.8600433  40.7600939  66.5430516  37.6010146  41.3608092  66.4634978
  37.0918356  40.0178577  65.9848559  32.0041771  45.9457306  64.8208746
  31.8895286  45.0442564  65.1215845  31.1486289  46.1921003  64.4693562
  39.0833609  53.8875047  66.4196246  38.6397463  53.1011425  66.1017151
  39.7450822  54.0754197  65.7540137  33.8420730  55.4170848  60.9456925
  34.3928155  55.2887912  60.1733919  33.0032206  55.7165737  60.5951818
  41.1814847  54.1677847  64.4477648  41.1633322  54.9886728  63.9557917
  42.1034767  54.0431922  64.6727789  37.6387901  51.6821976  65.2901156
  38.1716238  50.9210264  65.0600464  37.1101982  51.3895628  66.0325310
  40.8057596  36.7882042  60.8194798  40.4621865  37.6783684  60.7433908
  41.1736559  36.5983700  59.9564383  28.8743447  49.1115572  53.6383400
  29.7118669  49.5212581  53.4217108  29.0521714  48.1715015  53.6083594
  40.7707879  46.7790653  49.3267233  40.2554502  47.5495258  49.5655620
  40.4985187  46.1055789  49.9500294  38.3554990  41.6240354  54.3852471
  37.4996586  41.2347204  54.2058110  38.7681942  41.7032315  53.5252257
  39.8854136  39.1586697  58.7844031  39.3818932  39.1216832  57.9711836
  40.1784743  40.0679440  58.8440688  36.1297022  39.2425427  57.7910213
  36.9950019  39.0468236  57.4316102  36.1974531  39.0135779  58.7179569
  45.7442153  49.5323008  51.2620406  44.9671596  49.1934167  50.8175568
  46.4233634  49.5375631  50.5875371  40.5594182  44.6517745  51.1527014
  40.2544318  44.9663894  52.0037157  41.5124624  44.7299165  51.1954347
  39.0040614  50.8107969  52.8019968  38.4761975  50.0760728  52.4893205
  38.5028117  51.5882645  52.5559936  43.9833460  49.0056989  57.9187014
  43.3257134  49.6956250  58.0067143  44.7873859  49.3953421  58.2621001
  33.7359341  41.4727635  55.1626579  34.3103093  41.2502816  54.4299772
  34.3230324  41.5416329  55.9155181  42.7938919  47.3601362  55.9690956
  43.3070800  47.9931354  56.4712666  43.4440143  46.7602557  55.6034316
  34.0628929  43.5032096  49.1822465  33.2266241  43.8406782  49.5031739
  33.9233698  43.3681076  48.2449602  36.0382009  38.3468884  53.8901649
  35.3846421  38.0317901  53.2658264  35.9962483  37.7244624  54.6161472
  37.1493214  48.6288179  45.8054941  36.2420276  48.3977432  46.0046090
  37.6464246  47.8325798  45.9928923  40.0561293  57.3385686  48.7251627
  39.3822992  57.6417383  49.3336585  40.4427115  58.1414766  48.3757084
  39.2719749  44.8350817  58.2149297  38.3542311  45.0565764  58.0570985
  39.6879893  44.9097128  57.3561004  40.0554797  46.2342233  53.3451977
  40.8026616  46.7463630  53.0359099  40.3246387  45.9126286  54.2056370
  38.3281447  48.7300774  50.3278931  37.4192667  48.4459806  50.4251401
  38.3576531  49.1499852  49.4682238  43.5600715  52.3407363  54.0970099
  43.1063042  51.4998273  54.1535289  42.9294682  52.9768762  54.4344879
  42.5033634  43.2699349  55.3270766  41.7656391  42.7576735  55.6581009
  42.7560408  42.8299731  54.5154043  42.0033654  54.1783860  55.0319917
  42.2956628  54.7388917  54.3132282  42.5132275  54.4712421  55.7873076
  42.6045262  36.0475601  55.9212535  42.9104139  35.1872965  55.6338450
  43.3297867  36.6393221  55.7211529  28.8969618  46.4506288  54.3094133
  28.6994018  45.8575648  53.5845200  28.3416282  46.1458498  55.0270072
  36.8766341  46.3429394  56.4288726  36.9314951  45.3903231  56.3531203
  36.0657543  46.4988833  56.9130025  38.0257535  50.2709517  47.6667010
  37.5876965  49.5545376  47.2072647  38.7667976  50.4985632  47.1052101
  34.8158701  44.9606454  54.1879105  34.0026567  45.2600625  54.5944297
  35.3117696  44.5662143  54.9053588  36.9667279  54.9564211  56.1213370
  36.9243458  55.1825057  55.1921902  37.8829978  54.7227586  56.2699171
  40.4132913  45.4248278  63.0193999  40.7682301  45.6519752  63.8788465
  41.0605044  45.7566655  62.3971255  46.1430650  48.5466714  53.7243328
  46.0048549  48.7368310  52.7964517  45.7866869  49.3086097  54.1811379
  34.3072776  42.5324810  59.8040340  34.9472155  42.3913569  59.1063304
  33.4750307  42.2459323  59.4278942  46.1700030  50.6143241  58.7354600
  46.6036536  50.5218530  59.5837654  46.8831610  50.5900742  58.0974616
  35.0833080  51.8327240  55.9175333  35.8773679  51.3377560  55.7157908
  34.3724772  51.3045103  55.5543038  39.9027925  54.2145335  60.2687700
  39.9564947  54.7836272  61.0365416  39.0342706  54.3847221  59.9041737
  31.3915844  45.9770322  51.9935085  30.4613432  45.9154777  52.2105048
  31.4873316  45.4546274  51.1971727  31.3101393  42.5025135  54.5813327
  31.5708210  43.4170468  54.4722488  32.1318565  42.0349577  54.7309940
  32.7826318  43.9162892  61.7512152  33.4549371  43.7080254  61.1024801
  31.9556104  43.7184978  61.3117384  47.0315579  50.6566942  61.2687485
  47.2251469  51.5612753  61.5146760  46.9316197  50.1974361  62.1026070
  38.6851890  40.5424833  63.7677812  38.0379805  41.2414782  63.6742289
  39.4552905  40.9760977  64.1354061  42.0930688  50.8073685  66.8428366
  41.9416194  50.5784236  65.9258449  42.0835367  51.7644286  66.8559711
  38.8616024  48.3805597  61.8274632  39.7908084  48.5316757  61.6543600
  38.4407054  48.4689618  60.9723279  37.6604356  52.4056262  59.5973170
  37.5215442  52.0375046  60.4699108  36.8718952  52.9203901  59.4257128
  38.2552508  57.5065358  50.9398706  38.4304264  57.0353402  51.7544329
  37.5685296  58.1331125  51.1679967  39.2109571  51.7837865  56.9862008
  38.8759404  51.7438635  57.8819657  38.7113517  51.1182581  56.5132418
  33.1853815  47.1905495  62.5114589  33.0473613  46.4585733  63.1126128
  34.0958739  47.1014395  62.2298777  42.1468763  49.1293899  47.2599067
  41.5297933  48.4040727  47.1632120  41.6785251  49.8903259  46.9166142
  35.8136116  46.9025454  61.9998268  36.5235734  46.2618646  61.9584887
  35.7705424  47.1538349  62.9224449  43.8022894  53.8392807  64.9204848
  43.7435441  53.1552027  64.2535431  44.2042413  54.5811797  64.4685474
  34.5265050  43.8890672  63.8193908  33.9902407  43.4381410  64.4715504
  33.9381758  44.0236581  63.0764372  32.8213593  60.6554721  57.7138567
  33.0610192  61.2873245  58.3917585  31.9782790  60.3042761  58.0003926
  33.9367309  43.3479323  46.3820372  33.0596775  43.2268124  46.0182618
  34.4125062  42.5565402  46.1299260  43.8040302  51.8032391  63.1518827
  42.9167081  51.4658313  63.2745226  44.3738853  51.0715422  63.3887593
  25.4569449  48.1356483  56.4761879  26.1440489  47.8218213  55.8882894
  25.3017578  49.0397848  56.2029130  30.2604171  43.0246680  60.9046902
  30.1762360  42.4172349  60.1697312  29.4386877  43.5155698  60.9056399
  37.3341455  56.4633844  60.1180071  37.2611627  57.2688815  60.6299375
  36.8918848  56.6625809  59.2928092  37.1231235  55.7005614  53.6282892
  36.3398757  56.2427294  53.7221117  37.8223980  56.2179593  54.0277133
  40.4327885  41.5100243  56.2717097  40.9296584  40.7570205  55.9518168
  39.6614866  41.5464560  55.7060307  48.2857642  47.2140609  57.9135389
  48.2747519  48.0965324  57.5429322  47.4175022  46.8612159  57.7189926
  39.7940139  56.3620678  62.2738229  40.5068111  56.9968142  62.2014131
  39.3030167  56.4584544  61.4578231  41.5157666  50.2671930  53.8455521
  40.5813944  50.3873393  53.6760225  41.6934334  49.3644397  53.5815531
  37.0162854  43.6517626  55.9988782  36.6460641  43.0988666  56.6869688
  37.5121946  43.0475760  55.4463782  44.9030217  46.1089250  54.3805555
  45.3690669  46.9417241  54.3065858  45.3537717  45.6434231  55.0850813
  34.8452052  54.1115121  63.0943800  35.5461512  54.7451604  63.2473194
  34.3747167  54.4529853  62.3339439  42.9706448  52.4533071  51.3791707
  43.2466292  52.3389665  52.2885581  42.1010947  52.0550556  51.3403880
  42.8746880  38.4769837  58.4196456  41.9609959  38.7074063  58.5878663
  43.3039981  38.5608281  59.2710489  42.6453338  46.6659729  60.9196350
  41.9924788  46.9135636  60.2648803  43.0233718  45.8523867  60.5858828
  39.6060512  56.7019422  55.0224521  39.7882907  55.8841078  55.4852273
  40.4293498  56.9187114  54.5849411  39.9402678  55.6287607  52.2839569
  40.4690444  55.1180061  51.6709731  40.2030897  55.3130137  53.1485102
  38.6940911  47.4079540  67.4062387  38.0181548  47.3073669  68.0764763
  39.5168545  47.2518753  67.8698385  30.4419770  53.6451476  60.0274903
  31.0273207  52.8995164  60.1602807  30.2444609  53.9555433  60.9111567
  33.2958425  56.6802724  55.0437345  32.6268801  57.1648851  54.5601385
  33.1571295  56.9271944  55.9580724  25.0337425  46.2157076  58.7479346
  25.0721525  45.6820667  59.5416464  24.5277718  45.6892282  58.1290323
  37.4363694  58.7146467  61.6420003  37.9882002  58.8778089  62.4069089
  37.7769888  59.3050905  60.9700028  32.4128187  41.0621617  62.2441888
  32.4769514  41.9236448  61.8319286  32.3495308  40.4495619  61.5114247
  31.8880460  43.1344749  65.8914922  32.5152499  42.7521827  66.5052447
  31.0308379  42.9158951  66.2570615  42.2874568  53.5407725  67.4968658
  42.8314472  54.1537683  67.0023613  41.7061413  54.0987303  68.0135671
  28.6646003  44.9421179  51.8233277  28.9599444  44.0331857  51.7700331
  27.7634038  44.9208918  51.5014280  40.5732081  56.6628443  58.6283686
  40.4483221  55.8618182  58.1194631  41.2311172  57.1574636  58.1397656
  32.1940250  43.0177175  57.8060826  31.4726835  43.6313143  57.6668299
  32.9833505  43.5534940  57.7277472  42.6366990  54.4637463  60.2563236
  41.6897325  54.3442814  60.1841562  42.9849763  53.5759961  60.3389497
  34.9966563  40.3531602  64.0801478  35.5200965  40.5993898  64.8427787
  34.7778896  41.1851636  63.6604615  30.3933844  42.6235276  51.9472602
  30.0646550  41.7432655  51.7647708  30.7473215  42.5682945  52.8348992
  39.6413423  54.2590179  56.4567588  39.4938385  53.3306886  56.6375158
  40.4666917  54.2810270  55.9724663  33.5075667  42.9108246  52.3148080
  33.8471740  43.4394167  51.5926688  33.9547788  43.2488652  53.0906647
  43.2447545  55.0818738  57.5432461  44.1694092  54.8761599  57.4056912
  43.0762848  54.8335139  58.4521802  36.2019108  41.2945297  61.7651148
  35.8615929  40.4953110  62.1671828  35.4958114  41.5947008  61.1927981
  36.8535580  38.3794609  60.2178471  37.6761649  37.9055087  60.0957361
  37.0973644  39.1585093  60.7177157  35.4943814  41.4082868  50.5141373
  36.2152177  41.7864120  50.0105090  34.8709119  42.1271744  50.6176351
  39.6374937  42.1128017  51.4499705  39.8538552  42.9952654  51.1488533
  39.1569005  41.7214230  50.7205347  34.3774159  45.0713730  58.0270450
  34.2318739  45.3854033  58.9194731  33.8999362  45.6898630  57.4741348
  36.2370542  42.0616278  58.0751339  36.2232110  41.1657371  57.7383637
  36.9542970  42.0686941  58.7089625  38.0896672  42.4953618  60.1204467
  37.8314450  43.4170689  60.1188797  37.5581713  42.0984052  60.8104931
  43.0342861  55.6004405  52.8994552  43.2079739  55.0350828  52.1468405
  43.5271752  56.4005300  52.7174042  28.8519821  47.6119074  60.9658111
  28.3073289  48.3878882  61.0978385  29.7299171  47.9589879  60.8077232
  35.6407438  40.9430658  53.3438909  35.7623349  40.0147304  53.5429797
  35.3509480  40.9569344  52.4317225  38.5098628  38.6285568  56.4805629
  38.5320325  38.6924902  55.5257609  38.9266687  37.7890077  56.6746135
  48.8882252  48.3640828  54.5184852  49.3313398  47.6148153  54.1203975
  48.0108763  48.3550964  54.1358584  44.0218034  54.9171169  49.9991450
  44.7168938  55.5377862  50.2178765  44.3641184  54.0666521  50.2743828
  29.6385843  46.7388970  63.8588268  28.8967579  46.8871606  64.4452898
  29.3178587  46.9997236  62.9955017  45.9209457  52.3670875  51.5278781
  46.4460781  52.7058148  50.8028101  45.8331809  51.4317890  51.3441916
  37.5829505  56.2804949  63.6568658  37.8916632  56.0354095  64.5291357
  38.3804987  56.4851587  63.1687528  37.6050117  58.4342858  55.8874034
  37.1655108  57.9419237  56.5806891  38.3558234  57.8915826  55.6466110
  30.0842456  54.6254399  55.8898662  30.9100476  54.3258171  55.5097306
  29.7336508  53.8562022  56.3388451  35.0523990  53.9780867  57.9596336
  34.4303999  53.3151572  57.6598564  35.7228857  54.0041999  57.2769984
  28.2851061  52.5440726  56.8487596  27.4482970  52.1162900  56.6671597
  28.2574707  52.7373169  57.7858387  35.1248517  42.4562655  67.5528842
  35.1736673  43.3324778  67.1706612  35.6671031  41.9140048  66.9800485
  45.6103363  53.0003779  66.8329979  44.8198906  52.9827917  66.2934479
  45.3736717  53.5392072  67.5879016  45.7301238  49.8496245  64.1462708
  45.7799243  49.6846252  65.0878230  45.6215161  48.9823504  63.7560588
  34.6137497  52.5284791  51.4354797  34.7625617  53.2120255  50.7821469
  35.4203940  52.5089881  51.9504252  43.0205000  45.8327173  65.4622014
  43.9214863  45.6933638  65.1706012  43.0952975  45.9981628  66.4020192
  37.3547806  43.2094028  64.3075201  36.4851115  43.5027594  64.0357789
  37.5907286  43.7934473  65.0282464  47.2319435  52.2693187  64.3904729
  46.9404243  52.6323167  65.2268190  46.6191566  51.5560195  64.2118061
  48.4315117  49.8346066  56.9107299  49.2662008  50.2735870  57.0744860
  48.5674246  49.3584720  56.0915545  45.4806623  47.3925801  62.8584787
  45.9560744  47.5853447  62.0503639  44.5572188  47.4484987  62.6128171
  32.3690129  48.5549968  52.4415865  32.1236171  47.6512298  52.6396076
  32.5386044  48.5567119  51.4995343  40.0586839  39.4273645  61.8240621
  40.5768783  40.1634672  61.4987110  39.7041972  39.7337638  62.6587380
  31.6385777  44.2878326  49.9402027  30.9455022  44.3622681  49.2842063
  31.3937529  43.5238670  50.4623544  40.3099434  35.8473927  57.3441518
  40.5901187  35.1797116  57.9701944  41.0950040  36.0403023  56.8316181
  38.1132902  55.0232921  48.9066544  37.5406869  55.6423108  48.4537016
  38.6865696  55.5732283  49.4406466  44.1808292  44.2691561  61.0913093
  45.1325715  44.3689659  61.1125317  44.0111742  43.4769830  61.6011177
  42.2022671  41.3547144  61.2772494  41.6072603  41.6352157  60.5818982
  41.9172368  41.8441045  62.0489235  41.3330162  55.3070071  50.0375126
  42.2660835  55.2415633  50.2408002  41.2453375  56.1426338  49.5789659
  43.9618178  54.6235942  46.9979074  43.8831810  54.2895805  47.8914832
  44.7827845  55.1157710  46.9970546  46.6596370  47.4897681  60.2055392
  46.6272690  46.5513682  60.3915076  47.2696993  47.5681718  59.4721217
  38.4979701  46.3593734  46.2482596  39.4438805  46.2299942  46.3171014
  38.1193945  45.6208396  46.7252025  46.8090858  44.2808724  60.2513676
  46.2929907  43.4967181  60.0643604  47.6930807  43.9527441  60.4160195
  44.4701585  38.0249740  56.2109488  44.2726406  37.7164828  57.0952820
  45.0801291  38.7511379  56.3407418  52.4772920  48.5513688  59.3461429
  53.2076308  48.2898976  59.9069133  51.8679865  47.8142410  59.3863497
  50.5588217  46.6921550  59.9435880  49.8321380  46.5577515  59.3352372
  50.1435504  46.9998379  60.7492598  38.3818393  50.4111480  67.7083253
  39.3021403  50.5890079  67.9023300  38.3467976  49.4667525  67.5562953
  36.6822618  44.2843710  46.1837482  35.7754073  43.9876823  46.2600195
  36.9598599  43.9873528  45.3171768  27.6000558  45.6050074  56.6336528
  27.2803342  44.7515382  56.3410902  27.0533986  45.8198652  57.3894495
  31.3780466  48.3212515  60.3506035  31.5966475  49.2529623  60.3694068
  31.7906239  47.9620489  61.1360838  38.2984683  38.8280600  52.3381723
  37.4885412  38.4827685  52.7136969  38.9869100  38.5188144  52.9269335
  40.2275232  37.9058647  53.9606020  40.7806270  38.3254100  54.6196043
  40.4645318  36.9794395  54.0028976  36.2508331  43.8945720  69.7408784
  36.1505058  44.8440077  69.6720875  36.0329873  43.5663959  68.8684854
  35.4521402  41.1430646  46.3249461  36.3140566  41.4685544  46.5845278
  35.6371746  40.3562141  45.8122527  27.4688818  49.2252985  58.6029650
  26.7752290  48.8106938  58.0899604  28.2161809  49.2673522  58.0063069
  43.6054039  40.0159172  53.4684684  43.0252708  40.6743976  53.0862736
  43.3389971  39.1936517  53.0572101  42.0557605  39.4164230  55.6706004
  42.5557384  39.5280764  54.8620323  42.6993213  39.1125283  56.3106813
  36.1139601  47.3242859  68.5573845  35.6306683  48.1243219  68.7637734
  36.2000540  47.3350804  67.6041289  29.3825561  49.1571239  56.4795665
  29.3596249  49.2558926  55.5277548  29.6926197  50.0036390  56.8012831
  32.0412938  51.2147394  60.5942279  32.9956192  51.1831336  60.5272211
  31.8425462  50.7538018  61.4092505  32.6312321  49.7848510  63.1613077
  33.4505210  50.2792589  63.1847914  32.9049128  48.8680478  63.1330644
  42.3878917  42.1759262  52.5241032  41.5004772  42.4608913  52.3061227
  42.8032906  42.0153026  51.6768309  45.7393453  42.2005783  56.2395371
  46.5153843  42.6902236  56.5119988  45.0141587  42.6263838  56.6967241
  48.1766012  42.9133403  57.2969312  48.7710502  42.6729139  56.5862620
  48.2492595  42.1940533  57.9242848  30.3963167  56.7567013  57.6112477
  30.2617635  55.9967414  57.0450475  29.9795230  57.4807913  57.1441266
  41.5322130  51.9403937  46.6189052  42.2357980  52.1453940  47.2346708
  40.8084779  52.5080699  46.8838136  42.3619941  47.6913798  52.7391322
  42.3055142  48.1482350  51.8998955  42.9148283  46.9304483  52.5614165
  46.1724746  43.4803530  53.5641442  45.9161681  43.0800166  54.3949649
  45.5477615  44.1947324  53.4391581  50.4837084  46.2199603  56.0712733
  49.9236642  46.2892793  56.8444295  49.8780588  46.0440588  55.3512229
  33.5532293  57.6536331  57.8230919  33.4364677  58.5981763  57.7209610
  32.7324739  57.3509892  58.2116719  43.4408828  52.3786466  48.6687512
  44.2754432  51.9467665  48.4864987  43.2793171  52.2068480  49.5964407
  43.0954720  48.8818580  50.0343851  43.0403524  48.7162851  49.0932296
  42.4700775  49.5894612  50.1906041  27.8847235  44.1186644  63.8605274
  28.5306098  43.6085598  64.3492499  27.6764386  44.8555326  64.4348699
  40.4100627  51.1867491  69.3597414  41.2791787  51.3608144  68.9984049
  39.9307379  52.0061908  69.2373144  36.4050845  38.3826689  49.6129170
  36.3929515  39.3268528  49.7697441  37.2974267  38.1996834  49.3188631
  34.5786807  58.3064592  61.0386848  35.4814054  58.3388203  61.3553343
  34.3524177  57.3765043  61.0533184  36.3340409  57.0595579  57.6996927
  35.3836040  57.0597441  57.5861299  36.6372895  56.3128314  57.1832961
  40.2202965  34.9769465  53.8675107  39.4535361  34.4227952  54.0131789
  40.6313670  35.0491334  54.7289258  32.2244726  41.2654261  67.9580288
  33.0876187  40.9091066  68.1683612  31.6510137  40.9268156  68.6455692
  48.8782809  62.8483545  58.7004214  48.5401321  62.7324610  57.8124748
  49.7472577  62.4474711  58.6805220  44.7369625  64.7019022  54.6901105
  44.1734490  64.6108959  53.9217392  44.6222020  63.8818926  55.1703597
  49.3602592  64.0018397  64.6590419  49.3491233  63.6071195  63.7870923
  49.5223232  63.2684470  65.2524191  42.2834057  66.1970213  57.5285325
  43.0755349  65.8561038  57.1131624  42.5230707  66.3065188  58.4487478
  50.3169183  68.3689990  50.0015569  49.6657163  68.9544070  49.6149583
  51.1113546  68.8996184  50.0610607  44.2424811  65.4579127  50.4002704
  45.0155687  64.9108114  50.2615580  44.5950209  66.3223376  50.6117165
  46.0809853  66.7855509  63.6069603  45.7899719  67.6901140  63.4916269
  46.7166838  66.8272037  64.3213673  47.0066060  64.1632357  60.1970963
  47.6029632  63.9388380  59.4827926  47.0641032  63.4217103  60.7996411
  46.5791088  61.6171793  48.0321154  46.8316609  61.0953314  47.2704617
  45.6415648  61.4537938  48.1347837  51.7944449  66.0580421  50.5384554
  51.1590282  66.1315048  51.2505458  51.4641855  66.6474020  49.8603633
  46.2987377  63.5199899  50.2345529  46.1823635  62.8444802  50.9026613
  46.4089637  63.0332273  49.4177682  48.6418918  62.9810046  53.9392218
  48.2777125  62.4540667  54.6505139  49.4986034  62.5908515  53.7658703
  54.5468219  54.2704378  61.2023484  54.2151544  55.1399789  60.9784699
  53.9513832  53.9540662  61.8817514  48.2824405  58.0099946  48.9353566
  48.4498807  58.8780182  49.3024037  48.0921574  58.1727227  48.0114856
  51.0399738  66.4716924  60.6019397  50.7400461  67.3741963  60.4935204
  50.6950798  66.2049108  61.4540550  44.4912220  62.9230721  56.6356101
  43.5662716  62.7906935  56.8433793  44.7396633  63.7024941  57.1326044
  48.2613626  60.4657603  49.9200233  48.1413251  60.9114654  50.7585714
  47.5666214  60.8142921  49.3613771  41.8521031  62.5663995  57.4699890
  41.9813412  62.8198474  58.3839302  41.1718482  63.1591703  57.1504545
  46.0220518  73.2361245  53.5690365  45.9444548  74.1869070  53.6478845
  45.4182162  72.8907117  54.2265291  48.5137748  60.4089110  66.2251731
  47.7371082  60.9683030  66.2154596  49.1528311  60.8945893  66.7466602
  46.7684120  63.2174564  65.7869698  47.5098805  63.7559608  65.5104522
  46.0621106  63.8440852  65.9441250  52.2439460  65.3603704  64.3841860
  52.6522816  64.9186115  63.6396492  51.5216721  64.7856332  64.6376053
  48.5970530  60.2976311  61.7575417  49.4431725  60.7215724  61.9010066
  48.5369168  59.6409935  62.4513980  51.7469975  57.9580679  63.4156590
  51.5030907  58.7122740  62.8790866  52.0229906  58.3366027  64.2503838
  51.3034667  57.1137112  58.9970428  50.4419146  57.4118366  59.2887166
  51.3297102  57.3307511  58.0651461  48.1196236  65.6579303  55.4044234
  48.5834582  65.9367006  54.6148856  47.8553034  64.7562747  55.2217325
  45.0120317  65.2050784  58.3423997  45.5821674  65.6338053  57.7041482
  45.6028429  64.9233369  59.0408183  47.0565122  61.7802455  52.2133799
  47.7589166  62.2323499  52.6807725  46.7245751  61.1386274  52.8413692
  45.5045484  60.3714212  66.5885008  44.8744144  61.0530493  66.8220405
  45.3981572  60.2597293  65.6438147  40.7990456  60.0386008  57.5150933
  40.0089510  60.2943536  57.0391043  41.2901704  60.8534346  57.6202973
  42.7505202  60.4030587  54.4734409  41.9536365  60.5149281  54.9917905
  42.5230794  60.7417239  53.6075300  48.5810869  66.9275290  62.4216924
  48.6455302  67.3895698  63.2575096  47.8721793  66.2972655  62.5499234
  39.0828159  60.2916498  59.9465923  39.3336198  61.1763508  60.2123499
  39.6187708  60.1121100  59.1741015  48.2958887  68.5943398  52.2895904
  48.1604562  69.4394934  52.7180752  48.8368699  68.7962675  51.5261838
  44.7826227  54.6734978  68.9510259  44.3893172  54.1201176  69.6257904
  45.5992367  54.9845556  69.3416777  41.7488284  66.1118836  52.8623829
  42.2612805  66.9062086  53.0129394  42.4010997  65.4145126  52.7957431
  43.5583169  69.2284592  54.9446582  43.7349797  70.1502557  54.7567566
  44.3540003  68.9143011  55.3740962  47.6994188  56.0892857  66.5430516
  48.4403901  56.6900010  66.4634978  47.9312110  55.3470495  65.9848559
  42.8435526  61.2749224  64.8208746  42.7289041  60.3734481  65.1215845
  41.9880043  61.5212921  64.4693562  44.6814485  70.7462766  60.9456925
  45.2321910  70.6179829  60.1733919  43.8425960  71.0457655  60.5951818
  48.4781656  67.0113894  65.2901156  49.0109992  66.2502182  65.0600464
  47.9495737  66.7187546  66.0325310  51.6451351  52.1173960  60.8194798
  51.3015620  53.0075601  60.7433908  52.0130313  51.9275617  59.9564383
  39.7137201  64.4407490  53.6383400  40.5512423  64.8504498  53.4217108
  39.8915469  63.5006932  53.6083594  49.1948744  56.9532272  54.3852471
  48.3390341  56.5639122  54.2058110  49.6075696  57.0324232  53.5252257
  50.7247891  54.4878615  58.7844031  50.2212687  54.4508750  57.9711836
  51.0178498  55.3971358  58.8440688  46.9690777  54.5717345  57.7910213
  47.8343774  54.3760153  57.4316102  47.0368286  54.3427696  58.7179569
  49.8434368  66.1399886  52.8019968  49.3155730  65.4052646  52.4893205
  49.3421871  66.9174563  52.5559936  44.5753096  56.8019552  55.1626579
  45.1496848  56.5794734  54.4299772  45.1624078  56.8708247  55.9155181
  44.9022683  58.8324013  49.1822465  44.0659995  59.1698700  49.5031739
  44.7627453  58.6972993  48.2449602  46.8775764  53.6760801  53.8901649
  46.2240176  53.3609819  53.2658264  46.8356238  53.0536542  54.6161472
  47.9886968  63.9580096  45.8054941  47.0814030  63.7269350  46.0046090
  48.4858000  63.1617716  45.9928923  50.8955047  72.6677604  48.7251627
  50.2216746  72.9709300  49.3336585  51.2820869  73.4706684  48.3757084
  50.1113504  60.1642735  58.2149297  49.1936065  60.3857682  58.0570985
  50.5273648  60.2389045  57.3561004  49.1675202  64.0592691  50.3278931
  48.2586421  63.7751724  50.4251401  49.1970286  64.4791770  49.4682238
  39.7363372  61.7798205  54.3094133  39.5387772  61.1867566  53.5845200
  39.1810036  61.4750416  55.0270072  47.7160096  61.6721312  56.4288726
  47.7708706  60.7195148  56.3531203  46.9051298  61.8280751  56.9130025
  48.8651290  65.6001435  47.6667010  48.4270720  64.8837294  47.2072647
  49.6061731  65.8277550  47.1052101  45.6552456  60.2898372  54.1879105
  44.8420321  60.5892542  54.5944297  46.1511450  59.8954060  54.9053588
  47.8061034  70.2856129  56.1213370  47.7637213  70.5116975  55.1921902
  48.7223733  70.0519503  56.2699171  51.2526668  60.7540196  63.0193999
  51.6076055  60.9811669  63.8788465  51.8998799  61.0858573  62.3971255
  45.1466531  57.8616727  59.8040340  45.7865910  57.7205486  59.1063304
  44.3144061  57.5751241  59.4278942  45.9226835  67.1619158  55.9175333
  46.7167433  66.6669478  55.7157908  45.2118527  66.6337021  55.5543038
  42.2309598  61.3062239  51.9935085  41.3007186  61.2446695  52.2105048
  42.3267070  60.7838192  51.1971727  42.1495147  57.8317052  54.5813327
  42.4101964  58.7462385  54.4722488  42.9712319  57.3641495  54.7309940
  43.6220072  59.2454809  61.7512152  44.2943126  59.0372171  61.1024801
  42.7949859  59.0476895  61.3117384  49.5245644  55.8716750  63.7677812
  48.8773559  56.5706700  63.6742289  50.2946660  56.3052894  64.1354061
  49.7009779  63.7097515  61.8274632  50.6301839  63.8608675  61.6543600
  49.2800809  63.7981536  60.9723279  48.4998111  67.7348180  59.5973170
  48.3609196  67.3666964  60.4699108  47.7112707  68.2495819  59.4257128
  49.0946263  72.8357276  50.9398706  49.2698018  72.3645319  51.7544329
  48.4079051  73.4623042  51.1679967  50.0503326  67.1129782  56.9862008
  49.7153158  67.0730552  57.8819657  49.5507271  66.4474498  56.5132418
  44.0247570  62.5197412  62.5114589  43.8867368  61.7877651  63.1126128
  44.9352493  62.4306312  62.2298777  52.9862517  64.4585817  47.2599067
  52.3691688  63.7332645  47.1632120  52.5179006  65.2195177  46.9166142
  46.6529870  62.2317372  61.9998268  47.3629489  61.5910564  61.9584887
  46.6099178  62.4830266  62.9224449  45.3658804  59.2182590  63.8193908
  44.8296161  58.7673328  64.4715504  44.7775513  59.3528498  63.0764372
  43.6607348  75.9846639  57.7138567  43.9003946  76.6165163  58.3917585
  42.8176544  75.6334679  58.0003926  44.7761063  58.6771241  46.3820372
  43.8990530  58.5560042  46.0182618  45.2518816  57.8857319  46.1299260
  36.2963203  63.4648401  56.4761879  36.9834243  63.1510131  55.8882894
  36.1411332  64.3689765  56.2029130  41.0997926  58.3538597  60.9046902
  41.0156114  57.7464267  60.1697312  40.2780632  58.8447616  60.9056399
  48.1735210  71.7925761  60.1180071  48.1005381  72.5980733  60.6299375
  47.7312603  71.9917727  59.2928092  47.9624989  71.0297531  53.6282892
  47.1792511  71.5719211  53.7221117  48.6617734  71.5471511  54.0277133
  51.2721639  56.8392161  56.2717097  51.7690339  56.0862123  55.9518168
  50.5008621  56.8756477  55.7060307  47.8556608  58.9809544  55.9988782
  47.4854396  58.4280584  56.6869688  48.3515701  58.3767677  55.4463782
  45.6845807  69.4407039  63.0943800  46.3855266  70.0743522  63.2473194
  45.2140922  69.7821770  62.3339439  53.7140634  53.8061754  58.4196456
  52.8003714  54.0365981  58.5878663  54.1433736  53.8900198  59.2710489
  53.4847093  61.9951646  60.9196350  52.8318543  62.2427554  60.2648803
  53.8627473  61.1815784  60.5858828  50.4454267  72.0311339  55.0224521
  50.6276661  71.2132995  55.4852273  51.2687253  72.2479032  54.5849411
  50.7796432  70.9579525  52.2839569  51.3084198  70.4471979  51.6709731
  51.0424652  70.6422055  53.1485102  49.5334666  62.7371457  67.4062387
  48.8575303  62.6365587  68.0764763  50.3562300  62.5810671  67.8698385
  41.2813525  68.9743394  60.0274903  41.8666962  68.2287082  60.1602807
  41.0838363  69.2847351  60.9111567  44.1352180  72.0094641  55.0437345
  43.4662555  72.4940769  54.5601385  43.9965050  72.2563862  55.9580724
  35.8731180  61.5448994  58.7479346  35.9115279  61.0112585  59.5416464
  35.3671472  61.0184200  58.1290323  43.2521942  56.3913535  62.2441888
  43.3163268  57.2528365  61.8319286  43.1889062  55.7787536  61.5114247
  42.7274214  58.4636667  65.8914922  43.3546253  58.0813744  66.5052447
  41.8702133  58.2450869  66.2570615  39.5039757  60.2713096  51.8233277
  39.7993198  59.3623775  51.7700331  38.6027793  60.2500836  51.5014280
  43.0334004  58.3469093  57.8060826  42.3120590  58.9605060  57.6668299
  43.8227260  58.8826858  57.7277472  45.8360318  55.6823519  64.0801478
  46.3594719  55.9285816  64.8427787  45.6172651  56.5143554  63.6604615
  41.2327599  57.9527194  51.9472602  40.9040305  57.0724573  51.7647708
  41.5866969  57.8974863  52.8348992  50.4807178  69.5882097  56.4567588
  50.3332140  68.6598804  56.6375158  51.3060671  69.6102187  55.9724663
  44.3469422  58.2400164  52.3148080  44.6865494  58.7686085  51.5926688
  44.7941542  58.5780570  53.0906647  47.0412863  56.6237214  61.7651148
  46.7009683  55.8245027  62.1671828  46.3351869  56.9238925  61.1927981
  47.6929334  53.7086527  60.2178471  48.5155404  53.2347005  60.0957361
  47.9367398  54.4877011  60.7177157  46.3337569  56.7374785  50.5141373
  47.0545931  57.1156038  50.0105090  45.7102873  57.4563662  50.6176351
  45.2167913  60.4005647  58.0270450  45.0712494  60.7145950  58.9194731
  44.7393117  61.0190548  57.4741348  47.0764296  57.3908195  58.0751339
  47.0625865  56.4949289  57.7383637  47.7936724  57.3978859  58.7089625
  48.9290427  57.8245536  60.1204467  48.6708205  58.7462606  60.1188797
  48.3975467  57.4275970  60.8104931  39.6913575  62.9410992  60.9658111
  39.1467043  63.7170800  61.0978385  40.5692925  63.2881796  60.8077232
  46.4801192  56.2722576  53.3438909  46.6017103  55.3439222  53.5429797
  46.1903234  56.2861262  52.4317225  49.3492382  53.9577486  56.4805629
  49.3714079  54.0216819  55.5257609  49.7660441  53.1181995  56.6746135
  40.4779597  62.0680888  63.8588268  39.7361333  62.2163523  64.4452898
  40.1572342  62.3289154  62.9955017  48.4443872  73.7634776  55.8874034
  48.0048862  73.2711155  56.5806891  49.1951989  73.2207744  55.6466110
  40.9236211  69.9546317  55.8898662  41.7494231  69.6550089  55.5097306
  40.5730263  69.1853939  56.3388451  45.8917744  69.3072785  57.9596336
  45.2697753  68.6443490  57.6598564  46.5622611  69.3333917  57.2769984
  39.1244816  67.8732643  56.8487596  38.2876724  67.4454818  56.6671597
  39.0968461  68.0665087  57.7858387  45.9642272  57.7854573  67.5528842
  46.0130427  58.6616696  67.1706612  46.5064786  57.2431966  66.9800485
  45.4531251  67.8576708  51.4354797  45.6019371  68.5412173  50.7821469
  46.2597694  67.8381798  51.9504252  53.8598755  61.1619091  65.4622014
  54.7608617  61.0225556  65.1706012  53.9346729  61.3273546  66.4020192
  48.1941560  58.5385945  64.3075201  47.3244869  58.8319512  64.0357789
  48.4301040  59.1226390  65.0282464  43.2083884  63.8841886  52.4415865
  42.9629926  62.9804216  52.6396076  43.3779799  63.8859036  51.4995343
  50.8980594  54.7565562  61.8240621  51.4162538  55.4926589  61.4987110
  50.5435727  55.0629556  62.6587380  42.4779532  59.6170244  49.9402027
  41.7848776  59.6914599  49.2842063  42.2331283  58.8530587  50.4623544
  51.1493188  51.1765845  57.3441518  51.4294942  50.5089034  57.9701944
  51.9343795  51.3694941  56.8316181  48.9526657  70.3524839  48.9066544
  48.3800624  70.9715026  48.4537016  49.5259450  70.9024201  49.4406466
  53.0416426  56.6839062  61.2772494  52.4466358  56.9644075  60.5818982
  52.7566123  57.1732963  62.0489235  52.1723916  70.6361989  50.0375126
  53.1054589  70.5707551  50.2408002  52.0847129  71.4718256  49.5789659
  54.8011933  69.9527859  46.9979074  54.7225565  69.6187723  47.8914832
  55.6221600  70.4449627  46.9970546  49.3373455  61.6885652  46.2482596
  50.2832560  61.5591860  46.3171014  48.9587700  60.9500313  46.7252025
  49.2212148  65.7403398  67.7083253  50.1415157  65.9181997  67.9023300
  49.1861731  64.7959443  67.5562953  47.5216372  59.6135628  46.1837482
  46.6147828  59.3168741  46.2600195  47.7992353  59.3165446  45.3171768
  38.4394313  60.9341991  56.6336528  38.1197097  60.0807300  56.3410902
  37.8927741  61.1490570  57.3894495  42.2174220  63.6504432  60.3506035
  42.4360230  64.5821540  60.3694068  42.6299994  63.2912407  61.1360838
  49.1378438  54.1572518  52.3381723  48.3279166  53.8119603  52.7136969
  49.8262855  53.8480061  52.9269335  47.0902085  59.2237638  69.7408784
  46.9898812  60.1731995  69.6720875  46.8723627  58.8955877  68.8684854
  46.2915157  56.4722563  46.3249461  47.1534321  56.7977461  46.5845278
  46.4765501  55.6854059  45.8122527  38.3082573  64.5544903  58.6029650
  37.6146044  64.1398856  58.0899604  39.0555564  64.5965439  58.0063069
  46.9533355  62.6534777  68.5573845  46.4700437  63.4535137  68.7637734
  47.0394295  62.6642722  67.6041289  40.2219315  64.4863157  56.4795665
  40.1990003  64.5850844  55.5277548  40.5319952  65.3328307  56.8012831
  42.8806693  66.5439312  60.5942279  43.8349947  66.5123254  60.5272211
  42.6819217  66.0829935  61.4092505  43.4706075  65.1140428  63.1613077
  44.2898964  65.6084506  63.1847914  43.7442883  64.1972396  63.1330644
  41.2356922  72.0858931  57.6112477  41.1011390  71.3259332  57.0450475
  40.8188984  72.8099831  57.1441266  52.3715885  67.2695855  46.6189052
  53.0751735  67.4745857  47.2346708  51.6478534  67.8372617  46.8838136
  44.3926048  72.9828248  57.8230919  44.2758432  73.9273681  57.7209610
  43.5718494  72.6801810  58.2116719  54.2802582  67.7078384  48.6687512
  55.1148186  67.2759582  48.4864987  54.1186925  67.5360398  49.5964407
  53.9348474  64.2110497  50.0343851  53.8797278  64.0454769  49.0932296
  53.3094530  64.9186530  50.1906041  38.7240989  59.4478562  63.8605274
  39.3699853  58.9377516  64.3492499  38.5158140  60.1847243  64.4348699
  47.2444600  53.7118606  49.6129170  47.2323270  54.6560446  49.7697441
  48.1368022  53.5288752  49.3188631  47.1734164  72.3887497  57.6996927
  46.2229795  72.3889358  57.5861299  47.4766650  71.6420231  57.1832961
  51.0596719  50.3061383  53.8675107  50.2929115  49.7519870  54.0131789
  51.4707424  50.3783252  54.7289258  43.0638480  56.5946179  67.9580288
  43.9269942  56.2382984  68.1683612  42.4903891  56.2560073  68.6455692
  62.9086857  78.2248035  58.7642689  63.5465267  78.1054782  58.0606029
  62.7907700  79.1728879  58.8230641  53.1227811  81.5262131  57.5285325
  53.9149103  81.1852956  57.1131624  53.3624461  81.6357106  58.4487478
  61.1562938  83.6981907  50.0015569  60.5050918  84.2835988  49.6149583
  61.9507301  84.2288102  50.0610607  55.0818565  80.7871044  50.4002704
  55.8549441  80.2400031  50.2615580  55.4343964  81.6515294  50.6117165
  57.4184843  76.9463710  48.0321154  57.6710364  76.4245232  47.2704617
  56.4809402  76.7829856  48.1347837  62.4628126  75.9499489  55.8395897
  63.2491215  75.5318912  55.4886314  62.7266830  76.8545581  56.0077545
  62.6338203  81.3872339  50.5384554  61.9984036  81.4606966  51.2505458
  62.3035610  81.9765938  49.8603633  67.8636553  75.8874722  56.7428875
  68.5961725  75.3173939  56.9766705  67.1075909  75.4996323  57.1835381
  57.1381132  78.8491816  50.2345529  57.0217390  78.1736720  50.9026613
  57.2483392  78.3624190  49.4177682  59.4812673  78.3101964  53.9392218
  59.1170880  77.7832585  54.6505139  60.3379789  77.9200433  53.7658703
  59.1218160  73.3391863  48.9353566  59.2892562  74.2072100  49.3024037
  58.9315329  73.5019145  48.0114856  59.1007380  75.7949521  49.9200233
  58.9807006  76.2406572  50.7585714  58.4059969  76.1434838  49.3613771
  56.8614273  88.5653163  53.5690365  56.7838302  89.5160988  53.6478845
  56.2575916  88.2199035  54.2265291  64.7992447  76.2670994  50.7480567
  65.7110303  76.4998381  50.5728265  64.2902094  76.8508038  50.1855646
  63.4062029  81.2496812  58.1394149  62.7770891  81.4142527  57.4370217
  63.0187691  81.6638422  58.9105113  67.2851261  82.1851250  55.4938513
  66.6002299  82.5650152  54.9435546  67.3695110  82.7946577  56.2270460
  62.1428421  72.4429030  58.9970428  61.2812900  72.7410283  59.2887166
  62.1690856  72.6599429  58.0651461  58.9589991  80.9871220  55.4044234
  59.4228336  81.2658923  54.6148856  58.6946789  80.0854665  55.2217325
  57.8958877  77.1094373  52.2133799  58.5982920  77.5615417  52.6807725
  57.5639505  76.4678192  52.8413692  73.7454013  79.0521913  56.6141185
  72.9917722  78.4829311  56.4585189  73.8801555  79.0184578  57.5611820
  59.1352641  83.9235315  52.2895904  58.9998316  84.7686851  52.7180752
  59.6762454  84.1254593  51.5261838  52.5882039  81.4410753  52.8623829
  53.1006559  82.2354004  53.0129394  53.2404752  80.7437044  52.7957431
  54.3976924  84.5576510  54.9446582  54.5743552  85.4794474  54.7567566
  55.1933757  84.2434929  55.3740962  55.5208239  86.0754684  60.9456925
  56.0715664  85.9471747  60.1733919  54.6819715  86.3749573  60.5951818
  50.5530956  79.7699408  53.6383400  51.3906178  80.1796416  53.4217108
  50.7309223  78.8298850  53.6083594  62.4495388  77.4374488  49.3267233
  61.9342011  78.2079093  49.5655620  62.1772696  76.7639625  49.9500294
  67.4229662  80.1906843  51.2620406  66.6459105  79.8518003  50.8175568
  68.1021143  80.1959466  50.5875371  62.2381691  75.3101581  51.1527014
  61.9331827  75.6247730  52.0037157  63.1912133  75.3883000  51.1954347
  60.6828123  81.4691804  52.8019968  60.1549484  80.7344563  52.4893205
  60.1815626  82.2466480  52.5559936  65.6620969  79.6640824  57.9187014
  65.0044643  80.3540086  58.0067143  66.4661368  80.0537256  58.2621001
  64.4726428  78.0185197  55.9690956  64.9858309  78.6515189  56.4712666
  65.1227651  77.4186393  55.6034316  55.7416438  74.1615931  49.1822465
  54.9053750  74.4990618  49.5031739  55.6021207  74.0264911  48.2449602
  58.8280723  79.2872014  45.8054941  57.9207785  79.0561268  46.0046090
  59.3251755  78.4909633  45.9928923  61.7348802  87.9969521  48.7251627
  61.0610501  88.3001218  49.3336585  62.1214624  88.7998602  48.3757084
  60.9507258  75.4934653  58.2149297  60.0329820  75.7149600  58.0570985
  61.3667402  75.5680963  57.3561004  61.7342306  76.8926068  53.3451977
  62.4814125  77.4047465  53.0359099  62.0033896  76.5710121  54.2056370
  60.0068956  79.3884609  50.3278931  59.0980176  79.1043642  50.4251401
  60.0364040  79.8083688  49.4682238  65.2388224  82.9991198  54.0970099
  64.7850551  82.1582108  54.1535289  64.6082191  83.6352597  54.4344879
  64.1821143  73.9283185  55.3270766  63.4443900  73.4160571  55.6581009
  64.4347917  73.4883566  54.5154043  63.6821163  84.8367695  55.0319917
  63.9744137  85.3972752  54.3132282  64.1919784  85.1296256  55.7873076
  50.5757127  77.1090123  54.3094133  50.3781527  76.5159484  53.5845200
  50.0203791  76.8042333  55.0270072  59.7045044  80.9293353  47.6667010
  59.2664474  80.2129212  47.2072647  60.4455485  81.1569467  47.1052101
  58.6454788  85.6148046  56.1213370  58.6030967  85.8408893  55.1921902
  59.5617487  85.3811421  56.2699171  67.8218159  79.2050550  53.7243328
  67.6836058  79.3952146  52.7964517  67.4654378  79.9669933  54.1811379
  56.7620589  82.4911075  55.9175333  57.5561188  81.9961395  55.7157908
  56.0512281  81.9628938  55.5543038  53.0703352  76.6354157  51.9935085
  52.1400941  76.5738613  52.2105048  53.1660824  76.1130110  51.1971727
  59.9340017  88.1649194  50.9398706  60.1091773  87.6937237  51.7544329
  59.2472805  88.7914960  51.1679967  60.8897080  82.4421700  56.9862008
  60.5546913  82.4022470  57.8819657  60.3901026  81.7766416  56.5132418
  63.8256272  79.7877734  47.2599067  63.2085442  79.0624562  47.1632120
  63.3572760  80.5487095  46.9166142  54.5001102  91.3138557  57.7138567
  54.7397701  91.9457081  58.3917585  53.6570299  90.9626597  58.0003926
  55.6154818  74.0063159  46.3820372  54.7384284  73.8851959  46.0182618
  56.0912571  73.2149237  46.1299260  47.1356958  78.7940318  56.4761879
  47.8227998  78.4802048  55.8882894  46.9805087  79.6981683  56.2029130
  58.8018744  86.3589449  53.6282892  58.0186266  86.9011129  53.7221117
  59.5011489  86.8763429  54.0277133  69.9645151  77.8724444  57.9135389
  69.9535028  78.7549159  57.5429322  69.0962531  77.5195995  57.7189926
  63.1945175  80.9255766  53.8455521  62.2601453  81.0457228  53.6760225
  63.3721843  80.0228232  53.5815531  66.5817726  76.7673085  54.3805555
  67.0478178  77.6001077  54.3065858  67.0325226  76.3018067  55.0850813
  64.6493957  83.1116906  51.3791707  64.9253801  82.9973501  52.2885581
  63.7798456  82.7134391  51.3403880  61.2848021  87.3603257  55.0224521
  61.4670416  86.5424913  55.4852273  62.1081007  87.5770949  54.5849411
  61.6190187  86.2871442  52.2839569  62.1477953  85.7763897  51.6709731
  61.8818406  85.9713972  53.1485102  54.9745934  87.3386559  55.0437345
  54.3056310  87.8232687  54.5601385  54.8358804  87.5855779  55.9580724
  46.7124934  76.8740912  58.7479346  46.7509034  76.3404502  59.5416464
  46.2065227  76.3476117  58.1290323  50.3433512  75.6005014  51.8233277
  50.6386953  74.6915692  51.7700331  49.4421547  75.5792753  51.5014280
  52.0721353  73.2819112  51.9472602  51.7434059  72.4016490  51.7647708
  52.4260724  73.2266780  52.8348992  61.3200932  84.9174014  56.4567588
  61.1725894  83.9890722  56.6375158  62.1454426  84.9394105  55.9724663
  55.1863176  73.5692081  52.3148080  55.5259249  74.0978003  51.5926688
  55.6335297  73.9072487  53.0906647  57.1731323  72.0666703  50.5141373
  57.8939686  72.4447956  50.0105090  56.5496628  72.7855580  50.6176351
  64.7130370  86.2588240  52.8994552  64.8867248  85.6934663  52.1468405
  65.2059261  87.0589135  52.7174042  70.5669761  79.0224663  54.5184852
  71.0100907  78.2731989  54.1203975  69.6896272  79.0134800  54.1358584
  65.7005543  85.5755005  49.9991450  66.3956447  86.1961697  50.2178765
  66.0428693  84.7250356  50.2743828  67.5996966  83.0254710  51.5278781
  68.1248290  83.3641983  50.8028101  67.5119318  82.0901726  51.3441916
  59.2837626  89.0926694  55.8874034  58.8442617  88.6003072  56.5806891
  60.0345743  88.5499661  55.6466110  51.7629965  85.2838234  55.8898662
  52.5887985  84.9842006  55.5097306  51.4124017  84.5145857  56.3388451
  56.7311499  84.6364703  57.9596336  56.1091508  83.9735408  57.6598564
  57.4016365  84.6625835  57.2769984  49.9638570  83.2024561  56.8487596
  49.1270479  82.7746735  56.6671597  49.9362216  83.3957004  57.7858387
  56.2925005  83.1868626  51.4354797  56.4413126  83.8704090  50.7821469
  57.0991449  83.1673716  51.9504252  70.1102626  80.4929902  56.9107299
  70.9449517  80.9319706  57.0744860  70.2461755  80.0168555  56.0915545
  54.0477638  79.2133804  52.4415865  53.8023680  78.3096134  52.6396076
  54.2173553  79.2150954  51.4995343  53.3173286  74.9462161  49.9402027
  52.6242531  75.0206516  49.2842063  53.0725038  74.1822505  50.4623544
  59.7920411  85.6816756  48.9066544  59.2194378  86.3006944  48.4537016
  60.3653205  86.2316118  49.4406466  63.0117671  85.9653907  50.0375126
  63.9448344  85.8999468  50.2408002  62.9240884  86.8010173  49.5789659
  65.6405687  85.2819777  46.9979074  65.5619319  84.9479641  47.8914832
  66.4615354  85.7741545  46.9970546  60.1767210  77.0177569  46.2482596
  61.1226314  76.8883777  46.3171014  59.7981454  76.2792231  46.7252025
  66.1489094  68.6833575  56.2109488  65.9513915  68.3748663  57.0952820
  66.7588800  69.4095214  56.3407418  58.3610127  74.9427546  46.1837482
  57.4541582  74.6460658  46.2600195  58.6386108  74.6457364  45.3171768
  49.2788067  76.2633909  56.6336528  48.9590851  75.4099217  56.3410902
  48.7321495  76.4782487  57.3894495  57.1308911  71.8014481  46.3249461
  57.9928075  72.1269379  46.5845278  57.3159255  71.0145977  45.8122527
  49.1476327  79.8836821  58.6029650  48.4539798  79.4690773  58.0899604
  49.8949318  79.9257357  58.0063069  63.7345114  70.0748065  55.6706004
  64.2344893  70.1864600  54.8620323  64.3780722  69.7709118  56.3106813
  51.0613070  79.8155074  56.4795665  51.0383758  79.9142762  55.5277548
  51.3713706  80.6620225  56.8012831  64.0666426  72.8343098  52.5241032
  63.1792281  73.1192748  52.3061227  64.4820415  72.6736861  51.6768309
  52.0750676  87.4150849  57.6112477  51.9405144  86.6551250  57.0450475
  51.6582739  88.1391749  57.1441266  63.2109639  82.5987772  46.6189052
  63.9145489  82.8037775  47.2346708  62.4872288  83.1664534  46.8838136
  64.0407450  78.3497634  52.7391322  63.9842651  78.8066185  51.8998955
  64.5935792  77.5888318  52.5614165  67.8512255  74.1387365  53.5641442
  67.5949190  73.7384001  54.3949649  67.2265123  74.8531159  53.4391581
  72.1624593  76.8783439  56.0712733  71.6024151  76.9476628  56.8444295
  71.5568097  76.7024423  55.3512229  55.2319802  88.3120166  57.8230919
  55.1152186  89.2565598  57.7209610  54.4112248  88.0093727  58.2116719
  65.1196337  83.0370302  48.6687512  65.9541941  82.6051500  48.4864987
  64.9580680  82.8652315  49.5964407  64.7742229  79.5402415  50.0343851
  64.7191033  79.3746686  49.0932296  64.1488284  80.2478448  50.1906041
  56.2574316  88.9648428  61.0386848  57.1601563  88.9972038  61.3553343
  56.0311686  88.0348879  61.0533184  58.0127918  87.7179414  57.6996927
  57.0623549  87.7181276  57.5861299  58.3160404  86.9712149  57.1832961
  70.5570318  93.5067381  58.7004214  70.2188830  93.3908445  57.8124748
  71.4260086  93.1058546  58.6805220  66.4157134  95.3602857  54.6901105
  65.8521999  95.2692794  53.9217392  66.3009529  94.5402762  55.1703597
  63.9621566  96.8554049  57.5285325  64.7542858  96.5144873  57.1131624
  64.2018216  96.9649024  58.4487478  71.9956692  99.0273825  50.0015569
  71.3444672  99.6127905  49.6149583  72.7901055  99.5580020  50.0610607
  65.9212320  96.1162962  50.4002704  66.6943196  95.5691949  50.2615580
  66.2737718  96.9807211  50.6117165  68.2578597  92.2755628  48.0321154
  68.5104118  91.7537149  47.2704617  67.3203157  92.1121774  48.1347837
  73.3021880  91.2791407  55.8395897  74.0884969  90.8610830  55.4886314
  73.5660585  92.1837499  56.0077545  73.4731958  96.7164257  50.5384554
  72.8377791  96.7898883  51.2505458  73.1429364  97.3057856  49.8603633
  78.7030307  91.2166640  56.7428875  79.4355479  90.6465857  56.9766705
  77.9469663  90.8288240  57.1835381  67.9774886  94.1783734  50.2345529
  67.8611144  93.5028638  50.9026613  68.0877146  93.6916108  49.4177682
  70.3206427  93.6393881  53.9392218  69.9564634  93.1124502  54.6505139
  71.1773543  93.2492350  53.7658703  76.2255728  84.9288214  61.2023484
  75.8939053  85.7983625  60.9784699  75.6301341  84.6124498  61.8817514
  69.9611914  88.6683781  48.9353566  70.1286316  89.5364017  49.3024037
  69.7709083  88.8311063  48.0114856  66.1699729  93.5814557  56.6356101
  65.2450225  93.4490771  56.8433793  66.4184142  94.3608776  57.1326044
  76.1184391  89.6483300  58.2816834  75.2101268  89.5798708  57.9875595
  76.0671987  90.1255245  59.1098660  69.9401135  91.1241438  49.9200233
  69.8200760  91.5698489  50.7585714  69.2453723  91.4726756  49.3613771
  67.7008027 103.8945080  53.5690365  67.6232057 104.8452905  53.6478845
  67.0969671 103.5490953  54.2265291  77.9846037  87.8499738  60.0594708
  77.3420418  88.1432272  59.4134503  77.4800966  87.7352659  60.8647905
  75.6386201  91.5962912  50.7480567  76.5504057  91.8290298  50.5728265
  75.1295848  92.1799956  50.1855646  78.1245015  97.5143168  55.4938513
  77.4396053  97.8942069  54.9435546  78.2088865  98.1238495  56.2270460
  72.9822176  87.7720948  58.9970428  72.1206655  88.0702201  59.2887166
  73.0084611  87.9891346  58.0651461  66.6907826  95.8634620  58.3423997
  67.2609183  96.2921888  57.7041482  67.2815938  95.5817204  59.0408183
  68.7352631  92.4386291  52.2133799  69.4376675  92.8907334  52.6807725
  68.4033260  91.7970109  52.8413692  64.4292711  91.0614422  54.4734409
  63.6323874  91.1733117  54.9917905  64.2018303  91.4001075  53.6075300
  60.7615668  90.9500334  59.9465923  61.0123707  91.8347344  60.2123499
  61.2975217  90.7704935  59.1741015  84.5847768  94.3813831  56.6141185
  83.8311476  93.8121229  56.4585189  84.7195309  94.3476495  57.5611820
  69.9746396  99.2527233  52.2895904  69.8392071 100.0978769  52.7180752
  70.5156208  99.4546511  51.5261838  63.4275793  96.7702671  52.8623829
  63.9400314  97.5645921  53.0129394  64.0798506  96.0728962  52.7957431
  65.2370678  99.8868427  54.9446582  65.4137306 100.8086392  54.7567566
  66.0327512  99.5726847  55.3740962  61.3924710  95.0991325  53.6383400
  62.2299932  95.5088334  53.4217108  61.5702978  94.1590768  53.6083594
  73.2889142  92.7666406  49.3267233  72.7735766  93.5371011  49.5655620
  73.0166451  92.0931542  49.9500294  70.8736253  87.6116107  54.3852471
  70.0177850  87.2222957  54.2058110  71.2863205  87.6908068  53.5252257
  72.4035400  85.1462450  58.7844031  71.9000196  85.1092585  57.9711836
  72.6966007  86.0555193  58.8440688  78.2623416  95.5198761  51.2620406
  77.4852859  95.1809920  50.8175568  78.9414897  95.5251384  50.5875371
  73.0775445  90.6393498  51.1527014  72.7725581  90.9539647  52.0037157
  74.0305888  90.7174918  51.1954347  71.5221877  96.7983722  52.8019968
  70.9943239  96.0636481  52.4893205  71.0209380  97.5758398  52.5559936
  76.5014723  94.9932742  57.9187014  75.8438398  95.6832003  58.0067143
  77.3055123  95.3829174  58.2621001  75.3120182  93.3477115  55.9690956
  75.8252064  93.9807107  56.4712666  75.9621406  92.7478310  55.6034316
  66.5810192  89.4907849  49.1822465  65.7447504  89.8282535  49.5031739
  66.4414962  89.3556829  48.2449602  68.5563273  84.3344637  53.8901649
  67.9027685  84.0193654  53.2658264  68.5143747  83.7120377  54.6161472
  69.6674477  94.6163932  45.8054941  68.7601539  94.3853185  46.0046090
  70.1645509  93.8201551  45.9928923  72.5742556 103.3261439  48.7251627
  71.9004255 103.6293136  49.3336585  72.9608378 104.1290519  48.3757084
  71.7901013  90.8226570  58.2149297  70.8723574  91.0441517  58.0570985
  72.2061157  90.8972881  57.3561004  72.5736061  92.2217986  53.3451977
  73.3207880  92.7339383  53.0359099  72.8427650  91.9002039  54.2056370
  70.8462711  94.7176527  50.3278931  69.9373930  94.4335559  50.4251401
  70.8757795  95.1375605  49.4682238  76.0781978  98.3283116  54.0970099
  75.6244305  97.4874026  54.1535289  75.4475945  98.9644515  54.4344879
  75.0214898  89.2575102  55.3270766  74.2837655  88.7452488  55.6581009
  75.2741671  88.8175484  54.5154043  74.5214918 100.1659613  55.0319917
  74.8137892 100.7264670  54.3132282  75.0313538 100.4588174  55.7873076
  75.1226525  82.0351354  55.9212535  75.4285402  81.1748718  55.6338450
  75.8479130  82.6268974  55.7211529  61.4150881  92.4382041  54.3094133
  61.2175281  91.8451402  53.5845200  60.8597545  92.1334251  55.0270072
  69.3947605  92.3305147  56.4288726  69.4496215  91.3778984  56.3531203
  68.5838807  92.4864586  56.9130025  70.5438799  96.2585270  47.6667010
  70.1058229  95.5421129  47.2072647  71.2849240  96.4861385  47.1052101
  67.3339965  90.9482207  54.1879105  66.5207830  91.2476378  54.5944297
  67.8298959  90.5537896  54.9053588  69.4848543 100.9439964  56.1213370
  69.4424722 101.1700810  55.1921902  70.4011242 100.7103339  56.2699171
  78.6611913  94.5342467  53.7243328  78.5229812  94.7244063  52.7964517
  78.3048132  95.2961850  54.1811379  67.6014344  97.8202993  55.9175333
  68.3954942  97.3253313  55.7157908  66.8906036  97.2920856  55.5543038
  63.9097107  91.9646075  51.9935085  62.9794695  91.9030530  52.2105048
  64.0054579  91.4422027  51.1971727  63.8282656  88.4900888  54.5813327
  64.0889473  89.4046221  54.4722488  64.6499828  88.0225330  54.7309940
  70.7733771 103.4941111  50.9398706  70.9485527 103.0229155  51.7544329
  70.0866560 104.1206878  51.1679967  74.6650026  95.1169652  47.2599067
  74.0479197  94.3916480  47.1632120  74.1966515  95.8779012  46.9166142
  65.3394857 106.6430474  57.7138567  65.5791455 107.2748998  58.3917585
  64.4964053 106.2918514  58.0003926  66.4548572  89.3355076  46.3820372
  65.5778039  89.2143877  46.0182618  66.9306325  88.5441155  46.1299260
  57.9750712  94.1232236  56.4761879  58.6621752  93.8093966  55.8882894
  57.8198841  95.0273601  56.2029130  69.6412498 101.6881367  53.6282892
  68.8580020 102.2303047  53.7221117  70.3405243 102.2055346  54.0277133
  72.9509148  87.4975996  56.2717097  73.4477848  86.7445958  55.9518168
  72.1796130  87.5340313  55.7060307  80.8038906  93.2016362  57.9135389
  80.7928782  94.0841077  57.5429322  79.9356285  92.8487912  57.7189926
  72.3121402 102.3496431  62.2738229  73.0249374 102.9843895  62.2014131
  71.8211431 102.4460297  61.4578231  74.0338929  96.2547683  53.8455521
  73.0995208  96.3749146  53.6760225  74.2115598  95.3520150  53.5815531
  69.5344117  89.6393379  55.9988782  69.1641905  89.0864419  56.6869688
  70.0303210  89.0351513  55.4463782  77.4211480  92.0965003  54.3805555
  77.8871933  92.9292994  54.3065858  77.8718981  91.6309984  55.0850813
  75.4887712  98.4408824  51.3791707  75.7647555  98.3265418  52.2885581
  74.6192210  98.0426309  51.3403880  75.3928143  84.4645590  58.4196456
  74.4791223  84.6949816  58.5878663  75.8221245  84.5484034  59.2710489
  72.1241776 102.6895175  55.0224521  72.3064170 101.8716831  55.4852273
  72.9474762 102.9062867  54.5849411  72.4583941 101.6163360  52.2839569
  72.9871707 101.1055814  51.6709731  72.7212161 101.3005890  53.1485102
  65.8139689 102.6678477  55.0437345  65.1450064 103.1524604  54.5601385
  65.6752559 102.9147697  55.9580724  57.5518688  92.2032829  58.7479346
  57.5902788  91.6696420  59.5416464  57.0458981  91.6768035  58.1290323
  69.9544958 104.7022220  61.6420003  70.5063266 104.8653842  62.4069089
  70.2951151 105.2926658  60.9700028  61.1827266  90.9296932  51.8233277
  61.4780707  90.0207610  51.7700331  60.2815302  90.9084671  51.5014280
  73.0913345 102.6504196  58.6283686  72.9664484 101.8493935  58.1194631
  73.7492436 103.1450389  58.1397656  62.9115108  88.6111029  51.9472602
  62.5827814  87.7308408  51.7647708  63.2654478  88.5558698  52.8348992
  66.0256931  88.8983999  52.3148080  66.3653003  89.4269920  51.5926688
  66.4729051  89.2364405  53.0906647  75.7628808 101.0694491  57.5432461
  76.6875356 100.8637352  57.4056912  75.5944112 100.8210892  58.4521802
  68.0125078  87.3958621  50.5141373  68.7333440  87.7739873  50.0105090
  67.3890382  88.1147497  50.6176351  72.1556201  88.1003770  51.4499705
  72.3719815  88.9828407  51.1488533  71.6750268  87.7089983  50.7205347
  70.6077936  88.4829371  60.1204467  70.3495714  89.4046442  60.1188797
  70.0762976  88.0859806  60.8104931  75.5524125 101.5880158  52.8994552
  75.7261002 101.0226581  52.1468405  76.0453016 102.3881053  52.7174042
  61.3701084  93.5994827  60.9658111  60.8254552  94.3754635  61.0978385
  62.2480434  93.9465632  60.8077232  68.1588701  86.9306411  53.3438909
  68.2804612  86.0023057  53.5429797  67.8690743  86.9445097  52.4317225
  71.0279891  84.6161321  56.4805629  71.0501588  84.6800655  55.5257609
  71.4447950  83.7765830  56.6746135  81.4063516  94.3516581  54.5184852
  81.8494662  93.6023906  54.1203975  80.5290026  94.3426717  54.1358584
  76.5399297 100.9046922  49.9991450  77.2350202 101.5253615  50.2178765
  76.8822447 100.0542274  50.2743828  78.4390720  98.3546628  51.5278781
  78.9642044  98.6933901  50.8028101  78.3513073  97.4193643  51.3441916
  70.1231381 104.4218611  55.8874034  69.6836371 103.9294990  56.5806891
  70.8739498 103.8791579  55.6466110  62.6023720 100.6130152  55.8898662
  63.4281740 100.3133924  55.5097306  62.2517772  99.8437775  56.3388451
  60.8032325  98.5316479  56.8487596  59.9664233  98.1038653  56.6671597
  60.7755970  98.7248922  57.7858387  67.1318760  98.5160544  51.4354797
  67.2806880  99.1996008  50.7821469  67.9385203  98.4965634  51.9504252
  80.9496380  95.8221819  56.9107299  81.7843272  96.2611623  57.0744860
  81.0855509  95.3460473  56.0915545  64.8871393  94.5425721  52.4415865
  64.6417435  93.6388051  52.6396076  65.0567308  94.5442872  51.4995343
  64.1567040  90.2754079  49.9402027  63.4636285  90.3498434  49.2842063
  63.9118792  89.5114423  50.4623544  72.8280697  81.8349680  57.3441518
  73.1082451  81.1672869  57.9701944  73.6131304  82.0278776  56.8316181
  70.6314166 101.0108674  48.9066544  70.0588133 101.6298861  48.4537016
  71.2046959 101.5608036  49.4406466  74.7203935  87.3422897  61.2772494
  74.1253867  87.6227910  60.5818982  74.4353632  87.8316798  62.0489235
  73.8511425 101.2945824  50.0375126  74.7842098 101.2291386  50.2408002
  73.7634638 102.1302091  49.5789659  76.4799442 100.6111695  46.9979074
  76.4013073 100.2771558  47.8914832  77.3009109 101.1033463  46.9970546
  71.0160964  92.3469487  46.2482596  71.9620069  92.2175695  46.3171014
  70.6375209  91.6084149  46.7252025  79.3272122  90.2684477  60.2513676
  78.8111170  89.4842934  60.0643604  80.2112070  89.9403194  60.4160195
  76.9882849  84.0125493  56.2109488  76.7907670  83.7040581  57.0952820
  77.5982554  84.7387132  56.3407418  84.9954183  94.5389441  59.3461429
  85.7257571  94.2774729  59.9069133  84.3861128  93.8018163  59.3863497
  83.0769480  92.6797303  59.9435880  82.3502644  92.5453268  59.3352372
  82.6616767  92.9874132  60.7492598  69.2003881  90.2719463  46.1837482
  68.2935337  89.9752576  46.2600195  69.4779862  89.9749281  45.3171768
  60.1181822  91.5925827  56.6336528  59.7984606  90.7391135  56.3410902
  59.5715250  91.8074405  57.3894495  63.8961729  94.3088268  60.3506035
  64.1147739  95.2405376  60.3694068  64.3087503  93.9496242  61.1360838
  70.8165947  84.8156353  52.3381723  70.0066675  84.4703438  52.7136969
  71.5050364  84.5063897  52.9269335  72.7456495  83.8934400  53.9606020
  73.2987534  84.3129853  54.6196043  72.9826582  82.9670148  54.0028976
  67.9702666  87.1306399  46.3249461  68.8321830  87.4561297  46.5845278
  68.1553010  86.3437894  45.8122527  59.9870082  95.2128738  58.6029650
  59.2933553  94.7982691  58.0899604  60.7343073  95.2549275  58.0063069
  76.1235302  86.0034925  53.4684684  75.5433971  86.6619729  53.0862736
  75.8571235  85.1812270  53.0572101  74.5738869  85.4039983  55.6706004
  75.0738647  85.5156517  54.8620323  75.2174477  85.1001036  56.3106813
  61.9006824  95.1446992  56.4795665  61.8777512  95.2434679  55.5277548
  62.2107461  95.9912143  56.8012831  74.9060180  88.1635015  52.5241032
  74.0186035  88.4484666  52.3061227  75.3214169  88.0028779  51.6768309
  78.2574716  88.1881536  56.2395371  79.0335107  88.6777989  56.5119988
  77.5322851  88.6139591  56.6967241  80.6947275  88.9009156  57.2969312
  81.2891766  88.6604892  56.5862620  80.7673859  88.1816286  57.9242848
  62.9144431 102.7442767  57.6112477  62.7798899 101.9843167  57.0450475
  62.4976493 103.4683666  57.1441266  74.0503394  97.9279690  46.6189052
  74.7539244  98.1329693  47.2346708  73.3266043  98.4956452  46.8838136
  74.8801204  93.6789551  52.7391322  74.8236405  94.1358103  51.8998955
  75.4329546  92.9180236  52.5614165  78.6906010  89.4679283  53.5641442
  78.4342944  89.0675919  54.3949649  78.0658878  90.1823077  53.4391581
  83.0018348  92.2075356  56.0712733  82.4417906  92.2768546  56.8444295
  82.3961851  92.0316341  55.3512229  66.0713557 103.6412084  57.8230919
  65.9545941 104.5857516  57.7209610  65.2506003 103.3385645  58.2116719
  75.9590091  98.3662219  48.6687512  76.7935695  97.9343418  48.4864987
  75.7974434  98.1944233  49.5964407  75.6135983  94.8694333  50.0343851
  75.5584787  94.7038604  49.0932296  74.9882039  95.5770365  50.1906041
  68.9232109  84.3702442  49.6129170  68.9110779  85.3144281  49.7697441
  69.8155531  84.1872587  49.3188631  67.0968071 104.2940345  61.0386848
  67.9995317 104.3263956  61.3553343  66.8705441 103.3640796  61.0533184
  68.8521673 103.0471332  57.6996927  67.9017304 103.0473194  57.5861299
  69.1554159 102.3004067  57.1832961  72.7384228  80.9645218  53.8675107
  71.9716624  80.4103705  54.0131789  73.1494933  81.0367087  54.7289258
  84.5874366 108.8831870  58.7642689  85.2252776 108.7638618  58.0606029
  84.4695209 109.8312714  58.8230641  81.3964073 108.8359298  58.7004214
  81.0582584 108.7200363  57.8124748  82.2653841 108.4350464  58.6805220
  77.2550888 110.6894775  54.6901105  76.6915753 110.5984712  53.9217392
  77.1403283 109.8694679  55.1703597  81.8783856 109.9894150  64.6590419
  81.8672496 109.5946948  63.7870923  82.0404495 109.2560223  65.2524191
  74.8015320 112.1845966  57.5285325  75.5936612 111.8436791  57.1131624
  75.0411970 112.2940942  58.4487478  82.8350447 114.3565743  50.0015569
  82.1838427 114.9419823  49.6149583  83.6294810 114.8871937  50.0610607
  76.7606074 111.4454880  50.4002704  77.5336950 110.8983867  50.2615580
  77.1131473 112.3099129  50.6117165  78.5991117 112.7731262  63.6069603
  78.3080983 113.6776893  63.4916269  79.2348101 112.8147790  64.3213673
  79.5247324 110.1508111  60.1970963  80.1210896 109.9264133  59.4827926
  79.5822295 109.4092856  60.7996411  79.0972352 107.6047546  48.0321154
  79.3497873 107.0829067  47.2704617  78.1596911 107.4413691  48.1347837
  84.1415635 106.6083324  55.8395897  84.9278724 106.1902747  55.4886314
  84.4054339 107.5129416  56.0077545  84.3125712 112.0456175  50.5384554
  83.6771545 112.1190801  51.2505458  83.9823119 112.6349773  49.8603633
  89.5424062 106.5458557  56.7428875  90.2749234 105.9757774  56.9766705
  88.7863418 106.1580158  57.1835381  78.8168641 109.5075652  50.2345529
  78.7004899 108.8320555  50.9026613  78.9270901 109.0208026  49.4177682
  81.1600182 108.9685799  53.9392218  80.7958389 108.4416420  54.6505139
  82.0167298 108.5784268  53.7658703  87.0649482 100.2580132  61.2023484
  86.7332807 101.1275542  60.9784699  86.4695096  99.9416416  61.8817514
  80.8005669 103.9975699  48.9353566  80.9680071 104.8655935  49.3024037
  80.6102838 104.1602980  48.0114856  83.5581002 112.4592678  60.6019397
  83.2581725 113.3617716  60.4935204  83.2132061 112.1924861  61.4540550
  77.0093483 108.9106474  56.6356101  76.0843980 108.7782688  56.8433793
  77.2577896 109.6900694  57.1326044  86.9578146 104.9775218  58.2816834
  86.0495023 104.9090626  57.9875595  86.9065741 105.4547163  59.1098660
  80.7794889 106.4533356  49.9200233  80.6594515 106.8990407  50.7585714
  80.0847478 106.8018674  49.3613771  74.3702294 108.5539748  57.4699890
  74.4994675 108.8074227  58.3839302  73.6899746 109.1467456  57.1504545
  78.5401782 119.2236998  53.5690365  78.4625811 120.1744823  53.6478845
  77.9363425 118.8782870  54.2265291  81.0319011 106.3964863  66.2251731
  80.2552345 106.9558783  66.2154596  81.6709574 106.8821646  66.7466602
  88.8239792 103.1791656  60.0594708  88.1814172 103.4724189  59.4134503
  88.3194720 103.0644576  60.8647905  86.4779956 106.9254829  50.7480567
  87.3897812 107.1582216  50.5728265  85.9689603 107.5091873  50.1855646
  79.2865384 109.2050317  65.7869698  80.0280068 109.7435361  65.5104522
  78.5802369 109.8316605  65.9441250  84.7620723 111.3479457  64.3841860
  85.1704079 110.9061868  63.6396492  84.0397985 110.7732085  64.6376053
  85.0849538 111.9080648  58.1394149  84.4558400 112.0726362  57.4370217
  84.6975200 112.3222257  58.9105113  88.9638770 112.8435086  55.4938513
  88.2789808 113.2233987  54.9435546  89.0482619 113.4530412  56.2270460
  84.2651239 103.9456432  63.4156590  84.0212171 104.6998493  62.8790866
  84.5411169 104.3241780  64.2503838  86.2189701 110.4895045  62.0933856
  86.4306597 111.1326805  61.4168237  86.1719450 109.6557361  61.6255786
  83.8215930 103.1012865  58.9970428  82.9600409 103.3994119  59.2887166
  83.8478365 103.3183264  58.0651461  80.6377500 111.6455056  55.4044234
  81.1015845 111.9242759  54.6148856  80.3734298 110.7438500  55.2217325
  77.5301581 111.1926537  58.3423997  78.1002938 111.6213806  57.7041482
  78.1209693 110.9109122  59.0408183  79.5746386 107.7678208  52.2133799
  80.2770429 108.2199252  52.6807725  79.2427014 107.1262027  52.8413692
  78.0226747 106.3589965  66.5885008  77.3925408 107.0406246  66.8220405
  77.9162835 106.2473046  65.6438147  73.3171720 106.0261761  57.5150933
  72.5270774 106.2819289  57.0391043  73.8082967 106.8410099  57.6202973
  87.3335529 113.3667000  60.2656213  88.1552973 112.9647187  59.9838895
  87.3297932 113.2635234  61.2172329  75.2686465 106.3906340  54.4734409
  74.4717628 106.5025034  54.9917905  75.0412057 106.7292992  53.6075300
  81.0992133 112.9151043  62.4216924  81.1636565 113.3771451  63.2575096
  80.3903057 112.2848408  62.5499234  71.6009423 106.2792251  59.9465923
  71.8517461 107.1639261  60.2123499  72.1368971 106.0996853  59.1741015
  95.4241522 109.7105749  56.6141185  94.6705231 109.1413147  56.4585189
  95.5589064 109.6768413  57.5611820  80.8140150 114.5819151  52.2895904
  80.6785825 115.4270687  52.7180752  81.3549963 114.7838428  51.5261838
  74.2669548 112.0994589  52.8623829  74.7794068 112.8937839  53.0129394
  74.9192261 111.4020879  52.7957431  76.0764433 115.2160345  54.9446582
  76.2531061 116.1378310  54.7567566  76.8721266 114.9018764  55.3740962
  75.3616789 107.2624977  64.8208746  75.2470304 106.3610234  65.1215845
  74.5061307 107.5088674  64.4693562  82.4408627 115.2042717  66.4196246
  81.9972481 114.4179096  66.1017151  83.1025840 115.3921868  65.7540137
  77.1995748 116.7338519  60.9456925  77.7503173 116.6055582  60.1733919
  76.3607224 117.0333408  60.5951818  84.5389865 115.4845517  64.4477648
  84.5208340 116.3054398  63.9557917  85.4609785 115.3599592  64.6727789
  80.9962919 112.9989647  65.2901156  81.5291256 112.2377935  65.0600464
  80.4677000 112.7063299  66.0325310  84.1632614  98.1049713  60.8194798
  83.8196883  98.9951354  60.7433908  84.5311577  97.9151370  59.9564383
  72.2318465 110.4283243  53.6383400  73.0693687 110.8380252  53.4217108
  72.4096732 109.4882685  53.6083594  84.1282897 108.0958324  49.3267233
  83.6129520 108.8662928  49.5655620  83.8560205 107.4223460  49.9500294
  81.7130008 102.9408025  54.3852471  80.8571604 102.5514875  54.2058110
  82.1256960 103.0199985  53.5252257  83.2429154 100.4754368  58.7844031
  82.7393950 100.4384503  57.9711836  83.5359761 101.3847111  58.8440688
  79.4872040 100.5593098  57.7910213  80.3525037 100.3635906  57.4316102
  79.5549549 100.3303449  58.7179569  89.1017171 110.8490678  51.2620406
  88.3246614 110.5101838  50.8175568  89.7808652 110.8543302  50.5875371
  83.9169200 105.9685416  51.1527014  83.6119335 106.2831565  52.0037157
  84.8699642 106.0466836  51.1954347  82.3615632 112.1275639  52.8019968
  81.8336993 111.3928399  52.4893205  81.8603134 112.9050316  52.5559936
  87.3408478 110.3224660  57.9187014  86.6832152 111.0123921  58.0067143
  88.1448877 110.7121092  58.2621001  77.0934359 102.7895306  55.1626579
  77.6678111 102.5670487  54.4299772  77.6805342 102.8584000  55.9155181
  86.1513937 108.6769032  55.9690956  86.6645818 109.3099024  56.4712666
  86.8015160 108.0770228  55.6034316  77.4203946 104.8199767  49.1822465
  76.5841259 105.1574453  49.5031739  77.2808716 104.6848746  48.2449602
  79.3957027  99.6636554  53.8901649  78.7421439  99.3485572  53.2658264
  79.3537501  99.0412295  54.6161472  80.5068232 109.9455849  45.8054941
  79.5995294 109.7145103  46.0046090  81.0039264 109.1493469  45.9928923
  83.4136311 118.6553357  48.7251627  82.7398010 118.9585053  49.3336585
  83.8002133 119.4582437  48.3757084  82.6294767 106.1518488  58.2149297
  81.7117329 106.3733435  58.0570985  83.0454911 106.2264798  57.3561004
  83.4129815 107.5509904  53.3451977  84.1601634 108.0631301  53.0359099
  83.6821405 107.2293956  54.2056370  81.6856465 110.0468444  50.3278931
  80.7767685 109.7627477  50.4251401  81.7151549 110.4667523  49.4682238
  86.9175733 113.6575034  54.0970099  86.4638060 112.8165944  54.1535289
  86.2869700 114.2936432  54.4344879  85.8608652 104.5867020  55.3270766
  85.1231409 104.0744406  55.6581009  86.1135426 104.1467401  54.5154043
  85.3608672 115.4951531  55.0319917  85.6531646 116.0556588  54.3132282
  85.8707293 115.7880092  55.7873076  85.9620280  97.3643272  55.9212535
  86.2679156  96.5040635  55.6338450  86.6872885  97.9560892  55.7211529
  72.2544636 107.7673958  54.3094133  72.0569036 107.1743319  53.5845200
  71.6991300 107.4626169  55.0270072  80.2341359 107.6597065  56.4288726
  80.2889969 106.7070901  56.3531203  79.4232561 107.8156504  56.9130025
  81.3832553 111.5877188  47.6667010  80.9451983 110.8713047  47.2072647
  82.1242994 111.8153303  47.1052101  78.1733719 106.2774125  54.1879105
  77.3601585 106.5768295  54.5944297  78.6692714 105.8829813  54.9053588
  80.3242297 116.2731882  56.1213370  80.2818476 116.4992728  55.1921902
  81.2404996 116.0395256  56.2699171  83.7707931 106.7415949  63.0193999
  84.1257319 106.9687422  63.8788465  84.4180062 107.0734326  62.3971255
  89.5005668 109.8634385  53.7243328  89.3623567 110.0535981  52.7964517
  89.1441887 110.6253768  54.1811379  89.5275048 111.9310912  58.7354600
  89.9611554 111.8386201  59.5837654  90.2406628 111.9068413  58.0974616
  78.4408098 113.1494911  55.9175333  79.2348697 112.6545231  55.7157908
  77.7299790 112.6212774  55.5543038  83.2602942 115.5313006  60.2687700
  83.3139965 116.1003942  61.0365416  82.3917724 115.7014891  59.9041737
  74.7490861 107.2937992  51.9935085  73.8188450 107.2322448  52.2105048
  74.8448333 106.7713945  51.1971727  74.6676411 103.8192805  54.5813327
  74.9283228 104.7338138  54.4722488  75.4893583 103.3517248  54.7309940
  90.3890597 111.9734613  61.2687485  90.5826487 112.8780423  61.5146760
  90.2891215 111.5142032  62.1026070  85.4505706 112.1241355  66.8428366
  85.2991212 111.8951907  65.9258449  85.4410385 113.0811957  66.8559711
  82.2191042 109.6973268  61.8274632  83.1483102 109.8484428  61.6543600
  81.7982072 109.7857289  60.9723279  81.0179374 113.7223933  59.5973170
  80.8790460 113.3542717  60.4699108  80.2293970 114.2371572  59.4257128
  81.6127526 118.8233029  50.9398706  81.7879282 118.3521072  51.7544329
  80.9260314 119.4498795  51.1679967  82.5684589 113.1005535  56.9862008
  82.2334422 113.0606305  57.8819657  82.0688535 112.4350251  56.5132418
  85.5043781 110.4461570  47.2599067  84.8872951 109.7208398  47.1632120
  85.0360269 111.2070930  46.9166142  87.1597912 115.1560478  64.9204848
  87.1010459 114.4719698  64.2535431  87.5617431 115.8979468  64.4685474
  76.1788611 121.9722392  57.7138567  76.4185209 122.6040916  58.3917585
  75.3357808 121.6210432  58.0003926  77.2942327 104.6646994  46.3820372
  76.4171793 104.5435795  46.0182618  77.7700080 103.8733072  46.1299260
  87.1615320 113.1200062  63.1518827  86.2742098 112.7825984  63.2745226
  87.7313871 112.3883093  63.3887593  68.8144467 109.4524154  56.4761879
  69.5015507 109.1385884  55.8882894  68.6592596 110.3565518  56.2029130
  73.6179189 104.3414350  60.9046902  73.5337378 103.7340020  60.1697312
  72.7961895 104.8323369  60.9056399  80.6916473 117.7801514  60.1180071
  80.6186645 118.5856486  60.6299375  80.2493866 117.9793480  59.2928092
  80.4806253 117.0173284  53.6282892  79.6973775 117.5594965  53.7221117
  81.1798998 117.5347264  54.0277133  83.7902903 102.8267914  56.2717097
  84.2871602 102.0737876  55.9518168  83.0189884 102.8632230  55.7060307
  91.6432660 108.5308279  57.9135389  91.6322537 109.4132995  57.5429322
  90.7750040 108.1779830  57.7189926  83.1515157 117.6788348  62.2738229
  83.8643129 118.3135813  62.2014131  82.6605185 117.7752214  61.4578231
  84.8732684 111.5839601  53.8455521  83.9388962 111.7041063  53.6760225
  85.0509352 110.6812068  53.5815531  80.3737872 104.9685297  55.9988782
  80.0035659 104.4156337  56.6869688  80.8696964 104.3643430  55.4463782
  88.2605235 107.4256920  54.3805555  88.7265687 108.2584912  54.3065858
  88.7112735 106.9601902  55.0850813  78.2027070 115.4282792  63.0943800
  78.9036530 116.0619275  63.2473194  77.7322185 115.7697523  62.3339439
  86.3281466 113.7700742  51.3791707  86.6041310 113.6557336  52.2885581
  85.4585965 113.3718226  51.3403880  86.2321898  99.7937507  58.4196456
  85.3184977 100.0241734  58.5878663  86.6614999  99.8775951  59.2710489
  86.0028356 107.9827399  60.9196350  85.3499806 108.2303307  60.2648803
  86.3808736 107.1691537  60.5858828  82.9635530 118.0187092  55.0224521
  83.1457925 117.2008748  55.4852273  83.7868516 118.2354785  54.5849411
  83.2977696 116.9455278  52.2839569  83.8265462 116.4347732  51.6709731
  83.5605915 116.6297808  53.1485102  82.0515929 108.7247210  67.4062387
  81.3756566 108.6241340  68.0764763  82.8743563 108.5686424  67.8698385
  73.7994788 114.9619147  60.0274903  74.3848225 114.2162835  60.1602807
  73.6019627 115.2723104  60.9111567  76.6533443 117.9970394  55.0437345
  75.9843819 118.4816522  54.5601385  76.5146313 118.2439615  55.9580724
  68.3912443 107.5324747  58.7479346  68.4296542 106.9988338  59.5416464
  67.8852736 107.0059953  58.1290323  80.7938712 120.0314138  61.6420003
  81.3457020 120.1945759  62.4069089  81.1344906 120.6218576  60.9700028
  85.6449586 114.8575395  67.4968658  86.1889490 115.4705354  67.0023613
  85.0636431 115.4154974  68.0135671  72.0221021 106.2588849  51.8233277
  72.3174462 105.3499528  51.7700331  71.1209056 106.2376589  51.5014280
  83.9307099 117.9796113  58.6283686  83.8058239 117.1785853  58.1194631
  84.5886190 118.4742307  58.1397656  75.5515268 104.3344846  57.8060826
  74.8301853 104.9480813  57.6668299  76.3408523 104.8702611  57.7277472
  85.9942008 115.7805133  60.2563236  85.0472343 115.6610485  60.1841562
  86.3424781 114.8927631  60.3389497  73.7508862 103.9402947  51.9472602
  73.4221568 103.0600326  51.7647708  74.1048233 103.8850616  52.8348992
  82.9988441 115.5757850  56.4567588  82.8513403 114.6474557  56.6375158
  83.8241935 115.5977940  55.9724663  76.8650685 104.2275917  52.3148080
  77.2046758 104.7561838  51.5926688  77.3122806 104.5656323  53.0906647
  86.6022563 116.3986408  57.5432461  87.5269110 116.1929270  57.4056912
  86.4337866 116.1502809  58.4521802  78.8518832 102.7250538  50.5141373
  79.5727195 103.1031791  50.0105090  78.2284137 103.4439415  50.6176351
  82.9949955 103.4295687  51.4499705  83.2113570 104.3120325  51.1488533
  82.5144022 103.0381901  50.7205347  77.7349177 106.3881400  58.0270450
  77.5893757 106.7021704  58.9194731  77.2574380 107.0066301  57.4741348
  79.5945560 103.3783948  58.0751339  79.5807128 102.4825042  57.7383637
  80.3117988 103.3854612  58.7089625  81.4471690 103.8121289  60.1204467
  81.1889468 104.7338359  60.1188797  80.9156731 103.4151723  60.8104931
  86.3917879 116.9172076  52.8994552  86.5654757 116.3518498  52.1468405
  86.8846770 117.7172971  52.7174042  72.2094839 108.9286745  60.9658111
  71.6648307 109.7046553  61.0978385  73.0874189 109.2757549  60.8077232
  78.9982456 102.2598329  53.3438909  79.1198367 101.3314975  53.5429797
  78.7084498 102.2737015  52.4317225  81.8673646  99.9453239  56.4805629
  81.8895343 100.0092572  55.5257609  82.2841705  99.1057748  56.6746135
  92.2457270 109.6808499  54.5184852  92.6888416 108.9315824  54.1203975
  91.3683781 109.6718635  54.1358584  87.3793052 116.2338840  49.9991450
  88.0743956 116.8545533  50.2178765  87.7216202 115.3834191  50.2743828
  72.9960861 108.0556641  63.8588268  72.2542597 108.2039276  64.4452898
  72.6753605 108.3164907  62.9955017  89.2784475 113.6838546  51.5278781
  89.8035799 114.0225818  50.8028101  89.1906827 112.7485561  51.3441916
  80.9404523 117.5972619  63.6568658  81.2491650 117.3521766  64.5291357
  81.7380005 117.8019258  63.1687528  80.9625135 119.7510529  55.8874034
  80.5230126 119.2586908  56.5806891  81.7133252 119.2083497  55.6466110
  73.4417474 115.9422070  55.8898662  74.2675494 115.6425842  55.5097306
  73.0911526 115.1729692  56.3388451  78.4099008 115.2948538  57.9596336
  77.7879017 114.6319243  57.6598564  79.0803874 115.3209670  57.2769984
  71.6426079 113.8608396  56.8487596  70.8057988 113.4330571  56.6671597
  71.6149725 114.0540840  57.7858387  88.9678381 114.3171449  66.8329979
  88.1773924 114.2995588  66.2934479  88.7311735 114.8559743  67.5879016
  89.0876256 111.1663916  64.1462708  89.1374261 111.0013923  65.0878230
  88.9790179 110.2991175  63.7560588  77.9712514 113.8452461  51.4354797
  78.1200635 114.5287926  50.7821469  78.7778958 113.8257551  51.9504252
  86.3780018 107.1494844  65.4622014  87.2789881 107.0101309  65.1706012
  86.4527993 107.3149299  66.4020192  90.5894453 113.5860857  64.3904729
  90.2979261 113.9490838  65.2268190  89.9766584 112.8727866  64.2118061
  91.7890135 111.1513737  56.9107299  92.6237026 111.5903541  57.0744860
  91.9249264 110.6752390  56.0915545  88.8381641 108.7093472  62.8584787
  89.3135762 108.9021118  62.0503639  87.9147206 108.7652658  62.6128171
  75.7265147 109.8717639  52.4415865  75.4811189 108.9679969  52.6396076
  75.8961062 109.8734789  51.4995343  83.4161857 100.7441315  61.8240621
  83.9343801 101.4802342  61.4987110  83.0616990 101.0505309  62.6587380
  74.9960795 105.6045997  49.9402027  74.3030040 105.6790352  49.2842063
  74.7512547 104.8406340  50.4623544  83.6674451  97.1641598  57.3441518
  83.9476205  96.4964787  57.9701944  84.4525058  97.3570694  56.8316181
  81.4707920 116.3400592  48.9066544  80.8981887 116.9590779  48.4537016
  82.0440714 116.8899954  49.4406466  87.5383310 105.5859232  61.0913093
  88.4900733 105.6857330  61.1125317  87.3686760 104.7937500  61.6011177
  85.5597689 102.6714815  61.2772494  84.9647621 102.9519828  60.5818982
  85.2747386 103.1608716  62.0489235  84.6905180 116.6237742  50.0375126
  85.6235853 116.5583304  50.2408002  84.6028393 117.4594009  49.5789659
  87.3193196 115.9403612  46.9979074  87.2406828 115.6063476  47.8914832
  88.1402863 116.4325380  46.9970546  90.0171388 108.8065352  60.2055392
  89.9847708 107.8681352  60.3915076  90.6272011 108.8849388  59.4721217
  81.8554718 107.6761405  46.2482596  82.8013823 107.5467613  46.3171014
  81.4768963 106.9376067  46.7252025  90.1665876 105.5976395  60.2513676
  89.6504925 104.8134852  60.0643604  91.0505825 105.2695112  60.4160195
  87.8276603  99.3417411  56.2109488  87.6301424  99.0332499  57.0952820
  88.4376309 100.0679050  56.3407418  95.8347937 109.8681358  59.3461429
  96.5651326 109.6066647  59.9069133  95.2254883 109.1310080  59.3863497
  93.9163235 108.0089221  59.9435880  93.1896398 107.8745186  59.3352372
  93.5010521 108.3166050  60.7492598  81.7393411 111.7279151  67.7083253
  82.6596420 111.9057750  67.9023300  81.7042994 110.7835196  67.5562953
  80.0397636 105.6011381  46.1837482  79.1329091 105.3044494  46.2600195
  80.3173617 105.3041199  45.3171768  70.9575576 106.9217744  56.6336528
  70.6378360 106.0683053  56.3410902  70.4109004 107.1366323  57.3894495
  74.7355484 109.6380185  60.3506035  74.9541493 110.5697293  60.3694068
  75.1481257 109.2788160  61.1360838  81.6559701 100.1448271  52.3381723
  80.8460430  99.7995356  52.7136969  82.3444118  99.8355814  52.9269335
  83.5850250  99.2226318  53.9606020  84.1381288  99.6421771  54.6196043
  83.8220336  98.2962066  54.0028976  78.8096420 102.4598316  46.3249461
  79.6715584 102.7853215  46.5845278  78.9946764 101.6729812  45.8122527
  70.8263836 110.5420656  58.6029650  70.1327307 110.1274609  58.0899604
  71.5736827 110.5841192  58.0063069  86.9629057 101.3326843  53.4684684
  86.3827726 101.9911647  53.0862736  86.6964989 100.5104187  53.0572101
  85.4132623 100.7331900  55.6706004  85.9132401 100.8448435  54.8620323
  86.0568231 100.4292953  56.3106813  79.4714619 108.6410530  68.5573845
  78.9881701 109.4410890  68.7637734  79.5575558 108.6518475  67.6041289
  72.7400579 110.4738910  56.4795665  72.7171267 110.5726597  55.5277548
  73.0501215 111.3204060  56.8012831  75.3987956 112.5315065  60.5942279
  76.3531210 112.4999007  60.5272211  75.2000480 112.0705688  61.4092505
  75.9887339 111.1016181  63.1613077  76.8080228 111.5960259  63.1847914
  76.2624146 110.1848149  63.1330644  85.7453935 103.4926933  52.5241032
  84.8579790 103.7776584  52.3061227  86.1607924 103.3320696  51.6768309
  89.0968471 103.5173454  56.2395371  89.8728861 104.0069906  56.5119988
  88.3716605 103.9431508  56.6967241  91.5341030 104.2301073  57.2969312
  92.1285520 103.9896809  56.5862620  91.6067613 103.5108204  57.9242848
  73.7538185 118.0734684  57.6112477  73.6192653 117.3135085  57.0450475
  73.3370247 118.7975584  57.1441266  84.8897148 113.2571608  46.6189052
  85.5932998 113.4621610  47.2346708  84.1659797 113.8248370  46.8838136
  85.7194959 109.0081469  52.7391322  85.6630160 109.4650020  51.8998955
  86.2723301 108.2472154  52.5614165  89.5299764 104.7971201  53.5641442
  89.2736699 104.3967837  54.3949649  88.9052632 105.5114995  53.4391581
  93.8412102 107.5367274  56.0712733  93.2811660 107.6060463  56.8444295
  93.2355606 107.3608259  55.3512229  76.9107311 118.9704001  57.8230919
  76.7939695 119.9149434  57.7209610  76.0899757 118.6677563  58.2116719
  86.7983846 113.6954137  48.6687512  87.6329450 113.2635335  48.4864987
  86.6368189 113.5236151  49.5964407  86.4529738 110.1986250  50.0343851
  86.3978542 110.0330522  49.0932296  85.8275793 110.9062283  50.1906041
  71.2422253 105.4354315  63.8605274  71.8881116 104.9253269  64.3492499
  71.0339404 106.1722996  64.4348699  83.7675645 112.5035162  69.3597414
  84.6366805 112.6775814  68.9984049  83.2882396 113.3229579  69.2373144
  79.7625863  99.6994359  49.6129170  79.7504533 100.6436199  49.7697441
  80.6549285  99.5164505  49.3188631  77.9361825 119.6232263  61.0386848
  78.8389072 119.6555873  61.3553343  77.7099195 118.6932714  61.0533184
  79.6915427 118.3763250  57.6996927  78.7411058 118.3765111  57.5861299
  79.9947913 117.6295984  57.1832961  83.5777983  96.2937136  53.8675107
  82.8110379  95.7395623  54.0131789  83.9888688  96.3659005  54.7289258
  95.4268121 124.2123788  58.7642689  96.0646531 124.0930535  58.0606029
  95.3088964 125.1604632  58.8230641  92.2357827 124.1651216  58.7004214
  91.8976339 124.0492281  57.8124748  93.1047595 123.7642381  58.6805220
  88.0944643 126.0186693  54.6901105  87.5309508 125.9276629  53.9217392
  87.9797038 125.1986597  55.1703597  92.7177610 125.3186068  64.6590419
  92.7066251 124.9238866  63.7870923  92.8798249 124.5852140  65.2524191
  85.6409075 127.5137884  57.5285325  86.4330367 127.1728709  57.1131624
  85.8805725 127.6232859  58.4487478  93.6744201 129.6857660  50.0015569
  93.0232181 130.2711741  49.6149583  94.4688564 130.2163855  50.0610607
  87.5999829 126.7746797  50.4002704  88.3730705 126.2275784  50.2615580
  87.9525227 127.6391047  50.6117165  89.4384871 128.1023180  63.6069603
  89.1474737 129.0068811  63.4916269  90.0741856 128.1439707  64.3213673
  90.3641078 125.4800028  60.1970963  90.9604650 125.2556051  59.4827926
  90.4216050 124.7384774  60.7996411  89.9366106 122.9339464  48.0321154
  90.1891627 122.4120985  47.2704617  88.9990665 122.7705609  48.1347837
  94.9809389 121.9375242  55.8395897  95.7672478 121.5194665  55.4886314
  95.2448094 122.8421334  56.0077545  95.1519467 127.3748092  50.5384554
  94.5165300 127.4482719  51.2505458  94.8216873 127.9641691  49.8603633
 100.3817816 121.8750475  56.7428875 101.1142988 121.3049692  56.9766705
  99.6257172 121.4872076  57.1835381  89.6562395 124.8367569  50.2345529
  89.5398653 124.1612473  50.9026613  89.7664655 124.3499943  49.4177682
  91.9993936 124.2977717  53.9392218  91.6352143 123.7708338  54.6505139
  92.8561052 123.9076186  53.7658703  97.9043237 115.5872049  61.2023484
  97.5726561 116.4567460  60.9784699  97.3088850 115.2708333  61.8817514
  91.6399423 119.3267616  48.9353566  91.8073825 120.1947853  49.3024037
  91.4496592 119.4894898  48.0114856  94.3974756 127.7884595  60.6019397
  94.0975479 128.6909634  60.4935204  94.0525816 127.5216778  61.4540550
  87.8487238 124.2398392  56.6356101  86.9237734 124.1074606  56.8433793
  88.0971651 125.0192611  57.1326044  97.7971900 120.3067135  58.2816834
  96.8888777 120.2382544  57.9875595  97.7459496 120.7839080  59.1098660
  91.6188644 121.7825274  49.9200233  91.4988269 122.2282325  50.7585714
  90.9241232 122.1310591  49.3613771  85.2096049 123.8831666  57.4699890
  85.3388430 124.1366145  58.3839302  84.5293500 124.4759374  57.1504545
  89.3795536 134.5528916  53.5690365  89.3019566 135.5036741  53.6478845
  88.7757180 134.2074788  54.2265291  91.8712766 121.7256781  66.2251731
  91.0946100 122.2850701  66.2154596  92.5103329 122.2113564  66.7466602
  99.6633546 118.5083574  60.0594708  99.0207927 118.8016107  59.4134503
  99.1588475 118.3936494  60.8647905  97.3173710 122.2546747  50.7480567
  98.2291566 122.4874134  50.5728265  96.8083357 122.8383791  50.1855646
  90.1259138 124.5342234  65.7869698  90.8673822 125.0727278  65.5104522
  89.4196124 125.1608523  65.9441250  95.6014478 126.6771375  64.3841860
  96.0097834 126.2353785  63.6396492  94.8791739 126.1024002  64.6376053
  91.9545548 121.6143982  61.7575417  92.8006743 122.0383395  61.9010066
  91.8944185 120.9577606  62.4513980  95.9243292 127.2372565  58.1394149
  95.2952155 127.4018280  57.4370217  95.5368954 127.6514175  58.9105113
  99.8032524 128.1727003  55.4938513  99.1183562 128.5525905  54.9435546
  99.8876374 128.7822330  56.2270460  95.1044993 119.2748350  63.4156590
  94.8605925 120.0290410  62.8790866  95.3804924 119.6533698  64.2503838
  97.0583456 125.8186962  62.0933856  97.2700351 126.4618722  61.4168237
  97.0113204 124.9849279  61.6255786  94.6609685 118.4304783  58.9970428
  93.7994164 118.7286037  59.2887166  94.6872120 118.6475182  58.0651461
  91.4771254 126.9746974  55.4044234  91.9409600 127.2534676  54.6148856
  91.2128052 126.0730418  55.2217325  88.3695335 126.5218455  58.3423997
  88.9396692 126.9505723  57.7041482  88.9603447 126.2401040  59.0408183
  90.4140140 123.0970126  52.2133799  91.1164184 123.5491170  52.6807725
  90.0820769 122.4553945  52.8413692  88.8620502 121.6881882  66.5885008
  88.2319162 122.3698163  66.8220405  88.7556590 121.5764964  65.6438147
  84.1565474 121.3553679  57.5150933  83.3664528 121.6111207  57.0391043
  84.6476722 122.1702016  57.6202973  98.1729284 128.6958918  60.2656213
  98.9946728 128.2939105  59.9838895  98.1691687 128.5927152  61.2172329
  86.1080220 121.7198258  54.4734409  85.3111383 121.8316952  54.9917905
  85.8805812 122.0584910  53.6075300  91.9385887 128.2442961  62.4216924
  92.0030320 128.7063368  63.2575096  91.2296811 127.6140326  62.5499234
  82.4403177 121.6084169  59.9465923  82.6911216 122.4931179  60.2123499
  82.9762726 121.4288771  59.1741015 106.2635277 125.0397666  56.6141185
 105.5098985 124.4705064  56.4585189 106.3982818 125.0060331  57.5611820
  91.6533905 129.9111068  52.2895904  91.5179580 130.7562604  52.7180752
  92.1943717 130.1130346  51.5261838  88.1401245 115.9902648  68.9510259
  87.7468190 115.4368847  69.6257904  88.9567385 116.3013227  69.3416777
  85.1063302 127.4286507  52.8623829  85.6187823 128.2229757  53.0129394
  85.7586015 126.7312797  52.7957431  86.9158187 130.5452263  54.9446582
  87.0924815 131.4670228  54.7567566  87.7115021 130.2310682  55.3740962
  91.0569206 117.4060527  66.5430516  91.7978919 118.0067681  66.4634978
  91.2887128 116.6638165  65.9848559  86.2010544 122.5916895  64.8208746
  86.0864059 121.6902152  65.1215845  85.3455061 122.8380591  64.4693562
  93.2802381 130.5334635  66.4196246  92.8366236 129.7471014  66.1017151
  93.9419595 130.7213786  65.7540137  88.0389503 132.0630437  60.9456925
  88.5896928 131.9347500  60.1733919  87.2000978 132.3625326  60.5951818
  95.3783619 130.8137435  64.4477648  95.3602095 131.6346316  63.9557917
  96.3003539 130.6891510  64.6727789  91.8356674 128.3281564  65.2901156
  92.3685010 127.5669853  65.0600464  91.3070755 128.0355216  66.0325310
  95.0026369 113.4341630  60.8194798  94.6590638 114.3243272  60.7433908
  95.3705331 113.2443288  59.9564383  83.0712219 125.7575161  53.6383400
  83.9087441 126.1672169  53.4217108  83.2490487 124.8174603  53.6083594
  94.9676651 123.4250241  49.3267233  94.4523275 124.1954846  49.5655620
  94.6953960 122.7515378  49.9500294  92.5523762 118.2699942  54.3852471
  91.6965359 117.8806793  54.2058110  92.9650714 118.3491903  53.5252257
  94.0822909 115.8046286  58.7844031  93.5787704 115.7676421  57.9711836
  94.3753516 116.7139028  58.8440688  90.3265795 115.8885015  57.7910213
  91.1918792 115.6927824  57.4316102  90.3943304 115.6595367  58.7179569
  99.9410925 126.1782596  51.2620406  99.1640368 125.8393756  50.8175568
 100.6202406 126.1835219  50.5875371  94.7562954 121.2977334  51.1527014
  94.4513090 121.6123483  52.0037157  95.7093397 121.3758753  51.1954347
  93.2009386 127.4567557  52.8019968  92.6730748 126.7220316  52.4893205
  92.6996889 128.2342233  52.5559936  98.1802232 125.6516577  57.9187014
  97.5225907 126.3415839  58.0067143  98.9842631 126.0413009  58.2621001
  87.9328114 118.1187223  55.1626579  88.5071866 117.8962405  54.4299772
  88.5199096 118.1875918  55.9155181  96.9907691 124.0060950  55.9690956
  97.5039573 124.6390942  56.4712666  97.6408915 123.4062146  55.6034316
  88.2597701 120.1491684  49.1822465  87.4235013 120.4866371  49.5031739
  88.1202471 120.0140664  48.2449602  90.2350782 114.9928472  53.8901649
  89.5815194 114.6777489  53.2658264  90.1931256 114.3704213  54.6161472
  91.3461986 125.2747767  45.8054941  90.4389048 125.0437021  46.0046090
  91.8433018 124.4785386  45.9928923  94.2530065 133.9845274  48.7251627
  93.5791764 134.2876971  49.3336585  94.6395887 134.7874355  48.3757084
  93.4688522 121.4810406  58.2149297  92.5511083 121.7025353  58.0570985
  93.8848666 121.5556716  57.3561004  94.2523570 122.8801821  53.3451977
  94.9995389 123.3923219  53.0359099  94.5215159 122.5585874  54.2056370
  92.5250220 125.3760362  50.3278931  91.6161439 125.0919395  50.4251401
  92.5545304 125.7959441  49.4682238  97.7569487 128.9866952  54.0970099
  97.3031814 128.1457861  54.1535289  97.1263454 129.6228350  54.4344879
  96.7002407 119.9158938  55.3270766  95.9625164 119.4036324  55.6581009
  96.9529180 119.4759319  54.5154043  96.2002427 130.8243448  55.0319917
  96.4925401 131.3848505  54.3132282  96.7101047 131.1172009  55.7873076
  96.8014034 112.6935190  55.9212535  97.1072911 111.8332553  55.6338450
  97.5266639 113.2852810  55.7211529  83.0938390 123.0965876  54.3094133
  82.8962790 122.5035237  53.5845200  82.5385054 122.7918086  55.0270072
  91.0735114 122.9888983  56.4288726  91.1283724 122.0362819  56.3531203
  90.2626316 123.1448422  56.9130025  92.2226308 126.9169106  47.6667010
  91.7845738 126.2004965  47.2072647  92.9636749 127.1445221  47.1052101
  89.0127474 121.6066042  54.1879105  88.1995339 121.9060213  54.5944297
  89.5086468 121.2121731  54.9053588  91.1636052 131.6023799  56.1213370
  91.1212231 131.8284646  55.1921902  92.0798751 131.3687174  56.2699171
  94.6101686 122.0707867  63.0193999  94.9651073 122.2979340  63.8788465
  95.2573817 122.4026244  62.3971255 100.3399422 125.1926303  53.7243328
 100.2017321 125.3827899  52.7964517  99.9835641 125.9545686  54.1811379
  88.5041549 119.1784398  59.8040340  89.1440928 119.0373157  59.1063304
  87.6719079 118.8918911  59.4278942 100.3668802 127.2602830  58.7354600
 100.8005309 127.1678119  59.5837654 101.0800383 127.2360330  58.0974616
  89.2801853 128.4786828  55.9175333  90.0742451 127.9837148  55.7157908
  88.5693545 127.9504691  55.5543038  94.0996697 130.8604924  60.2687700
  94.1533719 131.4295860  61.0365416  93.2311478 131.0306809  59.9041737
  85.5884616 122.6229910  51.9935085  84.6582204 122.5614366  52.2105048
  85.6842088 122.1005863  51.1971727  85.5070165 119.1484723  54.5813327
  85.7676982 120.0630056  54.4722488  86.3287337 118.6809165  54.7309940
  86.9795090 120.5622480  61.7512152  87.6518144 120.3539842  61.1024801
  86.1524877 120.3644566  61.3117384 101.2284352 127.3026530  61.2687485
 101.4220242 128.2072341  61.5146760 101.1284970 126.8433949  62.1026070
  92.8820662 117.1884421  63.7677812  92.2348577 117.8874371  63.6742289
  93.6521678 117.6220565  64.1354061  96.2899460 127.4533273  66.8428366
  96.1384967 127.2243825  65.9258449  96.2804140 128.4103875  66.8559711
  93.0584797 125.0265186  61.8274632  93.9876857 125.1776345  61.6543600
  92.6375827 125.1149207  60.9723279  91.8573128 129.0515850  59.5973170
  91.7184214 128.6834635  60.4699108  91.0687725 129.5663490  59.4257128
  92.4521280 134.1524947  50.9398706  92.6273036 133.6812990  51.7544329
  91.7654068 134.7790713  51.1679967  93.4078344 128.4297453  56.9862008
  93.0728176 128.3898223  57.8819657  92.9082289 127.7642169  56.5132418
  87.3822588 123.8365083  62.5114589  87.2442386 123.1045322  63.1126128
  88.2927511 123.7473983  62.2298777  96.3437535 125.7753487  47.2599067
  95.7266706 125.0500316  47.1632120  95.8754024 126.5362848  46.9166142
  90.0104888 123.5485042  61.9998268  90.7204507 122.9078235  61.9584887
  89.9674196 123.7997937  62.9224449  97.9991667 130.4852396  64.9204848
  97.9404213 129.8011616  64.2535431  98.4011185 131.2271386  64.4685474
  88.7233822 120.5350260  63.8193908  88.1871179 120.0840999  64.4715504
  88.1350531 120.6696169  63.0764372  87.0182366 137.3014310  57.7138567
  87.2578964 137.9332834  58.3917585  86.1751562 136.9502350  58.0003926
  88.1336081 119.9938912  46.3820372  87.2565548 119.8727712  46.0182618
  88.6093834 119.2024990  46.1299260  98.0009074 128.4491980  63.1518827
  97.1135853 128.1117901  63.2745226  98.5707625 127.7175011  63.3887593
  79.6538221 124.7816071  56.4761879  80.3409261 124.4677801  55.8882894
  79.4986350 125.6857436  56.2029130  84.4572943 119.6706268  60.9046902
  84.3731132 119.0631937  60.1697312  83.6355650 120.1615286  60.9056399
  91.5310228 133.1093432  60.1180071  91.4580399 133.9148403  60.6299375
  91.0887621 133.3085398  59.2928092  91.3200007 132.3465202  53.6282892
  90.5367529 132.8886882  53.7221117  92.0192752 132.8639182  54.0277133
  94.6296657 118.1559831  56.2717097  95.1265357 117.4029794  55.9518168
  93.8583639 118.1924148  55.7060307 102.4826415 123.8600197  57.9135389
 102.4716291 124.7424912  57.5429322 101.6143794 123.5071748  57.7189926
  93.9908911 133.0080266  62.2738229  94.7036883 133.6427731  62.2014131
  93.4998940 133.1044132  61.4578231  95.7126438 126.9131519  53.8455521
  94.7782717 127.0332981  53.6760225  95.8903107 126.0103985  53.5815531
  91.2131626 120.2977214  55.9988782  90.8429414 119.7448255  56.6869688
  91.7090719 119.6935348  55.4463782  99.0998989 122.7548838  54.3805555
  99.5659442 123.5876830  54.3065858  99.5506490 122.2893820  55.0850813
  89.0420825 130.7574709  63.0943800  89.7430284 131.3911192  63.2473194
  88.5715940 131.0989441  62.3339439  97.1675221 129.0992659  51.3791707
  97.4435064 128.9849254  52.2885581  96.2979719 128.7010144  51.3403880
  97.0715652 115.1229425  58.4196456  96.1578732 115.3533652  58.5878663
  97.5008754 115.2067869  59.2710489  96.8422111 123.3119317  60.9196350
  96.1893561 123.5595224  60.2648803  97.2202491 122.4983455  60.5858828
  93.8029285 133.3479010  55.0224521  93.9851679 132.5300666  55.4852273
  94.6262271 133.5646702  54.5849411  94.1371450 132.2747195  52.2839569
  94.6659216 131.7639650  51.6709731  94.3999670 131.9589725  53.1485102
  92.8909684 124.0539128  67.4062387  92.2150321 123.9533257  68.0764763
  93.7137318 123.8978342  67.8698385  84.6388543 130.2911065  60.0274903
  85.2241980 129.5454752  60.1602807  84.4413381 130.6015021  60.9111567
  87.4927198 133.3262312  55.0437345  86.8237573 133.8108440  54.5601385
  87.3540068 133.5731532  55.9580724  79.2306197 122.8616665  58.7479346
  79.2690297 122.3280255  59.5416464  78.7246490 122.3351870  58.1290323
  91.6332467 135.3606055  61.6420003  92.1850775 135.5237677  62.4069089
  91.9738660 135.9510493  60.9700028  86.6096960 117.7081205  62.2441888
  86.6738286 118.5696036  61.8319286  86.5464080 117.0955207  61.5114247
  86.0849232 119.7804338  65.8914922  86.7121271 119.3981415  66.5052447
  85.2277151 119.5618540  66.2570615  96.4843341 130.1867313  67.4968658
  97.0283245 130.7997271  67.0023613  95.9030186 130.7446891  68.0135671
  82.8614775 121.5880767  51.8233277  83.1568216 120.6791445  51.7700331
  81.9602811 121.5668506  51.5014280  94.7700854 133.3088031  58.6283686
  94.6451993 132.5077771  58.1194631  95.4279945 133.8034224  58.1397656
  86.3909022 119.6636763  57.8060826  85.6695608 120.2772731  57.6668299
  87.1802278 120.1994528  57.7277472  96.8335762 131.1097051  60.2563236
  95.8866098 130.9902402  60.1841562  97.1818535 130.2219549  60.3389497
  89.1935336 116.9991190  64.0801478  89.7169737 117.2453486  64.8427787
  88.9747669 117.8311225  63.6604615  84.5902617 119.2694865  51.9472602
  84.2615323 118.3892243  51.7647708  84.9441987 119.2142533  52.8348992
  93.8382196 130.9049767  56.4567588  93.6907158 129.9766475  56.6375158
  94.6635689 130.9269858  55.9724663  87.7044440 119.5567834  52.3148080
  88.0440512 120.0853756  51.5926688  88.1516560 119.8948240  53.0906647
  97.4416317 131.7278326  57.5432461  98.3662865 131.5221187  57.4056912
  97.2731621 131.4794727  58.4521802  90.3987881 117.9404885  61.7651148
  90.0584701 117.1412698  62.1671828  89.6926887 118.2406596  61.1927981
  91.0504352 115.0254197  60.2178471  91.8730422 114.5514676  60.0957361
  91.2942416 115.8044681  60.7177157  89.6912587 118.0542456  50.5141373
  90.4120949 118.4323709  50.0105090  89.0677891 118.7731333  50.6176351
  93.8343710 118.7587605  51.4499705  94.0507324 119.6412243  51.1488533
  93.3537777 118.3673818  50.7205347  88.5742931 121.7173318  58.0270450
  88.4287512 122.0313621  58.9194731  88.0968135 122.3358218  57.4741348
  90.4339314 118.7075866  58.0751339  90.4200883 117.8116959  57.7383637
  91.1511742 118.7146530  58.7089625  92.2865445 119.1413206  60.1204467
  92.0283223 120.0630277  60.1188797  91.7550485 118.7443641  60.8104931
  97.2311634 132.2463993  52.8994552  97.4048511 131.6810416  52.1468405
  97.7240525 133.0464888  52.7174042  83.0488593 124.2578663  60.9658111
  82.5042061 125.0338470  61.0978385  83.9267943 124.6049467  60.8077232
  89.8376210 117.5890246  53.3438909  89.9592121 116.6606893  53.5429797
  89.5478252 117.6028932  52.4317225  92.7067400 115.2745157  56.4805629
  92.7289097 115.3384490  55.5257609  93.1235459 114.4349665  56.6746135
 103.0851025 125.0100416  54.5184852 103.5282171 124.2607742  54.1203975
 102.2077535 125.0010553  54.1358584  98.2186806 131.5630758  49.9991450
  98.9137711 132.1837451  50.2178765  98.5609956 130.7126109  50.2743828
  83.8354615 123.3848559  63.8588268  83.0936351 123.5331194  64.4452898
  83.5147360 123.6456824  62.9955017 100.1178229 129.0130463  51.5278781
 100.6429553 129.3517736  50.8028101 100.0300582 128.0777479  51.3441916
  91.7798278 132.9264537  63.6568658  92.0885404 132.6813684  64.5291357
  92.5773760 133.1311175  63.1687528  91.8018890 135.0802447  55.8874034
  91.3623880 134.5878825  56.5806891  92.5527007 134.5375414  55.6466110
  84.2811229 131.2713988  55.8898662  85.1069249 130.9717759  55.5097306
  83.9305281 130.5021610  56.3388451  89.2492762 130.6240456  57.9596336
  88.6272771 129.9611161  57.6598564  89.9197629 130.6501588  57.2769984
  82.4819834 129.1900314  56.8487596  81.6451742 128.7622488  56.6671597
  82.4543479 129.3832757  57.7858387  89.3217290 119.1022244  67.5528842
  89.3705445 119.9784367  67.1706612  89.8639804 118.5599637  66.9800485
  99.8072135 129.6463367  66.8329979  99.0167679 129.6287506  66.2934479
  99.5705490 130.1851661  67.5879016  99.9270010 126.4955833  64.1462708
  99.9768015 126.3305841  65.0878230  99.8183934 125.6283092  63.7560588
  88.8106269 129.1744379  51.4354797  88.9594389 129.8579843  50.7821469
  89.6172712 129.1549469  51.9504252  97.2173773 122.4786761  65.4622014
  98.1183635 122.3393226  65.1706012  97.2921747 122.6441216  66.4020192
  91.5516578 119.8553616  64.3075201  90.6819887 120.1487182  64.0357789
  91.7876058 120.4394061  65.0282464 101.4288207 128.9152775  64.3904729
 101.1373015 129.2782755  65.2268190 100.8160338 128.2019783  64.2118061
 102.6283889 126.4805655  56.9107299 103.4630781 126.9195459  57.0744860
 102.7643018 126.0044308  56.0915545  99.6775395 124.0385390  62.8584787
 100.1529517 124.2313036  62.0503639  98.7540961 124.0944575  62.6128171
  86.5658902 125.2009557  52.4415865  86.3204944 124.2971887  52.6396076
  86.7354816 125.2026707  51.4995343  94.2555612 116.0733233  61.8240621
  94.7737556 116.8094260  61.4987110  93.9010745 116.3797226  62.6587380
  85.8354549 120.9337914  49.9402027  85.1423794 121.0082269  49.2842063
  85.5906301 120.1698258  50.4623544  94.5068206 112.4933516  57.3441518
  94.7869960 111.8256705  57.9701944  95.2918813 112.6862611  56.8316181
  92.3101674 131.6692510  48.9066544  91.7375642 132.2882697  48.4537016
  92.8834468 132.2191871  49.4406466  98.3777064 120.9151150  61.0913093
  99.3294487 121.0149247  61.1125317  98.2080515 120.1229418  61.6011177
  96.3991444 118.0006733  61.2772494  95.8041376 118.2811746  60.5818982
  96.1141141 118.4900634  62.0489235  95.5298934 131.9529660  50.0375126
  96.4629607 131.8875221  50.2408002  95.4422147 132.7885927  49.5789659
  98.1586951 131.2695530  46.9979074  98.0800582 130.9355394  47.8914832
  98.9796618 131.7617298  46.9970546 100.8565142 124.1357269  60.2055392
 100.8241462 123.1973270  60.3915076 101.4665766 124.2141306  59.4721217
  92.6948473 123.0053322  46.2482596  93.6407578 122.8759530  46.3171014
  92.3162718 122.2667984  46.7252025 101.0059631 120.9268313  60.2513676
 100.4898679 120.1426769  60.0643604 101.8899579 120.5987029  60.4160195
  98.6670358 114.6709328  56.2109488  98.4695179 114.3624416  57.0952820
  99.2770063 115.3970967  56.3407418 106.6741692 125.1973276  59.3461429
 107.4045080 124.9358564  59.9069133 106.0648637 124.4601998  59.3863497
 104.7556989 123.3381139  59.9435880 104.0290153 123.2037104  59.3352372
 104.3404276 123.6457967  60.7492598  92.5787166 127.0571068  67.7083253
  93.4990175 127.2349667  67.9023300  92.5436749 126.1127114  67.5562953
  90.8791390 120.9303299  46.1837482  89.9722846 120.6336411  46.2600195
  91.1567371 120.6333117  45.3171768  81.7969331 122.2509662  56.6336528
  81.4772115 121.3974970  56.3410902  81.2502759 122.4658240  57.3894495
  85.5749238 124.9672103  60.3506035  85.7935248 125.8989211  60.3694068
  85.9875012 124.6080077  61.1360838  92.4953456 115.4740188  52.3381723
  91.6854184 115.1287273  52.7136969  93.1837873 115.1647732  52.9269335
  94.4244004 114.5518235  53.9606020  94.9775043 114.9713689  54.6196043
  94.6614091 113.6253983  54.0028976  90.4477103 120.5405309  69.7408784
  90.3473830 121.4899666  69.6720875  90.2298645 120.2123548  68.8684854
  89.6490175 117.7890234  46.3249461  90.5109339 118.1145132  46.5845278
  89.8340519 117.0021730  45.8122527  81.6657591 125.8712574  58.6029650
  80.9721062 125.4566526  58.0899604  82.4130582 125.9133110  58.0063069
  97.8022811 116.6618760  53.4684684  97.2221480 117.3203564  53.0862736
  97.5358744 115.8396105  53.0572101  96.2526378 116.0623818  55.6706004
  96.7526156 116.1740353  54.8620323  96.8961986 115.7584871  56.3106813
  90.3108373 123.9702448  68.5573845  89.8275455 124.7702808  68.7637734
  90.3969312 123.9810393  67.6041289  83.5794333 125.8030827  56.4795665
  83.5565021 125.9018515  55.5277548  83.8894970 126.6495978  56.8012831
  86.2381711 127.8606982  60.5942279  87.1924964 127.8290925  60.5272211
  86.0394235 127.3997606  61.4092505  86.8281093 126.4308098  63.1613077
  87.6473982 126.9252177  63.1847914  87.1017901 125.5140067  63.1330644
  96.5847689 118.8218851  52.5241032  95.6973544 119.1068501  52.3061227
  97.0001678 118.6612614  51.6768309  99.9362225 118.8465372  56.2395371
 100.7122616 119.3361824  56.5119988  99.2110360 119.2723426  56.6967241
 102.3734784 119.5592991  57.2969312 102.9679275 119.3188727  56.5862620
 102.4461368 118.8400121  57.9242848  84.5931940 133.4026602  57.6112477
  84.4586408 132.6427003  57.0450475  84.1764002 134.1267502  57.1441266
  95.7290903 128.5863525  46.6189052  96.4326753 128.7913528  47.2346708
  95.0053551 129.1540287  46.8838136  96.5588713 124.3373387  52.7391322
  96.5023914 124.7941938  51.8998955  97.1117055 123.5764071  52.5614165
 100.3693519 120.1263119  53.5641442 100.1130453 119.7259754  54.3949649
  99.7446387 120.8406912  53.4391581 104.6805857 122.8659192  56.0712733
 104.1205415 122.9352381  56.8444295 104.0749360 122.6900176  55.3512229
  87.7501066 134.2995919  57.8230919  87.6333450 135.2441351  57.7209610
  86.9293512 133.9969480  58.2116719  97.6377600 129.0246055  48.6687512
  98.4723204 128.5927253  48.4864987  97.4761943 128.8528068  49.5964407
  97.2923492 125.5278168  50.0343851  97.2372296 125.3622439  49.0932296
  96.6669548 126.2354201  50.1906041  82.0816007 120.7646232  63.8605274
  82.7274871 120.2545186  64.3492499  81.8733158 121.5014914  64.4348699
  94.6069399 127.8327080  69.3597414  95.4760559 128.0067732  68.9984049
  94.1276151 128.6521497  69.2373144  90.6019618 115.0286277  49.6129170
  90.5898288 115.9728117  49.7697441  91.4943040 114.8456422  49.3188631
  88.7755580 134.9524181  61.0386848  89.6782826 134.9847791  61.3553343
  88.5492950 134.0224632  61.0533184  90.5309182 133.7055167  57.6996927
  89.5804813 133.7057029  57.5861299  90.8341668 132.9587902  57.1832961
  94.4171737 111.6229054  53.8675107  93.6504133 111.0687540  54.0131789
  94.8282442 111.6950922  54.7289258  86.4213498 117.9113849  67.9580288
  87.2844960 117.5550654  68.1683612  85.8478909 117.5727744  68.6455692
 106.2661875 139.5415706  58.7642689 106.9040285 139.4222453  58.0606029
 106.1482718 140.4896550  58.8230641 103.0751582 139.4943134  58.7004214
 102.7370093 139.3784199  57.8124748 103.9441350 139.0934299  58.6805220
  98.9338397 141.3478610  54.6901105  98.3703262 141.2568547  53.9217392
  98.8190792 140.5278515  55.1703597 103.5571365 140.6477986  64.6590419
 103.5460005 140.2530784  63.7870923 103.7192004 139.9144058  65.2524191
  96.4802829 142.8429802  57.5285325  97.2724121 142.5020626  57.1131624
  96.7199479 142.9524777  58.4487478 104.5137956 145.0149578  50.0015569
 103.8625936 145.6003658  49.6149583 105.3082319 145.5455773  50.0610607
  98.4393583 142.1038715  50.4002704  99.2124459 141.5567702  50.2615580
  98.7918982 142.9682964  50.6117165 100.2778626 143.4315097  63.6069603
  99.9868492 144.3360728  63.4916269 100.9135610 143.4731625  64.3213673
 101.2034833 140.8091946  60.1970963 101.7998405 140.5847968  59.4827926
 101.2609804 140.0676691  60.7996411 100.7759861 138.2631381  48.0321154
 101.0285382 137.7412902  47.2704617  99.8384420 138.0997527  48.1347837
 105.8203144 137.2667160  55.8395897 106.6066233 136.8486583  55.4886314
 106.0841848 138.1713252  56.0077545 105.9913221 142.7040010  50.5384554
 105.3559054 142.7774636  51.2505458 105.6610627 143.2933609  49.8603633
 111.2211571 137.2042393  56.7428875 111.9536743 136.6341610  56.9766705
 110.4650927 136.8163993  57.1835381 100.4956150 140.1659487  50.2345529
 100.3792408 139.4904391  50.9026613 100.6058410 139.6791861  49.4177682
 102.8387691 139.6269634  53.9392218 102.4745898 139.1000255  54.6505139
 103.6954806 139.2368103  53.7658703 108.7436991 130.9163967  61.2023484
 108.4120316 131.7859378  60.9784699 108.1482605 130.6000251  61.8817514
 102.4793178 134.6559534  48.9353566 102.6467580 135.5239770  49.3024037
 102.2890347 134.8186816  48.0114856 105.2368511 143.1176513  60.6019397
 104.9369234 144.0201552  60.4935204 104.8919570 142.8508696  61.4540550
  98.6880992 139.5690310  56.6356101  97.7631489 139.4366524  56.8433793
  98.9365405 140.3484529  57.1326044 108.6365655 135.6359053  58.2816834
 107.7282532 135.5674461  57.9875595 108.5853250 136.1130998  59.1098660
 102.4582398 137.1117191  49.9200233 102.3382024 137.5574242  50.7585714
 101.7634987 137.4602509  49.3613771  96.0489803 139.2123583  57.4699890
  96.1782184 139.4658062  58.3839302  95.3687255 139.8051291  57.1504545
 102.7106520 137.0548699  66.2251731 101.9339854 137.6142619  66.2154596
 103.3497083 137.5405482  66.7466602 110.5027301 133.8375491  60.0594708
 109.8601681 134.1308025  59.4134503 109.9982229 133.7228412  60.8647905
 108.1567465 137.5838665  50.7480567 109.0685321 137.8166051  50.5728265
 107.6477112 138.1675709  50.1855646 100.9652893 139.8634152  65.7869698
 101.7067577 140.4019196  65.5104522 100.2589878 140.4900441  65.9441250
 106.4408232 142.0063292  64.3841860 106.8491588 141.5645703  63.6396492
 105.7185494 141.4315920  64.6376053 102.7939302 136.9435899  61.7575417
 103.6400497 137.3675313  61.9010066 102.7337940 136.2869524  62.4513980
 106.7637047 142.5664483  58.1394149 106.1345909 142.7310197  57.4370217
 106.3762709 142.9806093  58.9105113 105.9438748 134.6040268  63.4156590
 105.6999680 135.3582328  62.8790866 106.2198678 134.9825615  64.2503838
 107.8977210 141.1478880  62.0933856 108.1094106 141.7910640  61.4168237
 107.8506959 140.3141197  61.6255786 105.5003439 133.7596701  58.9970428
 104.6387918 134.0577954  59.2887166 105.5265874 133.9767100  58.0651461
 102.3165009 142.3038891  55.4044234 102.7803354 142.5826594  54.6148856
 102.0521807 141.4022336  55.2217325  99.2089090 141.8510373  58.3423997
  99.7790447 142.2797641  57.7041482  99.7997202 141.5692957  59.0408183
 101.2533895 138.4262044  52.2133799 101.9557938 138.8783087  52.6807725
 100.9214523 137.7845862  52.8413692  99.7014256 137.0173800  66.5885008
  99.0712917 137.6990081  66.8220405  99.5950344 136.9056882  65.6438147
  94.9959229 136.6845596  57.5150933  94.2058283 136.9403125  57.0391043
  95.4870476 137.4993934  57.6202973  96.9473974 137.0490175  54.4734409
  96.1505137 137.1608870  54.9917905  96.7199566 137.3876828  53.6075300
 102.7779642 143.5734879  62.4216924 102.8424074 144.0355286  63.2575096
 102.0690566 142.9432244  62.5499234  93.2796932 136.9376087  59.9465923
  93.5304970 137.8223097  60.2123499  93.8156480 136.7580688  59.1741015
 102.4927659 145.2402986  52.2895904 102.3573334 146.0854522  52.7180752
 103.0337472 145.4422264  51.5261838  98.9794999 131.3194566  68.9510259
  98.5861945 130.7660765  69.6257904  99.7961139 131.6305144  69.3416777
  95.9457057 142.7578424  52.8623829  96.4581577 143.5521674  53.0129394
  96.5979770 142.0604715  52.7957431  97.7551942 145.8744180  54.9446582
  97.9318570 146.7962145  54.7567566  98.5508775 145.5602600  55.3740962
 101.8962960 132.7352445  66.5430516 102.6372673 133.3359598  66.4634978
 102.1280883 131.9930083  65.9848559  97.0404298 137.9208812  64.8208746
  96.9257813 137.0194070  65.1215845  96.1848816 138.1672509  64.4693562
 104.1196136 145.8626553  66.4196246 103.6759990 145.0762931  66.1017151
 104.7813349 146.0505703  65.7540137  98.8783257 147.3922354  60.9456925
  99.4290682 147.2639418  60.1733919  98.0394733 147.6917243  60.5951818
 102.6750428 143.6573482  65.2901156 103.2078765 142.8961770  65.0600464
 102.1464509 143.3647134  66.0325310 105.8420123 128.7633548  60.8194798
 105.4984392 129.6535190  60.7433908 106.2099086 128.5735206  59.9564383
  93.9105974 141.0867079  53.6383400  94.7481196 141.4964087  53.4217108
  94.0884241 140.1466521  53.6083594 105.8070406 138.7542159  49.3267233
 105.2917029 139.5246764  49.5655620 105.5347714 138.0807295  49.9500294
 103.3917517 133.5991860  54.3852471 102.5359113 133.2098710  54.2058110
 103.8044469 133.6783821  53.5252257 104.9216663 131.1338203  58.7844031
 104.4181459 131.0968338  57.9711836 105.2147270 132.0430946  58.8440688
 101.1659549 131.2176933  57.7910213 102.0312546 131.0219742  57.4316102
 101.2337058 130.9887285  58.7179569 105.5956709 136.6269251  51.1527014
 105.2906844 136.9415400  52.0037157 106.5487151 136.7050671  51.1954347
 104.0403141 142.7859475  52.8019968 103.5124502 142.0512234  52.4893205
 103.5390643 143.5634151  52.5559936 109.0195987 140.9808495  57.9187014
 108.3619661 141.6707756  58.0067143 109.8236386 141.3704927  58.2621001
  98.7721868 133.4479141  55.1626579  99.3465620 133.2254322  54.4299772
  99.3592851 133.5167835  55.9155181 107.8301446 139.3352868  55.9690956
 108.3433327 139.9682860  56.4712666 108.4802669 138.7354063  55.6034316
  99.0991455 135.4783602  49.1822465  98.2628768 135.8158288  49.5031739
  98.9596225 135.3432582  48.2449602 101.0744536 130.3220390  53.8901649
 100.4208948 130.0069407  53.2658264 101.0325010 129.6996130  54.6161472
 102.1855741 140.6039685  45.8054941 101.2782803 140.3728938  46.0046090
 102.6826773 139.8077304  45.9928923 104.3082276 136.8102323  58.2149297
 103.3904838 137.0317270  58.0570985 104.7242420 136.8848634  57.3561004
 105.0917324 138.2093739  53.3451977 105.8389143 138.7215136  53.0359099
 105.3608914 137.8877792  54.2056370 103.3643974 140.7052280  50.3278931
 102.4555194 140.4211313  50.4251401 103.3939058 141.1251358  49.4682238
 107.5396161 135.2450855  55.3270766 106.8018918 134.7328241  55.6581009
 107.7922935 134.8051237  54.5154043 107.6407789 128.0227107  55.9212535
 107.9466665 127.1624471  55.6338450 108.3660393 128.6144727  55.7211529
  93.9332145 138.4257794  54.3094133  93.7356545 137.8327155  53.5845200
  93.3778809 138.1210004  55.0270072 101.9128868 138.3180900  56.4288726
 101.9677478 137.3654737  56.3531203 101.1020070 138.4740339  56.9130025
 103.0620062 142.2461023  47.6667010 102.6239492 141.5296882  47.2072647
 103.8030503 142.4737138  47.1052101  99.8521228 136.9357960  54.1879105
  99.0389094 137.2352131  54.5944297 100.3480223 136.5413649  54.9053588
 102.0029806 146.9315717  56.1213370 101.9605985 147.1576563  55.1921902
 102.9192505 146.6979092  56.2699171 105.4495440 137.3999785  63.0193999
 105.8044828 137.6271258  63.8788465 106.0967571 137.7318161  62.3971255
 111.1793177 140.5218220  53.7243328 111.0411076 140.7119816  52.7964517
 110.8229396 141.2837603  54.1811379  99.3435303 134.5076316  59.8040340
  99.9834682 134.3665075  59.1063304  98.5112834 134.2210829  59.4278942
 100.1195607 143.8078746  55.9175333 100.9136205 143.3129066  55.7157908
  99.4087299 143.2796609  55.5543038  96.4278370 137.9521828  51.9935085
  95.4975959 137.8906283  52.2105048  96.5235842 137.4297780  51.1971727
  96.3463920 134.4776641  54.5813327  96.6070737 135.3921974  54.4722488
  97.1681092 134.0101083  54.7309940  97.8188845 135.8914398  61.7512152
  98.4911898 135.6831760  61.1024801  96.9918631 135.6936484  61.3117384
 103.7214417 132.5176339  63.7677812 103.0742332 133.2166288  63.6742289
 104.4915432 132.9512483  64.1354061 107.1293215 142.7825191  66.8428366
 106.9778721 142.5535743  65.9258449 107.1197894 143.7395792  66.8559711
 103.8978551 140.3557104  61.8274632 104.8270611 140.5068263  61.6543600
 103.4769581 140.4441124  60.9723279 102.6966883 144.3807768  59.5973170
 102.5577969 144.0126552  60.4699108 101.9081479 144.8955407  59.4257128
 104.2472098 143.7589371  56.9862008 103.9121931 143.7190141  57.8819657
 103.7476044 143.0934087  56.5132418  98.2216342 139.1657001  62.5114589
  98.0836140 138.4337240  63.1126128  99.1321266 139.0765901  62.2298777
 107.1831290 141.1045405  47.2599067 106.5660460 140.3792233  47.1632120
 106.7147778 141.8654765  46.9166142 100.8498643 138.8776960  61.9998268
 101.5598261 138.2370152  61.9584887 100.8067951 139.1289855  62.9224449
  99.5627577 135.8642178  63.8193908  99.0264934 135.4132916  64.4715504
  98.9744285 135.9988087  63.0764372  98.9729836 135.3230829  46.3820372
  98.0959302 135.2019630  46.0182618  99.4487589 134.5316908  46.1299260
  90.4931976 140.1107989  56.4761879  91.1803016 139.7969719  55.8882894
  90.3380105 141.0149354  56.2029130  95.2966698 134.9998186  60.9046902
  95.2124887 134.3923855  60.1697312  94.4749404 135.4907204  60.9056399
 105.4690412 133.4851749  56.2717097 105.9659111 132.7321711  55.9518168
 104.6977393 133.5216066  55.7060307 113.3220169 139.1892115  57.9135389
 113.3110045 140.0716830  57.5429322 112.4537549 138.8363666  57.7189926
 106.5520193 142.2423436  53.8455521 105.6176471 142.3624899  53.6760225
 106.7296861 141.3395903  53.5815531 102.0525381 135.6269132  55.9988782
 101.6823168 135.0740173  56.6869688 102.5484473 135.0227266  55.4463782
 109.9392744 138.0840756  54.3805555 110.4053196 138.9168747  54.3065858
 110.3900244 137.6185737  55.0850813  99.8814579 146.0866627  63.0943800
 100.5824039 146.7203110  63.2473194  99.4109694 146.4281359  62.3339439
 107.9109407 130.4521343  58.4196456 106.9972486 130.6825569  58.5878663
 108.3402508 130.5359787  59.2710489 107.6815865 138.6411235  60.9196350
 107.0287315 138.8887142  60.2648803 108.0596245 137.8275373  60.5858828
 103.7303438 139.3831046  67.4062387 103.0544075 139.2825175  68.0764763
 104.5531072 139.2270259  67.8698385  95.4782297 145.6202982  60.0274903
  96.0635734 144.8746670  60.1602807  95.2807136 145.9306939  60.9111567
  98.3320952 148.6554230  55.0437345  97.6631328 149.1400357  54.5601385
  98.1933822 148.9023450  55.9580724  90.0699952 138.1908582  58.7479346
  90.1084051 137.6572173  59.5416464  89.5640245 137.6643788  58.1290323
  97.4490714 133.0373123  62.2441888  97.5132041 133.8987954  61.8319286
  97.3857835 132.4247125  61.5114247  96.9242987 135.1096255  65.8914922
  97.5515026 134.7273333  66.5052447  96.0670906 134.8910457  66.2570615
  93.7008530 136.9172685  51.8233277  93.9961971 136.0083363  51.7700331
  92.7996565 136.8960424  51.5014280  97.2302777 134.9928681  57.8060826
  96.5089362 135.6064649  57.6668299  98.0196032 135.5286446  57.7277472
 100.0329090 132.3283108  64.0801478 100.5563492 132.5745404  64.8427787
  99.8141423 133.1603142  63.6604615  95.4296371 134.5986782  51.9472602
  95.1009077 133.7184161  51.7647708  95.7835742 134.5434451  52.8348992
  98.5438194 134.8859752  52.3148080  98.8834267 135.4145673  51.5926688
  98.9910315 135.2240158  53.0906647 101.2381635 133.2696803  61.7651148
 100.8978455 132.4704616  62.1671828 100.5320641 133.5698514  61.1927981
 101.8898107 130.3546115  60.2178471 102.7124176 129.8806593  60.0957361
 102.1336170 131.1336599  60.7177157 100.5306341 133.3834374  50.5141373
 101.2514704 133.7615626  50.0105090  99.9071646 134.1023250  50.6176351
 104.6737464 134.0879523  51.4499705 104.8901079 134.9704160  51.1488533
 104.1931531 133.6965736  50.7205347  99.4136686 137.0465236  58.0270450
  99.2681266 137.3605539  58.9194731  98.9361889 137.6650136  57.4741348
 101.2733069 134.0367784  58.0751339 101.2594637 133.1408877  57.7383637
 101.9905497 134.0438448  58.7089625 103.1259199 134.4705124  60.1204467
 102.8676977 135.3922195  60.1188797 102.5944240 134.0735559  60.8104931
  93.8882348 139.5870580  60.9658111  93.3435816 140.3630388  61.0978385
  94.7661698 139.9341385  60.8077232 100.6769964 132.9182164  53.3438909
 100.7985876 131.9898810  53.5429797 100.3872007 132.9320850  52.4317225
 103.5461155 130.6037075  56.4805629 103.5682852 130.6676408  55.5257609
 103.9629214 129.7641583  56.6746135  94.6748370 138.7140476  63.8588268
  93.9330106 138.8623112  64.4452898  94.3541114 138.9748742  62.9955017
  95.1204983 146.6005905  55.8898662  95.9463003 146.3009677  55.5097306
  94.7699035 145.8313528  56.3388451 100.0886517 145.9532373  57.9596336
  99.4666526 145.2903078  57.6598564 100.7591383 145.9793505  57.2769984
  93.3213588 144.5192232  56.8487596  92.4845497 144.0914406  56.6671597
  93.2937234 144.7124675  57.7858387 100.1611044 134.4314161  67.5528842
 100.2099200 135.3076284  67.1706612 100.7033558 133.8891554  66.9800485
 110.7663765 141.8247751  64.1462708 110.8161770 141.6597759  65.0878230
 110.6577688 140.9575010  63.7560588  99.6500023 144.5036297  51.4354797
  99.7988144 145.1871761  50.7821469 100.4566467 144.4841387  51.9504252
 108.0567527 137.8078679  65.4622014 108.9577390 137.6685144  65.1706012
 108.1315502 137.9733134  66.4020192 102.3910332 135.1845534  64.3075201
 101.5213642 135.4779100  64.0357789 102.6269813 135.7685979  65.0282464
 110.5169150 139.3677307  62.8584787 110.9923271 139.5604954  62.0503639
 109.5934715 139.4236493  62.6128171  97.4052656 140.5301474  52.4415865
  97.1598698 139.6263804  52.6396076  97.5748571 140.5318625  51.4995343
 105.0949366 131.4025151  61.8240621 105.6131310 132.1386178  61.4987110
 104.7404499 131.7089144  62.6587380  96.6748304 136.2629832  49.9402027
  95.9817549 136.3374187  49.2842063  96.4300056 135.4990176  50.4623544
 105.3461960 127.8225433  57.3441518 105.6263714 127.1548622  57.9701944
 106.1312567 128.0154529  56.8316181 109.2170819 136.2443067  61.0913093
 110.1688242 136.3441165  61.1125317 109.0474269 135.4521336  61.6011177
 107.2385198 133.3298651  61.2772494 106.6435130 133.6103663  60.5818982
 106.9534895 133.8192551  62.0489235 111.6958897 139.4649187  60.2055392
 111.6635217 138.5265188  60.3915076 112.3059520 139.5433224  59.4721217
 103.5342227 138.3345240  46.2482596 104.4801332 138.2051448  46.3171014
 103.1556472 137.5959902  46.7252025 111.8453385 136.2560230  60.2513676
 111.3292434 135.4718687  60.0643604 112.7293334 135.9278947  60.4160195
 109.5064112 130.0001246  56.2109488 109.3088933 129.6916334  57.0952820
 110.1163818 130.7262885  56.3407418 103.4180920 142.3862986  67.7083253
 104.3383929 142.5641585  67.9023300 103.3830503 141.4419031  67.5562953
 101.7185145 136.2595216  46.1837482 100.8116600 135.9628329  46.2600195
 101.9961126 135.9625034  45.3171768  92.6363085 137.5801580  56.6336528
  92.3165869 136.7266888  56.3410902  92.0896513 137.7950158  57.3894495
  96.4142993 140.2964021  60.3506035  96.6329002 141.2281129  60.3694068
  96.8268766 139.9371995  61.1360838 103.3347210 130.8032106  52.3381723
 102.5247939 130.4579191  52.7136969 104.0231627 130.4939650  52.9269335
 105.2637759 129.8810153  53.9606020 105.8168797 130.3005606  54.6196043
 105.5007845 128.9545901  54.0028976 101.2870858 135.8697227  69.7408784
 101.1867585 136.8191583  69.6720875 101.0692400 135.5415465  68.8684854
 100.4883929 133.1182152  46.3249461 101.3503093 133.4437050  46.5845278
 100.6734273 132.3313647  45.8122527  92.5051345 141.2004491  58.6029650
  91.8114816 140.7858444  58.0899604  93.2524336 141.2425028  58.0063069
 108.6416566 131.9910678  53.4684684 108.0615235 132.6495482  53.0862736
 108.3752498 131.1688023  53.0572101 107.0920132 131.3915736  55.6706004
 107.5919910 131.5032270  54.8620323 107.7355740 131.0876789  56.3106813
 101.1502128 139.2994365  68.5573845 100.6669210 140.0994725  68.7637734
 101.2363067 139.3102310  67.6041289  94.4188088 141.1322745  56.4795665
  94.3958776 141.2310432  55.5277548  94.7288724 141.9787896  56.8012831
  97.0775465 143.1898900  60.5942279  98.0318719 143.1582842  60.5272211
  96.8787989 142.7289524  61.4092505  97.6674848 141.7600016  63.1613077
  98.4867737 142.2544095  63.1847914  97.9411655 140.8431984  63.1330644
 107.4241444 134.1510768  52.5241032 106.5367299 134.4360419  52.3061227
 107.8395433 133.9904532  51.6768309 110.7755980 134.1757289  56.2395371
 111.5516370 134.6653742  56.5119988 110.0504114 134.6015344  56.6967241
 113.2128539 134.8884909  57.2969312 113.8073029 134.6480645  56.5862620
 113.2855122 134.1692039  57.9242848  95.4325694 148.7318520  57.6112477
  95.2980162 147.9718920  57.0450475  95.0157756 149.4559419  57.1441266
 106.5684657 143.9155443  46.6189052 107.2720507 144.1205446  47.2346708
 105.8447306 144.4832205  46.8838136 107.3982467 139.6665304  52.7391322
 107.3417669 140.1233856  51.8998955 107.9510810 138.9055989  52.5614165
 111.2087273 135.4555036  53.5641442 110.9524208 135.0551672  54.3949649
 110.5840141 136.1698830  53.4391581 115.5199611 138.1951109  56.0712733
 114.9599169 138.2644299  56.8444295 114.9143115 138.0192094  55.3512229
  98.5894820 149.6287837  57.8230919  98.4727204 150.5733269  57.7209610
  97.7687266 149.3261398  58.2116719 108.1317247 140.8570086  50.0343851
 108.0766051 140.6914357  49.0932296 107.5063302 141.5646118  50.1906041
  92.9209762 136.0938150  63.8605274  93.5668625 135.5837104  64.3492499
  92.7126913 136.8306832  64.4348699 105.4463154 143.1618997  69.3597414
 106.3154314 143.3359650  68.9984049 104.9669905 143.9813414  69.2373144
 101.4413372 130.3578195  49.6129170 101.4292042 131.3020035  49.7697441
 102.3336794 130.1748340  49.3188631 105.2565492 126.9520971  53.8675107
 104.4897888 126.3979458  54.0131789 105.6676197 127.0242840  54.7289258
  97.2607253 133.2405767  67.9580288  98.1238714 132.8842572  68.1683612
  96.6872663 132.9019662  68.6455692  30.3905595   9.2434405  45.4887996
  31.0284005   9.1241152  44.7851336  30.2726438  10.1915249  45.5475948
  27.1995301   9.1961833  45.4249520  26.8613813   9.0802897  44.5370055
  28.0685070   8.7952998  45.4050526  23.0582117  11.0497309  41.4146411
  22.4946982  10.9587246  40.6462699  22.9434512  10.2297214  41.8948904
  27.6815084  10.3496684  51.3835726  27.6703725   9.9549483  50.5116229
  27.8435724   9.6162757  51.9769497  20.6046549  12.5448501  44.2530632
  21.3967841  12.2039325  43.8376931  20.8443199  12.6543476  45.1732785
  28.6381676  14.7168277  36.7260876  27.9869656  15.3022357  36.3394890
  29.4326039  15.2474472  36.7855914  24.4022345  13.1333796  50.3314910
  24.1112211  14.0379427  50.2161576  25.0379330  13.1750324  51.0458979
  25.3278552  10.5110645  46.9216269  25.9242125  10.2866667  46.2073232
  25.3853524   9.7695390  47.5241717  29.9446864   6.9685858  42.5641204
  30.7309953   6.5505282  42.2131621  30.2085568   7.8731951  42.7322852
  30.1156941  12.4058709  37.2629860  29.4802774  12.4793335  37.9750765
  29.7854347  12.9952308  36.5848940  35.3455291   6.9061092  43.4674182
  36.0780463   6.3360308  43.7012012  34.5894646   6.5182692  43.9080688
  26.9631410   9.3288333  40.6637525  26.5989618   8.8018954  41.3750446
  27.8198526   8.9386802  40.4904010  32.8680711   0.6182666  47.9268791
  32.5364036   1.4878077  47.7030006  32.2726324   0.3018950  48.6062821
  29.3612231  12.8195212  47.3264703  29.0612954  13.7220251  47.2180511
  29.0163290  12.5527395  48.1785856  22.8124712   9.2709009  43.3601408
  21.8875209   9.1385223  43.5679100  23.0609125  10.0503228  43.8571350
  32.7609374   5.3377752  45.0062141  31.8526252   5.2693160  44.7120902
  32.7096970   5.8149697  45.8343966  20.1733523   8.9142282  44.1945197
  20.3025904   9.1676761  45.1084609  19.4930974   9.5069990  43.8749852
  24.3433010  19.5839532  40.2935671  24.2657040  20.5347357  40.3724152
  23.7394654  19.2385405  40.9510597  26.8350240   6.7567397  52.9497038
  26.0583574   7.3161318  52.9399903  27.4740803   7.2424180  53.4711908
  34.6271021   3.5394190  46.7840015  33.9845401   3.8326723  46.1379809
  34.1225949   3.4247111  47.5893211  32.2811184   7.2857363  37.4725874
  33.1929041   7.5184750  37.2973571  31.7720831   7.8694408  36.9100953
  25.0896612   9.5652851  52.5115005  25.8311297  10.1037895  52.2349829
  24.3833598  10.1919140  52.6686557  30.5651952  11.7081991  51.1087167
  30.9735308  11.2664402  50.3641799  29.8429214  11.1334619  51.3621359
  26.9183022   6.6454598  48.4820723  27.7644217   7.0694012  48.6255372
  26.8581660   5.9888222  49.1759287  30.8880767  12.2683182  44.8639455
  30.2589629  12.4328896  44.1615523  30.5006429  12.6824792  45.6350419
  34.7669999  13.2037620  42.2183819  34.0821037  13.5836521  41.6680852
  34.8513848  13.8132946  42.9515767  30.0682467   4.3058966  50.1401897
  29.8243399   5.0601027  49.6036173  30.3442398   4.6844314  50.9749144
  32.0220930  10.8497579  48.8179163  32.2337825  11.4929339  48.1413544
  31.9750678  10.0159895  48.3501093  29.6247159   3.4615399  45.7215735
  28.7631638   3.7596653  46.0132472  29.6509594   3.6785798  44.7896767
  26.4408729  12.0057590  42.1289541  26.9047074  12.2845293  41.3394163
  26.1765527  11.1041035  41.9462631  23.3332810  11.5529072  45.0669304
  23.9034167  11.9816340  44.4286788  23.9240922  11.2711656  45.7653489
  23.8257976   6.7192499  53.3130315  23.1956637   7.4008780  53.5465712
  23.7194064   6.6075581  52.3683453  33.1366758  13.7269534  46.9901520
  33.9584202  13.3249722  46.7084202  33.1329161  13.6237768  47.9417636
  26.9023362  13.2753578  49.1462231  26.9667794  13.7373985  49.9820402
  26.1934285  12.6450942  49.2744540  41.2272751  10.0708283  43.3386492
  40.4736460   9.5015681  43.1830496  41.3620292  10.0370947  44.2857126
  26.6171379  14.9421685  39.0141211  26.4817054  15.7873221  39.4426059
  27.1581192  15.1440963  38.2507145  20.0700777  12.4597123  39.5869136
  20.5825297  13.2540373  39.7374701  20.7223489  11.7623414  39.5202737
  21.8795661  15.5762879  41.6691889  22.0562290  16.4980844  41.4812873
  22.6752495  15.2621299  42.0986269  21.1648018   7.6227511  51.5454052
  21.0501533   6.7212768  51.8461151  20.3092536   7.8691208  51.1938869
  28.2439856  15.5645252  53.1441553  27.8003710  14.7781630  52.8262457
  28.9057069  15.7524402  52.4785444  23.0026977  17.0941053  47.6702231
  23.5534402  16.9658116  46.8979225  22.1638453  17.3935942  47.3197124
  30.3421094  15.8448051  51.1722954  30.3239569  16.6656933  50.6803223
  31.2641014  15.7202127  51.3973095  26.7994148  13.3592181  52.0146463
  27.3322485  12.5980469  51.7845771  26.2708229  13.0665833  52.7570617
  34.9048400  11.2093213  37.9865713  34.1277842  10.8704372  37.5420875
  35.5839881  11.2145836  37.3120678  28.1646861  12.4878173  39.5265275
  27.6368222  11.7530933  39.2138512  27.6634363  13.2652850  39.2805243
  33.1439707  10.6827194  44.6432321  32.4863381  11.3726455  44.7312450
  33.9480106  11.0723626  44.9866307  31.9545165   9.0371567  42.6936263
  32.4677047   9.6701558  43.1957972  32.6046389   8.4372762  42.3279623
  29.2167540  19.0155891  35.4496934  28.5429238  19.3187588  36.0581892
  29.6033362  19.8184971  35.1002391  28.4325996   6.5121022  44.9394603
  27.5148558   6.7335969  44.7816291  28.8486140   6.5867333  44.0806311
  29.2161044   7.9112438  40.0697283  29.9632863   8.4233835  39.7604405
  29.4852634   7.5896491  40.9301677  32.7206962  14.0177568  40.8215405
  32.2669289  13.1768478  40.8780596  32.0900928  14.6538966  41.1590185
  31.6639881   4.9469554  42.0516073  30.9262638   4.4346940  42.3826315
  31.9166655   4.5069936  41.2399350  31.1639901  15.8554065  41.7565223
  31.4562875  16.4159122  41.0377589  31.6738521  16.1482626  42.5118383
  26.0372588   8.0199599  43.1534033  26.0921198   7.0673436  43.0776510
  25.2263790   8.1759038  43.6375331  23.9764948   6.6376659  40.9124412
  23.1632814   6.9370829  41.3189604  24.4723942   6.2432348  41.6298894
  26.1273526  16.6334416  42.8458677  26.0849705  16.8595262  41.9167209
  27.0436225  16.3997790  42.9944478  29.5739160   7.1018483  49.7439306
  29.9288548   7.3289957  50.6033772  30.2211291   7.4336860  49.1216561
  35.3036897  10.2236919  40.4488635  35.1654795  10.4138515  39.5209824
  34.9473116  10.9856302  40.9056686  35.3306276  12.2913446  45.4599906
  35.7642783  12.1988735  46.3082960  36.0437857  12.2670947  44.8219922
  24.2439327  13.5097445  42.6420639  25.0379925  13.0147765  42.4403214
  23.5331019  12.9815308  42.2788345  29.0634171  15.8915540  46.9933007
  29.1171194  16.4606477  47.7610723  28.1948953  16.0617425  46.6287044
  36.1921826  12.3337147  47.9932792  36.3857716  13.2382957  48.2392067
  36.0922444  11.8744566  48.8271377  27.8458137   2.2195038  50.4923119
  27.1986052   2.9184987  50.3987596  28.6159152   2.6531181  50.8599367
  31.2536935  12.4843890  53.5673672  31.1022441  12.2554441  52.6503756
  31.2441614  13.4414491  53.5805017  28.0222271  10.0575802  48.5519939
  28.9514331  10.2086962  48.3788906  27.6013301  10.1459823  47.6968585
  26.8210603  14.0826467  46.3218476  26.6821689  13.7145251  47.1944415
  26.0325199  14.5974106  46.1502434  27.4158755  19.1835563  37.6644013
  27.5910510  18.7123606  38.4789636  26.7291543  19.8101330  37.8925274
  28.3715818  13.4608070  43.7107314  28.0365651  13.4208840  44.6064964
  27.8719764  12.7952785  43.2377724  22.3460062   8.8675700  49.2359895
  22.2079860   8.1355938  49.8371434  23.2564985   8.7784600  48.9544083
  24.9742363   8.5795659  48.7243575  25.6841981   7.9388851  48.6830193
  24.9311671   8.8308554  49.6469756  32.9629141  15.5163012  51.6450154
  32.9041687  14.8322232  50.9780737  33.3648660  16.2582002  51.1930780
  23.6871297   5.5660877  50.5439215  23.1508654   5.1151615  51.1960811
  23.0988005   5.7006786  49.8009679  21.9819840  22.3324926  44.4383873
  22.2216438  22.9643450  45.1162892  21.1389037  21.9812966  44.7249232
  32.9646549  13.4802596  49.8764134  32.0773327  13.1428518  49.9990533
  33.5345100  12.7485627  50.1132899  26.4947702  18.1404049  46.8425377
  26.4217873  18.9459020  47.3544682  26.0525095  18.3396014  46.0173399
  26.2837482  17.3775819  40.3528199  25.5005003  17.9197499  40.4466423
  26.9830227  17.8949798  40.7522440  29.5934132   3.1870448  42.9962404
  30.0902831   2.4340410  42.6763474  28.8221113   3.2234765  42.4305613
  37.4463889   8.8910814  44.6380696  37.4353765   9.7735529  44.2674629
  36.5781269   8.5382364  44.4435233  28.9546385  18.0390883  48.9983536
  29.6674358  18.6738347  48.9259437  28.4636414  18.1354749  48.1823538
  30.6763912  11.9442135  40.5700827  29.7420191  12.0643598  40.4005532
  30.8540581  11.0414602  40.3060837  26.1769100   5.3287831  42.7234089
  25.8066888   4.7758871  43.4114994  26.6728193   4.7245964  42.1709089
  34.0636464   7.7859454  41.1050862  34.5296916   8.6187446  41.0311164
  34.5143964   7.3204436  41.8096120  24.0058299  15.7885326  49.8189107
  24.7067758  16.4221809  49.9718501  23.5353414  16.1300058  49.0584746
  32.1312695  14.1303276  38.1037014  32.4072539  14.0159870  39.0130888
  31.2617194  13.7320761  38.0649187  32.0353126   0.1540041  45.1441763
  31.1216206   0.3844268  45.3123970  32.4646228   0.2378486  45.9955795
  31.8059585   8.3429933  47.6441657  31.1531035   8.5905841  46.9894110
  32.1839965   7.5294072  47.3104134  28.7666759  18.3789627  41.7469827
  28.9489153  17.5611283  42.2097580  29.5899745  18.5957319  41.3094717
  29.1008924  17.3057812  39.0084876  29.6296691  16.7950266  38.3955038
  29.3637144  16.9900342  39.8730409  27.8547158   9.0849745  54.1307694
  27.1787795   8.9843874  54.8010069  28.6774792   8.9288958  54.5943691
  19.6026017  15.3221681  46.7520209  20.1879454  14.5765369  46.8848114
  19.4050856  15.6325638  47.6356873  22.4564672  18.3572928  41.7682652
  21.7875048  18.8419056  41.2846692  22.3177542  18.6042149  42.6826030
  26.5969941  20.3916672  48.3665310  27.1488249  20.5548293  49.1314395
  26.9376134  20.9821110  47.6945335  31.4480815  15.2177929  54.2213964
  31.9920719  15.8307888  53.7268919  30.8667660  15.7757508  54.7380977
  29.7338328  18.3398647  45.3528992  29.6089468  17.5388387  44.8439938
  30.3917419  18.8344841  44.8642962  31.7973237  16.1407668  46.9808542
  30.8503572  16.0213019  46.9086869  32.1456010  15.2530166  47.0634804
  28.8019670  15.9360384  43.1812895  28.6544632  15.0077091  43.3620465
  29.6273163  15.9580474  42.6969970  32.4053792  16.7588943  44.2677767
  33.3300339  16.5531804  44.1302218  32.2369095  16.5105344  45.1767109
  23.5380406   6.7483935  44.7515756  23.3924986   7.0624238  45.6440038
  23.0605609   7.3668835  44.1986655  27.2502919   4.1723823  46.8449773
  26.9920697   5.0940893  46.8434104  26.7187959   3.7754257  47.5350237
  32.1949108  17.2774610  39.6239859  32.3685985  16.7121032  38.8713711
  32.6877999  18.0775505  39.4419349  18.0126068   9.2889279  47.6903418
  17.4679536  10.0649087  47.8223692  18.8905418   9.6360084  47.5322539
  38.0488499  10.0411033  41.2430158  38.4919645   9.2918358  40.8449282
  37.1715009  10.0321169  40.8603890  33.1824280  16.5941374  36.7236757
  33.8775185  17.2148067  36.9424072  33.5247430  15.7436726  36.9989135
  18.7992090   8.4159175  50.5833574  18.0573826   8.5641811  51.1698205
  18.4784834   8.6767441  49.7200324  35.0815703  14.0441080  38.2524088
  35.6067028  14.3828353  37.5273408  34.9938056  13.1088095  38.0687222
  26.7435752  17.9575154  50.3813964  27.0522879  17.7124300  51.2536664
  27.5411234  18.1621792  49.8932835  26.7656364  20.1113063  42.6119341
  26.3261355  19.6189442  43.3052198  27.5164481  19.5686031  42.3711416
  19.2448703  16.3024604  42.6143969  20.0706723  16.0028376  42.2342613
  18.8942755  15.5332226  43.0633758  24.2130236  15.6551072  44.6841643
  23.5910246  14.9921777  44.3843870  24.8835103  15.6812204  44.0015290
  17.4457308  14.2210931  43.5732903  16.6089217  13.7933105  43.3916904
  17.4180954  14.4143374  44.5103694  34.7709610  14.6773984  53.5575286
  33.9805153  14.6598122  53.0179785  34.5342964  15.2162277  54.3124322
  34.8907485  11.5266450  50.8708014  34.9405490  11.3616457  51.8123537
  34.7821408  10.6593709  50.4805895  23.7743743  14.2054996  38.1600103
  23.9231864  14.8890460  37.5066776  24.5810187  14.1860086  38.6749559
  32.1811247   7.5097378  52.1867321  33.0821110   7.3703843  51.8951319
  32.2559221   7.6751833  53.1265498  26.5154052   4.8864233  51.0320507
  25.6457362   5.1797799  50.7603096  26.7513533   5.4704678  51.7527771
  36.3925681  13.9463391  51.1150036  36.1010490  14.3093372  51.9513497
  35.7797813  13.2330400  50.9363368  37.5921364  11.5116271  43.6352606
  38.4268255  11.9506075  43.7990166  37.7280493  11.0354924  42.8160852
  34.6412870   9.0696006  49.5830094  35.1166991   9.2623652  48.7748945
  33.7178435   9.1255192  49.3373477  29.2193086   1.1043850  48.5485928
  29.7375030   1.8404877  48.2232416  28.8648219   1.4107843  49.3832687
  27.2739149  16.7003126  35.6311851  26.7013116  17.3193313  35.1782322
  27.8471942  17.2502488  36.1651773  33.3414539   5.9461766  47.8158399
  34.2931962   6.0459864  47.8370623  33.1717989   5.1540035  48.3256484
  31.3628918   3.0317349  48.0017800  30.7678850   3.3122362  47.3064289
  31.0778615   3.5211250  48.7734541  30.4936409  16.9840276  36.7620433
  31.4267082  16.9185838  36.9653308  30.4059621  17.8196543  36.3034966
  33.1224425  16.3006147  33.7224380  33.0438057  15.9666010  34.6160138
  33.9434092  16.7927914  33.7215853  35.8202616   9.1667886  46.9300699
  35.7878937   8.2283887  47.1160383  36.4303240   9.2451923  46.1966524
  35.9697105   5.9578929  46.9758982  35.4536154   5.1737386  46.7888911
  36.8537053   5.6297646  47.1405502  33.6307832  -0.2980055  42.9354795
  33.4332653  -0.6064967  43.8198127  34.2407537   0.4281584  43.0652725
  41.6379166  10.2283893  46.0706736  42.3682555   9.9669181  46.6314439
  41.0286112   9.4912615  46.1108804  39.7194463   8.3691755  46.6681187
  38.9927627   8.2347720  46.0597679  39.3041750   8.6768584  47.4737905
  27.5424640  12.0881685  54.4328560  28.4627649  12.2660284  54.6268607
  27.5074223  11.1437730  54.2808259  20.5386712   9.9982720  47.0751341
  20.7572722  10.9299827  47.0939375  20.9512486   9.6390694  47.8606145
  25.4114578   5.5715925  56.4654090  25.3111305   6.5210282  56.3966181
  25.1936120   5.2434164  55.5930160  16.6295065  10.9023190  45.3274956
  15.9358536  10.4877143  44.8144911  17.3768056  10.9443727  44.7308375
  31.2163852   1.0934435  42.3951311  31.7163630   1.2050969  41.5865630
  31.8599460   0.7895487  43.0352119  25.2745848   9.0013064  55.2819152
  24.7912929   9.8013424  55.4883041  25.3606787   9.0121009  54.3286596
  18.5431807  10.8341444  43.2040971  18.5202495  10.9329131  42.2522854
  18.8532444  11.6806595  43.5258137  21.2019185  12.8917599  47.3187586
  22.1562439  12.8601541  47.2517517  21.0031709  12.4308223  48.1337812
  21.7918567  11.4618715  49.8858383  22.6111456  11.9562794  49.9093221
  22.0655375  10.5450683  49.8575951  34.8999700   3.8775988  42.9640678
  35.6760090   4.3672441  43.2365295  34.1747834   4.3034042  43.4212548
  37.3372258   4.5903607  44.0214619  37.9316749   4.3499343  43.3107927
  37.4098842   3.8710738  44.6488155  19.5569414  18.4337218  44.3357783
  19.4223882  17.6737619  43.7695782  19.1401476  19.1578118  43.8686572
  31.5226187   9.3684003  39.4636629  31.4661389   9.8252555  38.6244261
  32.0754530   8.6074688  39.2859472  35.3330993   5.1573735  40.2886748
  35.0767927   4.7570371  41.1194956  34.7083861   5.8717529  40.1636888
  39.6443331   7.8969808  42.7958040  39.0842889   7.9662998  43.5689602
  39.0386834   7.7210793  42.0757536  22.7138540  19.3306535  44.5476226
  22.5970924  20.2751968  44.4454916  21.8930986  19.0280097  44.9362025
  32.6015074  14.0556671  35.3932819  33.4360678  13.6237870  35.2110294
  32.4399417  13.8838685  36.3209713  32.2560967  10.5588784  36.7589158
  32.2009770  10.3933056  35.8177602  31.6307022  11.2664817  36.9151348
  29.5706874  12.8637696  56.0842721  30.4398033  13.0378349  55.7229356
  29.0913625  13.6832113  55.9618450  23.7393054  19.9834797  47.7632155
  24.6420301  20.0158408  48.0798649  23.5130424  19.0535248  47.7778490
  25.4946656  18.7365784  44.4242233  24.5442287  18.7367645  44.3106605
  25.7979142  17.9898518  43.9078268  41.2299350  24.5726322  45.4887996
  41.8677759  24.4533070  44.7851336  41.1120192  25.5207166  45.5475948
  38.0389056  24.5253750  45.4249520  37.7007567  24.4094815  44.5370055
  38.9078824  24.1244915  45.4050526  33.8975872  26.3789227  41.4146411
  33.3340737  26.2879164  40.6462699  33.7828267  25.5589131  41.8948904
  38.5208839  25.6788602  51.3835726  38.5097480  25.2841400  50.5116229
  38.6829478  24.9454675  51.9769497  31.4440303  27.8740418  44.2530632
  32.2361595  27.5331243  43.8376931  31.6836954  27.9835393  45.1732785
  39.4775430  30.0460194  36.7260876  38.8263410  30.6314275  36.3394890
  40.2719793  30.5766389  36.7855914  33.4031057  27.1349332  37.1248010
  34.1761933  26.5878319  36.9860886  33.7556456  27.9993581  37.3362472
  35.2416100  28.4625714  50.3314910  34.9505966  29.3671345  50.2161576
  35.8773084  28.5042241  51.0458979  36.1672307  25.8402562  46.9216269
  36.7635879  25.6158585  46.2073232  36.2247278  25.0987308  47.5241717
  35.7397335  23.2941998  34.7566460  35.9922856  22.7723519  33.9949923
  34.8021894  23.1308143  34.8593144  40.7840618  22.2977776  42.5641204
  41.5703707  21.8797199  42.2131621  41.0479322  23.2023868  42.7322852
  40.9550695  27.7350626  37.2629860  40.3196528  27.8085253  37.9750765
  40.6248102  28.3244225  36.5848940  46.1849045  22.2353009  43.4674182
  46.9174217  21.6652226  43.7012012  45.4288401  21.8474610  43.9080688
  35.4593624  25.1970104  36.9590835  35.3429882  24.5215007  37.6271920
  35.5695884  24.7102478  36.1422988  37.8025165  24.6580251  40.6637525
  37.4383372  24.1310872  41.3750446  38.6592281  24.2678720  40.4904010
  43.7074465  15.9474583  47.9268791  43.3757790  16.8169994  47.7030006
  43.1120079  15.6310867  48.6062821  37.4430652  19.6870150  35.6598873
  37.6105054  20.5550387  36.0269344  37.2527821  19.8497432  34.7360162
  40.2005985  28.1487129  47.3264703  39.9006708  29.0512168  47.2180511
  39.8557045  27.8819313  48.1785856  33.6518467  24.6000926  43.3601408
  32.7268963  24.4677140  43.5679100  33.9002880  25.3795145  43.8571350
  43.6003129  20.6669670  45.0062141  42.6920006  20.5985078  44.7120902
  43.5490725  21.1441615  45.8343966  37.4219873  22.1427808  36.6445540
  37.3019498  22.5884859  37.4831020  36.7272461  22.4913126  36.0859078
  31.0127278  24.2434200  44.1945197  31.1419659  24.4968679  45.1084609
  30.3324729  24.8361908  43.8749852  35.1826765  34.9131450  40.2935671
  35.1050795  35.8639275  40.3724152  34.5788408  34.5677322  40.9510597
  37.6743995  22.0859315  52.9497038  36.8977329  22.6453235  52.9399903
  38.3134558  22.5716098  53.4711908  45.4664775  18.8686108  46.7840015
  44.8239155  19.1618641  46.1379809  44.9619704  18.7539028  47.5893211
  43.1204939  22.6149281  37.4725874  44.0322795  22.8476668  37.2973571
  42.6114586  23.1986325  36.9100953  35.9290367  24.8944769  52.5115005
  36.6705051  25.4329812  52.2349829  35.2227352  25.5211057  52.6686557
  41.4045707  27.0373909  51.1087167  41.8129063  26.5956320  50.3641799
  40.6822968  26.4626537  51.3621359  37.7576777  21.9746516  48.4820723
  38.6037972  22.3985929  48.6255372  37.6975414  21.3180140  49.1759287
  41.7274521  27.5975100  44.8639455  41.0983384  27.7620814  44.1615523
  41.3400183  28.0116709  45.6350419  45.6063753  28.5329537  42.2183819
  44.9214791  28.9128439  41.6680852  45.6907602  29.1424864  42.9515767
  40.9076222  19.6350884  50.1401897  40.6637154  20.3892945  49.6036173
  41.1836152  20.0136232  50.9749144  42.8614685  26.1789496  48.8179163
  43.0731580  26.8221256  48.1413544  42.8144433  25.3451813  48.3501093
  40.4640914  18.7907317  45.7215735  39.6025393  19.0888571  46.0132472
  40.4903348  19.0077716  44.7896767  37.2802483  27.3349508  42.1289541
  37.7440829  27.6137211  41.3394163  37.0159281  26.4332952  41.9462631
  34.1726564  26.8820989  45.0669304  34.7427921  27.3108258  44.4286788
  34.7634676  26.6003574  45.7653489  36.2171369  23.4572660  38.9379106
  36.9195412  23.9093704  39.4053032  35.8851998  22.8156479  39.5658999
  34.6651731  22.0484417  53.3130315  34.0350391  22.7300698  53.5465712
  34.5587819  21.9367498  52.3683453  29.9596703  21.7156213  44.2396239
  29.1695757  21.9713741  43.7636350  30.4507950  22.5304551  44.3448280
  43.9760513  29.0561452  46.9901520  44.7977956  28.6541639  46.7084202
  43.9722916  28.9529686  47.9417636  31.9111448  22.0800792  41.1979716
  31.1142612  22.1919486  41.7163212  31.6837041  22.4187444  40.3320606
  37.7417116  28.6045495  49.1462231  37.8061549  29.0665902  49.9820402
  37.0328040  27.9742860  49.2744540  28.2434406  21.9686703  46.6711230
  28.4942444  22.8533713  46.9368806  28.7793954  21.7891305  45.8986322
  52.0666506  25.4000200  43.3386492  51.3130214  24.8307598  43.1830496
  52.2014047  25.3662865  44.2857126  37.4565134  30.2713603  39.0141211
  37.3210809  31.1165138  39.4426059  37.9974946  30.4732880  38.2507145
  33.9432473  16.3505183  55.6755566  33.5499419  15.7971381  56.3503210
  34.7598614  16.6615761  56.0662084  30.9094531  27.7889041  39.5869136
  31.4219052  28.5832291  39.7374701  31.5617244  27.0915331  39.5202737
  32.7189416  30.9054797  41.6691889  32.8956044  31.8272762  41.4812873
  33.5146249  30.5913216  42.0986269  36.8600434  17.7663062  53.2675823
  37.6010148  18.3670215  53.1880285  37.0918357  17.0240699  52.7093865
  32.0041772  22.9519429  51.5454052  31.8895288  22.0504686  51.8461151
  31.1486290  23.1983126  51.1938869  39.0833610  30.8937169  53.1441553
  38.6397464  30.1073548  52.8262457  39.7450824  31.0816320  52.4785444
  33.8420731  32.4232971  47.6702231  34.3928156  32.2950034  46.8979225
  33.0032207  32.7227860  47.3197124  41.1814848  31.1739969  51.1722954
  41.1633324  31.9948850  50.6803223  42.1034768  31.0494044  51.3973095
  37.6387902  28.6884099  52.0146463  38.1716239  27.9272387  51.7845771
  37.1101983  28.3957750  52.7570617  40.8057597  13.7944165  47.5440104
  40.4621867  14.6845806  47.4679215  41.1736560  13.6045822  46.6809689
  28.8743448  26.1177695  40.3628706  29.7118670  26.5274703  40.1462414
  29.0521716  25.1777137  40.3328900  40.7707880  23.7852776  36.0512539
  40.2554503  24.5557380  36.2900927  40.4985188  23.1117912  36.6745601
  38.3554991  18.6302476  41.1097778  37.4996587  18.2409327  40.9303417
  38.7681943  18.7094437  40.2497563  39.8854138  16.1648820  45.5089338
  39.3818933  16.1278955  44.6957143  40.1784745  17.0741562  45.5685994
  36.1297024  16.2487549  44.5155519  36.9950020  16.0530358  44.1561409
  36.1974533  16.0197901  45.4424876  45.7442154  26.5385130  37.9865713
  44.9671597  26.1996290  37.5420875  46.4233635  26.5437754  37.3120678
  40.5594183  21.6579868  37.8772321  40.2544319  21.9726017  38.7282464
  41.5124625  21.7361288  37.9199654  39.0040615  27.8170091  39.5265275
  38.4761977  27.0822851  39.2138512  38.5028118  28.5944767  39.2805243
  43.9833461  26.0119112  44.6432321  43.3257136  26.7018373  44.7312450
  44.7873860  26.4015544  44.9866307  33.7359343  18.4789757  41.8871886
  34.3103095  18.2564939  41.1545079  34.3230325  18.5478452  42.6400487
  42.7938920  24.3663484  42.6936263  43.3070802  24.9993476  43.1957972
  43.4440144  23.7664680  42.3279623  34.0628930  20.5094218  35.9067771
  33.2266242  20.8468905  36.2277046  33.9233699  20.3743198  34.9694908
  36.0382010  15.3531006  40.6146956  35.3846423  15.0380023  39.9903570
  35.9962485  14.7306747  41.3406778  37.1493215  25.6350301  32.5300248
  36.2420277  25.4039555  32.7291397  37.6464247  24.8387921  32.7174229
  40.0561294  34.3447809  35.4496934  39.3822993  34.6479505  36.0581892
  40.4427116  35.1476889  35.1002391  39.2719751  21.8412940  44.9394603
  38.3542312  22.0627887  44.7816291  39.6879894  21.9159250  44.0806311
  40.0554799  23.2404356  40.0697283  40.8026617  23.7525753  39.7604405
  40.3246388  22.9188408  40.9301677  38.3281449  25.7362896  37.0524238
  37.4192668  25.4521929  37.1496707  38.3576532  26.1561975  36.1927545
  43.5600716  29.3469486  40.8215405  43.1063043  28.5060396  40.8780596
  42.9294683  29.9830884  41.1590185  42.5033636  20.2761472  42.0516073
  41.7656392  19.7638858  42.3826315  42.7560409  19.8361853  41.2399350
  42.0033655  31.1845982  41.7565223  42.2956630  31.7451040  41.0377589
  42.5132276  31.4774543  42.5118383  42.6045263  13.0537724  42.6457842
  42.9104140  12.1935087  42.3583757  43.3297868  13.6455344  42.4456836
  28.8969619  23.4568410  41.0339440  28.6994019  22.8637771  40.3090507
  28.3416283  23.1520621  41.7515379  36.8766343  23.3491517  43.1534033
  36.9314953  22.3965353  43.0776510  36.0657545  23.5050956  43.6375331
  38.0257536  27.2771640  34.3912316  37.5876966  26.5607499  33.9317954
  38.7667977  27.5047755  33.8297408  34.8158703  21.9668577  40.9124412
  34.0026568  22.2662747  41.3189604  35.3117697  21.5724265  41.6298894
  36.9667281  31.9626334  42.8458677  36.9243459  32.1887180  41.9167209
  37.8829979  31.7289708  42.9944478  40.4132914  22.4310401  49.7439306
  40.7682302  22.6581874  50.6033772  41.0605046  22.7628778  49.1216561
  46.1430651  25.5528837  40.4488635  46.0048550  25.7430433  39.5209824
  45.7866870  26.3148220  40.9056686  34.3072777  19.5386932  46.5285647
  34.9472157  19.3975691  45.8308610  33.4750308  19.2521445  46.1524249
  46.1700031  27.6205364  45.4599906  46.6036538  27.5280653  46.3082960
  46.8831612  27.5962864  44.8219922  35.0833081  28.8389363  42.6420639
  35.8773680  28.3439683  42.4403214  34.3724774  28.3107226  42.2788345
  39.9027926  31.2207458  46.9933007  39.9564948  31.7898394  47.7610723
  39.0342707  31.3909343  46.6287044  31.3915845  22.9832444  38.7180392
  30.4613433  22.9216900  38.9350354  31.4873317  22.4608397  37.9217033
  31.3101394  19.5087257  41.3058634  31.5708211  20.4232590  41.1967794
  32.1318566  19.0411700  41.4555247  32.7826319  20.9225014  48.4757458
  33.4549373  20.7142376  47.8270107  31.9556106  20.7247100  48.0362691
  47.0315580  27.6629065  47.9932792  47.2251471  28.5674875  48.2392067
  46.9316199  27.2036484  48.8271377  38.6851891  17.5486955  50.4923119
  38.0379806  18.2476905  50.3987596  39.4552907  17.9823099  50.8599367
  42.0930689  27.8135807  53.5673672  41.9416196  27.5846359  52.6503756
  42.0835369  28.7706409  53.5805017  38.8616026  25.3867720  48.5519939
  39.7908086  25.5378880  48.3788906  38.4407056  25.4751741  47.6968585
  37.6604357  29.4118385  46.3218476  37.5215443  29.0437169  47.1944415
  36.8718954  29.9266024  46.1502434  38.2552509  34.5127481  37.6644013
  38.4304265  34.0415524  38.4789636  37.5685297  35.1393247  37.8925274
  39.2109572  28.7899987  43.7107314  38.8759405  28.7500757  44.6064964
  38.7113518  28.1244703  43.2377724  33.1853816  24.1967617  49.2359895
  33.0473614  23.4647856  49.8371434  34.0958740  24.1076517  48.9544083
  42.1468764  26.1356022  33.9844374  41.5297935  25.4102850  33.8877427
  41.6785253  26.8965382  33.6411448  35.8136117  23.9087577  48.7243575
  36.5235736  23.2680769  48.6830193  35.7705425  24.1600471  49.6469756
  43.8022896  30.8454930  51.6450154  43.7435442  30.1614150  50.9780737
  44.2042414  31.5873920  51.1930780  34.5265051  20.8952794  50.5439215
  33.9902408  20.4443533  51.1960811  33.9381760  21.0298703  49.8009679
  32.8213595  37.6616844  44.4383873  33.0610193  38.2935368  45.1162892
  31.9782791  37.3104884  44.7249232  33.9367310  20.3541446  33.1065678
  33.0596776  20.2330247  32.7427925  34.4125063  19.5627524  32.8544567
  43.8040303  28.8094514  49.8764134  42.9167082  28.4720436  49.9990533
  44.3738854  28.0777545  50.1132899  25.4569450  25.1418606  43.2007185
  26.1440490  24.8280336  42.6128201  25.3017579  26.0459970  42.9274437
  30.2604172  20.0308802  47.6292209  30.1762361  19.4234472  46.8942619
  29.4386879  20.5217820  47.6301705  37.3341456  33.4695966  46.8425377
  37.2611628  34.2750938  47.3544682  36.8918850  33.6687932  46.0173399
  37.1231236  32.7067736  40.3528199  36.3398758  33.2489416  40.4466423
  37.8223981  33.2241716  40.7522440  40.4327886  18.5162366  42.9962404
  40.9296586  17.7632328  42.6763474  39.6614868  18.5526682  42.4305613
  48.2857644  24.2202731  44.6380696  48.2747520  25.1027447  44.2674629
  47.4175023  23.8674282  44.4435233  39.7940140  33.3682800  48.9983536
  40.5068112  34.0030265  48.9259437  39.3030169  33.4646666  48.1823538
  41.5157667  27.2734053  40.5700827  40.5813946  27.3935515  40.4005532
  41.6934335  26.3706520  40.3060837  37.0162855  20.6579749  42.7234089
  36.6460642  20.1050789  43.4114994  37.5121947  20.0537882  42.1709089
  44.9030218  23.1151372  41.1050862  45.3690670  23.9479364  41.0311164
  45.3537719  22.6496354  41.8096120  34.8452053  31.1177244  49.8189107
  35.5461513  31.7513727  49.9718501  34.3747168  31.4591975  49.0584746
  42.9706449  29.4595193  38.1037014  43.2466293  29.3451788  39.0130888
  42.1010948  29.0612678  38.0649187  42.8746881  15.4831959  45.1441763
  41.9609961  15.7136186  45.3123970  43.3039982  15.5670403  45.9955795
  42.6453339  23.6721851  47.6441657  41.9924790  23.9197759  46.9894110
  43.0233719  22.8585989  47.3104134  39.6060513  33.7081544  41.7469827
  39.7882908  32.8903200  42.2097580  40.4293499  33.9249237  41.3094717
  39.9402679  32.6349729  39.0084876  40.4690445  32.1242184  38.3955038
  40.2030898  32.3192260  39.8730409  38.6940912  24.4141662  54.1307694
  38.0181549  24.3135792  54.8010069  39.5168546  24.2580876  54.5943691
  30.4419772  30.6513599  46.7520209  31.0273208  29.9057287  46.8848114
  30.2444610  30.9617555  47.6356873  33.2958427  33.6864846  41.7682652
  32.6268802  34.1710974  41.2846692  33.1571296  33.9334067  42.6826030
  25.0337426  23.2219199  45.4724652  25.0721526  22.6882790  46.2661771
  24.5277719  22.6954404  44.8535630  37.4363695  35.7208590  48.3665310
  37.9882003  35.8840211  49.1314395  37.7769889  36.3113027  47.6945335
  32.4128189  18.0683739  48.9687195  32.4769515  18.9298570  48.5564592
  32.3495309  17.4557741  48.2359553  31.8880461  20.1406872  52.6160229
  32.5152500  19.7583949  53.2297753  31.0308380  19.9221074  52.9815922
  42.2874570  30.5469847  54.2213964  42.8314474  31.1599805  53.7268919
  41.7061415  31.1049426  54.7380977  28.6646004  21.9483301  38.5478584
  28.9599445  21.0393980  38.4945638  27.7634040  21.9271041  38.2259586
  40.5732083  33.6690565  45.3528992  40.4483222  32.8680305  44.8439938
  41.2311174  34.1636759  44.8642962  32.1940251  20.0239298  44.5306132
  31.4726837  20.6375265  44.3913606  32.9833507  20.5597062  44.4522778
  42.6366991  31.4699585  46.9808542  41.6897327  31.3504936  46.9086869
  42.9849764  30.5822083  47.0634804  34.9966564  17.3593724  50.8046784
  35.5200966  17.6056021  51.5673093  34.7778898  18.1913759  50.3849922
  30.3933845  19.6297399  38.6717909  30.0646552  18.7494778  38.4893015
  30.7473216  19.5745067  39.5594298  39.6413424  31.2652301  43.1812895
  39.4938387  30.3369009  43.3620465  40.4666918  31.2872392  42.6969970
  33.5075669  19.9170369  39.0393387  33.8471741  20.4456290  38.3171995
  33.9547789  20.2550775  39.8151953  43.2447546  32.0880860  44.2677767
  44.1694094  31.8823722  44.1302218  43.0762850  31.8397261  45.1767109
  36.2019109  18.3007419  48.4896455  35.8615930  17.5015232  48.8917135
  35.4958116  18.6009130  47.9173288  36.8535581  15.3856732  46.9423778
  37.6761651  14.9117210  46.8202668  37.0973645  16.1647215  47.4422464
  35.4943816  18.4144990  37.2386679  36.2152178  18.7926243  36.7350396
  34.8709120  19.1333867  37.3421657  39.6374939  19.1190139  38.1745012
  39.8538553  20.0014777  37.8733840  39.1569006  18.7276353  37.4450654
  34.3774160  22.0775852  44.7515756  34.2318741  22.3916155  45.6440038
  33.8999364  22.6960753  44.1986655  36.2370543  19.0678400  44.7996646
  36.2232112  18.1719494  44.4628944  36.9542971  19.0749064  45.4334932
  38.0896674  19.5015741  46.8449773  37.8314451  20.4232811  46.8434104
  37.5581714  19.1046175  47.5350237  43.0342862  32.6066528  39.6239859
  43.2079740  32.0412950  38.8713711  43.5271754  33.4067423  39.4419349
  28.8519822  24.6181197  47.6903418  28.3073290  25.3941005  47.8223692
  29.7299172  24.9652001  47.5322539  35.6407439  17.9492781  40.0684216
  35.7623350  17.0209427  40.2675104  35.3509481  17.9631467  39.1562531
  38.5098629  15.6347691  43.2050936  38.5320326  15.6987024  42.2502915
  38.9266688  14.7952200  43.3991442  48.8882254  25.3702951  41.2430158
  49.3313400  24.6210276  40.8449282  48.0108764  25.3613087  40.8603890
  44.0218035  31.9233292  36.7236757  44.7168939  32.5439985  36.9424072
  44.3641185  31.0728643  36.9989135  29.6385844  23.7451093  50.5833574
  28.8967580  23.8933728  51.1698205  29.3178588  24.0059359  49.7200324
  45.9209458  29.3732998  38.2524088  46.4460782  29.7120270  37.5273408
  45.8331811  28.4380013  38.0687222  37.5829507  33.2867071  50.3813964
  37.8916633  33.0416218  51.2536664  38.3804989  33.4913710  49.8932835
  37.6050119  35.4404981  42.6119341  37.1655109  34.9481360  43.3052198
  38.3558236  34.8977949  42.3711416  30.0842458  31.6316522  42.6143969
  30.9100478  31.3320294  42.2342613  29.7336510  30.8624144  43.0633758
  35.0523991  30.9842990  44.6841643  34.4304000  30.3213695  44.3843870
  35.7228858  31.0104122  44.0015290  28.2851063  29.5502848  43.5732903
  27.4482971  29.1225023  43.3916904  28.2574708  29.7435292  44.5103694
  35.1248518  19.4624778  54.2774149  35.1736674  20.3386901  53.8951918
  35.6671033  18.9202171  53.7045792  45.6103364  30.0065901  53.5575286
  44.8198908  29.9890040  53.0179785  45.3736719  30.5454195  54.3124322
  45.7301239  26.8558368  50.8708014  45.7799244  26.6908375  51.8123537
  45.6215162  25.9885627  50.4805895  34.6137498  29.5346913  38.1600103
  34.7625618  30.2182378  37.5066776  35.4203941  29.5152003  38.6749559
  43.0205001  22.8389296  52.1867321  43.9214864  22.6995760  51.8951319
  43.0952976  23.0043750  53.1265498  37.3547807  20.2156150  51.0320507
  36.4851116  20.5089716  50.7603096  37.5907287  20.7996595  51.7527771
  47.2319436  29.2755309  51.1150036  46.9404244  29.6385290  51.9513497
  46.6191567  28.5622317  50.9363368  48.4315118  26.8408189  43.6352606
  49.2662010  27.2797993  43.7990166  48.5674247  26.3646842  42.8160852
  45.4806624  24.3987924  49.5830094  45.9560746  24.5915570  48.7748945
  44.5572190  24.4547110  49.3373477  32.3690131  25.5612091  39.1661172
  32.1236173  24.6574421  39.3641382  32.5386045  25.5629241  38.2240650
  40.0586841  16.4335767  48.5485928  40.5768785  17.1696794  48.2232416
  39.7041973  16.7399761  49.3832687  31.6385778  21.2940449  36.6647334
  30.9455023  21.3684803  36.0087370  31.3937530  20.5300792  37.1868850
  40.3099435  12.8536050  44.0686824  40.5901189  12.1859239  44.6947251
  41.0950042  13.0465145  43.5561488  38.1132903  32.0295044  35.6311851
  37.5406870  32.6485231  35.1782322  38.6865697  32.5794405  36.1651773
  44.1808293  21.2753684  47.8158399  45.1325716  21.3751781  47.8370623
  44.0111744  20.4831952  48.3256484  42.2022673  18.3609267  48.0017800
  41.6072605  18.6414280  47.3064289  41.9172369  18.8503168  48.7734541
  41.3330163  32.3132194  36.7620433  42.2660836  32.2477756  36.9653308
  41.2453376  33.1488461  36.3034966  43.9618180  31.6298064  33.7224380
  43.8831811  31.2957928  34.6160138  44.7827847  32.1219832  33.7215853
  46.6596371  24.4959804  46.9300699  46.6272691  23.5575804  47.1160383
  47.2696995  24.5743840  46.1966524  38.4979702  23.3655857  32.9727903
  39.4438807  23.2362065  33.0416321  38.1193947  22.6270518  33.4497331
  46.8090859  21.2870847  46.9758982  46.2929908  20.5029304  46.7888911
  47.6930808  20.9589564  47.1405502  44.4701586  15.0311863  42.9354795
  44.2726407  14.7226951  43.8198127  45.0801292  15.7573501  43.0652725
  52.4772921  25.5575810  46.0706736  53.2076309  25.2961098  46.6314439
  51.8679866  24.8204532  46.1108804  50.5588218  23.6983673  46.6681187
  49.8321381  23.5639638  46.0597679  50.1435505  24.0060502  47.4737905
  38.3818394  27.4173603  54.4328560  39.3021404  27.5952202  54.6268607
  38.3467977  26.4729648  54.2808259  36.6822619  21.2905833  32.9082788
  35.7754074  20.9938946  32.9845502  36.9598600  20.9935651  32.0417075
  27.6000559  22.6112196  43.3581835  27.2803344  21.7577504  43.0656209
  27.0533988  22.8260774  44.1139802  31.3780467  25.3274637  47.0751341
  31.5966477  26.2591745  47.0939375  31.7906241  24.9682612  47.8606145
  38.2984685  15.8342723  39.0627030  37.4885413  15.4889808  39.4382276
  38.9869102  15.5250266  39.6514641  40.2275233  14.9120769  40.6851326
  40.7806272  15.3316223  41.3441349  40.4645319  13.9856518  40.7274282
  36.2508332  20.9007843  56.4654090  36.1505059  21.8502200  56.3966181
  36.0329874  20.5726082  55.5930160  35.4521404  18.1492768  33.0494768
  36.3140568  18.4747666  33.3090585  35.6371748  17.3624264  32.5367833
  27.4688819  26.2315108  45.3274956  26.7752291  25.8169061  44.8144911
  28.2161810  26.2735644  44.7308375  43.6054040  17.0221295  40.1929991
  43.0252709  17.6806099  39.8108043  43.3389973  16.1998639  39.7817408
  42.0557606  16.4226352  42.3951311  42.5557385  16.5342887  41.5865630
  42.6993214  16.1187405  43.0352119  36.1139602  24.3304982  55.2819152
  35.6306684  25.1305342  55.4883041  36.2000541  24.3412927  54.3286596
  29.3825562  26.1633362  43.2040971  29.3596250  26.2621049  42.2522854
  29.6926198  27.0098512  43.5258137  32.0412940  28.2209517  47.3187586
  32.9956193  28.1893459  47.2517517  31.8425463  27.7600140  48.1337812
  32.6312322  26.7910633  49.8858383  33.4505211  27.2854711  49.9093221
  32.9049130  25.8742601  49.8575951  42.3878918  19.1821385  39.2486339
  41.5004773  19.4671036  39.0306534  42.8032907  19.0215148  38.4013616
  45.7393454  19.2067906  42.9640678  46.5153844  19.6964358  43.2365295
  45.0141588  19.6325960  43.4212548  48.1766013  19.9195525  44.0214619
  48.7710504  19.6791261  43.3107927  48.2492597  19.2002656  44.6488155
  30.3963169  33.7629136  44.3357783  30.2617636  33.0029537  43.7695782
  29.9795231  34.4870036  43.8686572  41.5322132  28.9466060  33.3434359
  42.2357982  29.1516062  33.9592014  40.8084780  29.5142822  33.6083442
  42.3619942  24.6975921  39.4636629  42.3055143  25.1544472  38.6244261
  42.9148284  23.9366605  39.2859472  46.1724748  20.4865653  40.2886748
  45.9161682  20.0862288  41.1194956  45.5477616  21.2009447  40.1636888
  50.4837086  23.2261726  42.7958040  49.9236644  23.2954915  43.5689602
  49.8780589  23.0502711  42.0757536  33.5532294  34.6598453  44.5476226
  33.4364679  35.6043886  44.4454916  32.7324741  34.3572015  44.9362025
  43.4408829  29.3848589  35.3932819  44.2754433  28.9529787  35.2110294
  43.2793172  29.2130603  36.3209713  43.0954721  25.8880702  36.7589158
  43.0403525  25.7224974  35.8177602  42.4700776  26.5956735  36.9151348
  27.8847236  21.1248767  50.5850580  28.5306100  20.6147720  51.0737805
  27.6764387  21.8617448  51.1594006  40.4100628  28.1929614  56.0842721
  41.2791788  28.3670266  55.7229356  39.9307380  29.0124031  55.9618450
  36.4050847  15.3888811  36.3374477  36.3929516  16.3330651  36.4942747
  37.2974268  15.2058957  36.0433938  34.5786809  35.3126715  47.7632155
  35.4814055  35.3450325  48.0798649  34.3524179  34.3827166  47.7778490
  36.3340411  34.0657702  44.4242233  35.3836042  34.0659563  44.3106605
  36.6372897  33.3190436  43.9078268  40.2202966  11.9831588  40.5920413
  39.4535362  11.4290074  40.7377096  40.6313671  12.0553457  41.4534565
  32.2244727  18.2716384  54.6825595  33.0876189  17.9153188  54.8928919
  31.6510138  17.9330278  55.3700999  52.0693104  39.9018240  45.4887996
  52.7071514  39.7824987  44.7851336  51.9513947  40.8499084  45.5475948
  48.8782810  39.8545668  45.4249520  48.5401322  39.7386733  44.5370055
  49.7472579  39.4536833  45.4050526  44.7369626  41.7081144  41.4146411
  44.1734491  41.6171081  40.6462699  44.6222021  40.8881049  41.8948904
  49.3602593  41.0080520  51.3835726  49.3491234  40.6133318  50.5116229
  49.5223233  40.2746592  51.9769497  42.2834058  43.2032336  44.2530632
  43.0755350  42.8623161  43.8376931  42.5230708  43.3127311  45.1732785
  50.3169185  45.3752112  36.7260876  49.6657164  45.9606193  36.3394890
  51.1113548  45.9058307  36.7855914  44.2424812  42.4641249  37.1248010
  45.0155688  41.9170236  36.9860886  44.5950211  43.3285499  37.3362472
  46.0809854  43.7917632  50.3314910  45.7899720  44.6963262  50.2161576
  46.7166839  43.8334159  51.0458979  47.0066061  41.1694480  46.9216269
  47.6029634  40.9450502  46.2073232  47.0641033  40.4279226  47.5241717
  46.5791090  38.6233915  34.7566460  46.8316610  38.1015437  33.9949923
  45.6415649  38.4600061  34.8593144  51.6234373  37.6269694  42.5641204
  52.4097462  37.2089117  42.2131621  51.8873077  38.5315786  42.7322852
  51.7944450  43.0642544  37.2629860  51.1590283  43.1377171  37.9750765
  51.4641856  43.6536143  36.5848940  57.0242800  37.5644927  43.4674182
  57.7567972  36.9944144  43.7012012  56.2682155  37.1766527  43.9080688
  46.2987378  40.5262021  36.9590835  46.1823637  39.8506925  37.6271920
  46.4089638  40.0394395  36.1422988  48.6418919  39.9872168  40.6637525
  48.2777127  39.4602789  41.3750446  49.4986035  39.5970638  40.4904010
  54.5468220  31.2766501  47.9268791  54.2151545  32.1461912  47.7030006
  53.9513833  30.9602785  48.6062821  48.2824406  35.0162068  35.6598873
  48.4498809  35.8842305  36.0269344  48.0921575  35.1789350  34.7360162
  51.0399740  43.4779047  47.3264703  50.7400463  44.3804086  47.2180511
  50.6950799  43.2111230  48.1785856  44.4912221  39.9292844  43.3601408
  43.5662717  39.7969058  43.5679100  44.7396634  40.7087063  43.8571350
  54.4396883  35.9961587  45.0062141  53.5313761  35.9276996  44.7120902
  54.3884479  36.4733532  45.8343966  48.2613627  37.4719726  36.6445540
  48.1413252  37.9176776  37.4831020  47.5666216  37.8205043  36.0859078
  41.8521032  39.5726117  44.1945197  41.9813413  39.8260596  45.1084609
  41.1718483  40.1653825  43.8749852  46.0220519  50.2423367  40.2935671
  45.9444549  51.1931193  40.3724152  45.4182163  49.8969240  40.9510597
  48.5137749  37.4151233  52.9497038  47.7371083  37.9745153  52.9399903
  49.1528312  37.9008016  53.4711908  56.3058530  34.1978026  46.7840015
  55.6632910  34.4910559  46.1379809  55.8013458  34.0830946  47.5893211
  53.9598693  37.9441199  37.4725874  54.8716549  38.1768586  37.2973571
  53.4508340  38.5278243  36.9100953  46.7684121  40.2236686  52.5115005
  47.5098806  40.7621730  52.2349829  46.0621107  40.8502975  52.6686557
  52.2439461  42.3665827  51.1087167  52.6522817  41.9248237  50.3641799
  51.5216723  41.7918454  51.3621359  48.5970531  37.3038433  48.4820723
  49.4431726  37.7277847  48.6255372  48.5369169  36.6472058  49.1759287
  52.5668276  42.9267017  44.8639455  51.9377138  43.0912731  44.1615523
  52.1793938  43.3408627  45.6350419  56.4457508  43.8621455  42.2183819
  55.7608546  44.2420357  41.6680852  56.5301357  44.4716782  42.9515767
  51.7469976  34.9642802  50.1401897  51.5030908  35.7184862  49.6036173
  52.0229907  35.3428149  50.9749144  53.7008439  41.5081414  48.8179163
  53.9125334  42.1513174  48.1413544  53.6538187  40.6743731  48.3501093
  51.3034668  34.1199235  45.7215735  50.4419147  34.4180488  46.0132472
  51.3297103  34.3369634  44.7896767  48.1196238  42.6641425  42.1289541
  48.5834583  42.9429128  41.3394163  47.8553036  41.7624870  41.9462631
  45.0120319  42.2112907  45.0669304  45.5821676  42.6400175  44.4286788
  45.6028430  41.9295492  45.7653489  47.0565124  38.7864578  38.9379106
  47.7589167  39.2385621  39.4053032  46.7245752  38.1448397  39.5658999
  45.5045485  37.3776334  53.3130315  44.8744146  38.0592615  53.5465712
  45.3981573  37.2659416  52.3683453  40.7990458  37.0448130  44.2396239
  40.0089512  37.3005659  43.7636350  41.2901705  37.8596468  44.3448280
  54.8154267  44.3853370  46.9901520  55.6371711  43.9833557  46.7084202
  54.8116670  44.2821604  47.9417636  42.7505203  37.4092710  41.1979716
  41.9536366  37.5211404  41.7163212  42.5230795  37.7479362  40.3320606
  48.5810871  43.9337413  49.1462231  48.6455303  44.3957820  49.9820402
  47.8721794  43.3034778  49.2744540  39.0828161  37.2978621  46.6711230
  39.3336199  38.1825631  46.9368806  39.6187709  37.1183222  45.8986322
  62.9060260  40.7292118  43.3386492  62.1523969  40.1599516  43.1830496
  63.0407801  40.6954783  44.2857126  48.2958888  45.6005520  39.0141211
  48.1604563  46.4457056  39.4426059  48.8368701  45.8024798  38.2507145
  44.7826228  31.6797100  55.6755566  44.3893173  31.1263299  56.3503210
  45.5992368  31.9907679  56.0662084  41.7488286  43.1180958  39.5869136
  42.2612806  43.9124209  39.7374701  42.4010998  42.4207249  39.5202737
  43.5583170  46.2346715  41.6691889  43.7349799  47.1564679  41.4812873
  44.3540004  45.9205134  42.0986269  47.6994189  33.0954979  53.2675823
  48.4403902  33.6962132  53.1880285  47.9312112  32.3532617  52.7093865
  42.8435527  38.2811347  51.5454052  42.7289042  37.3796604  51.8461151
  41.9880045  38.5275043  51.1938869  49.9227365  46.2229087  53.1441553
  49.4791219  45.4365465  52.8262457  50.5844578  46.4108237  52.4785444
  44.6814486  47.7524888  47.6702231  45.2321911  47.6241952  46.8979225
  43.8425962  48.0519778  47.3197124  52.0208603  46.5031887  51.1722954
  52.0027078  47.3240768  50.6803223  52.9428523  46.3785962  51.3973095
  48.4781657  44.0176016  52.0146463  49.0109994  43.2564304  51.7845771
  47.9495738  43.7249668  52.7570617  51.6451352  29.1236082  47.5440104
  51.3015621  30.0137724  47.4679215  52.0130314  28.9337740  46.6809689
  39.7137202  41.4469613  40.3628706  40.5512424  41.8566621  40.1462414
  39.8915470  40.5069055  40.3328900  51.6101635  39.1144693  36.0512539
  51.0948258  39.8849298  36.2900927  51.3378943  38.4409830  36.6745601
  49.1948746  33.9594394  41.1097778  48.3390342  33.5701245  40.9303417
  49.6075697  34.0386355  40.2497563  50.7247892  31.4940737  45.5089338
  50.2212688  31.4570873  44.6957143  51.0178499  32.4033480  45.5685994
  46.9690778  31.5779467  44.5155519  47.8343775  31.3822276  44.1561409
  47.0368287  31.3489819  45.4424876  56.5835909  41.8677048  37.9865713
  55.8065351  41.5288208  37.5420875  57.2627390  41.8729671  37.3120678
  51.3987938  36.9871785  37.8772321  51.0938073  37.3017935  38.7282464
  52.3518380  37.0653205  37.9199654  49.8434370  43.1462009  39.5265275
  49.3155731  42.4114768  39.2138512  49.3421872  43.9236685  39.2805243
  54.8227216  41.3411029  44.6432321  54.1650890  42.0310291  44.7312450
  55.6267615  41.7307461  44.9866307  44.5753097  33.8081675  41.8871886
  45.1496849  33.5856857  41.1545079  45.1624080  33.8770370  42.6400487
  53.6332674  39.6955402  42.6936263  54.1464556  40.3285394  43.1957972
  54.2833898  39.0956597  42.3279623  44.9022684  35.8386136  35.9067771
  44.0659997  36.1760823  36.2277046  44.7627454  35.7035116  34.9694908
  46.8775765  30.6822924  40.6146956  46.2240177  30.3671941  39.9903570
  46.8356239  30.0598664  41.3406778  47.9886970  40.9642219  32.5300248
  47.0814031  40.7331472  32.7291397  48.4858002  40.1679838  32.7174229
  50.8955049  49.6739726  35.4496934  50.2216747  49.9771423  36.0581892
  51.2820871  50.4768807  35.1002391  50.1113505  37.1704858  44.9394603
  49.1936067  37.3919805  44.7816291  50.5273649  37.2451168  44.0806311
  50.8948553  38.5696273  40.0697283  51.6420372  39.0817670  39.7604405
  51.1640143  38.2480326  40.9301677  49.1675203  41.0654814  37.0524238
  48.2586422  40.7813847  37.1496707  49.1970287  41.4853892  36.1927545
  54.3994471  44.6761403  40.8215405  53.9456798  43.8352313  40.8780596
  53.7688437  45.3122802  41.1590185  53.3427390  35.6053389  42.0516073
  52.6050147  35.0930776  42.3826315  53.5954164  35.1653771  41.2399350
  52.8427410  46.5137900  41.7565223  53.1350384  47.0742957  41.0377589
  53.3526030  46.8066461  42.5118383  53.4439017  28.3829641  42.6457842
  53.7497894  27.5227005  42.3583757  54.1691622  28.9747262  42.4456836
  39.7363374  38.7860328  41.0339440  39.5387773  38.1929689  40.3090507
  39.1810038  38.4812538  41.7515379  47.7160097  38.6783435  43.1534033
  47.7708707  37.7257271  43.0776510  46.9051299  38.8342874  43.6375331
  48.8651291  42.6063558  34.3912316  48.4270721  41.8899417  33.9317954
  49.6061732  42.8339672  33.8297408  45.6552457  37.2960494  40.9124412
  44.8420323  37.5954665  41.3189604  46.1511451  36.9016183  41.6298894
  47.8061035  47.2918251  42.8458677  47.7637214  47.5179097  41.9167209
  48.7223734  47.0581626  42.9944478  51.2526669  37.7602319  49.7439306
  51.6076057  37.9873792  50.6033772  51.8998800  38.0920696  49.1216561
  56.9824406  40.8820755  40.4488635  56.8442304  41.0722351  39.5209824
  56.6260625  41.6440137  40.9056686  45.1466532  34.8678850  46.5285647
  45.7865911  34.7267609  45.8308610  44.3144062  34.5813363  46.1524249
  57.0093785  42.9497282  45.4599906  57.4430292  42.8572571  46.3082960
  57.7225366  42.9254782  44.8219922  45.9226836  44.1681280  42.6420639
  46.7167434  43.6731600  42.4403214  45.2118528  43.6399143  42.2788345
  50.7421680  46.5499376  46.9933007  50.7958703  47.1190312  47.7610723
  49.8736462  46.7201261  46.6287044  42.2309599  38.3124362  38.7180392
  41.3007187  38.2508817  38.9350354  42.3267071  37.7900315  37.9217033
  42.1495148  34.8379175  41.3058634  42.4101966  35.7524508  41.1967794
  42.9712321  34.3703617  41.4555247  43.6220074  36.2516932  48.4757458
  44.2943127  36.0434294  47.8270107  42.7949860  36.0539018  48.0362691
  57.8709335  42.9920982  47.9932792  58.0645225  43.8966793  48.2392067
  57.7709953  42.5328401  48.8271377  49.5245646  32.8778873  50.4923119
  48.8773561  33.5768823  50.3987596  50.2946661  33.3115017  50.8599367
  52.9324444  43.1427725  53.5673672  52.7809950  42.9138277  52.6503756
  52.9229123  44.0998326  53.5805017  49.7009780  40.7159638  48.5519939
  50.6301840  40.8670797  48.3788906  49.2800810  40.8043659  47.6968585
  48.4998112  44.7410302  46.3218476  48.3609197  44.3729087  47.1944415
  47.7112708  45.2557942  46.1502434  49.0946264  49.8419399  37.6644013
  49.2698019  49.3707442  38.4789636  48.4079052  50.4685165  37.8925274
  50.0503327  44.1191905  43.7107314  49.7153160  44.0792675  44.6064964
  49.5507273  43.4536621  43.2377724  44.0247571  39.5259535  49.2359895
  43.8867369  38.7939774  49.8371434  44.9352494  39.4368435  48.9544083
  52.9862519  41.4647939  33.9844374  52.3691689  40.7394767  33.8877427
  52.5179007  42.2257300  33.6411448  46.6529872  39.2379494  48.7243575
  47.3629490  38.5972686  48.6830193  46.6099180  39.4892389  49.6469756
  54.6416650  46.1746848  51.6450154  54.5829196  45.4906068  50.9780737
  55.0436169  46.9165838  51.1930780  45.3658806  36.2244712  50.5439215
  44.8296163  35.7735451  51.1960811  44.7775514  36.3590621  49.8009679
  43.6607349  52.9908761  44.4383873  43.9003947  53.6227286  45.1162892
  42.8176546  52.6396801  44.7249232  44.7761065  35.6833364  33.1065678
  43.8990531  35.5622164  32.7427925  45.2518818  34.8919442  32.8544567
  54.6434058  44.1386432  49.8764134  53.7560836  43.8012353  49.9990533
  55.2132609  43.4069463  50.1132899  36.2963205  40.4710523  43.2007185
  36.9834244  40.1572253  42.6128201  36.1411333  41.3751888  42.9274437
  41.0997927  35.3600720  47.6292209  41.0156116  34.7526389  46.8942619
  40.2780633  35.8509738  47.6301705  48.1735211  48.7987884  46.8425377
  48.1005382  49.6042855  47.3544682  47.7312604  48.9979850  46.0173399
  47.9624991  48.0359654  40.3528199  47.1792512  48.5781334  40.4466423
  48.6617736  48.5533634  40.7522440  51.2721641  33.8454283  42.9962404
  51.7690340  33.0924246  42.6763474  50.5008622  33.8818600  42.4305613
  59.1251398  39.5494649  44.6380696  59.1141274  40.4319364  44.2674629
  58.2568777  39.1966200  44.4435233  50.6333894  48.6974718  48.9983536
  51.3461867  49.3322183  48.9259437  50.1423923  48.7938584  48.1823538
  52.3551421  42.6025971  40.5700827  51.4207700  42.7227433  40.4005532
  52.5328090  41.6998437  40.3060837  47.8556609  35.9871666  42.7234089
  47.4854397  35.4342707  43.4114994  48.3515702  35.3829800  42.1709089
  55.7423973  38.4443290  41.1050862  56.2084425  39.2771281  41.0311164
  56.1931473  37.9788271  41.8096120  45.6845808  46.4469161  49.8189107
  46.3855267  47.0805644  49.9718501  45.2140923  46.7883893  49.0584746
  53.8100204  44.7887111  38.1037014  54.0860048  44.6743706  39.0130888
  52.9404703  44.3904596  38.0649187  53.7140635  30.8123877  45.1441763
  52.8003715  31.0428104  45.3123970  54.1433737  30.8962321  45.9955795
  53.4847094  39.0013769  47.6441657  52.8318544  39.2489676  46.9894110
  53.8627474  38.1877907  47.3104134  50.4454268  49.0373462  41.7469827
  50.6276662  48.2195118  42.2097580  51.2687254  49.2541154  41.3094717
  50.7796433  47.9641647  39.0084876  51.3084200  47.4534102  38.3955038
  51.0424653  47.6484177  39.8730409  49.5334667  39.7433580  54.1307694
  48.8575304  39.6427709  54.8010069  50.3562301  39.5872794  54.5943691
  41.2813526  45.9805516  46.7520209  41.8666963  45.2349204  46.8848114
  41.0838364  46.2909473  47.6356873  44.1352181  49.0156764  41.7682652
  43.4662557  49.5002891  41.2846692  43.9965051  49.2625984  42.6826030
  35.8731181  38.5511117  45.4724652  35.9115280  38.0174707  46.2661771
  35.3671474  38.0246322  44.8535630  48.2757450  51.0500507  48.3665310
  48.8275758  51.2132129  49.1314395  48.6163643  51.6404945  47.6945335
  43.2521943  33.3975657  48.9687195  43.3163270  34.2590488  48.5564592
  43.1889063  32.7849659  48.2359553  42.7274216  35.4698790  52.6160229
  43.3546254  35.0875867  53.2297753  41.8702134  35.2512992  52.9815922
  53.1268324  45.8761765  54.2213964  53.6708228  46.4891723  53.7268919
  52.5455169  46.4341343  54.7380977  39.5039758  37.2775219  38.5478584
  39.7993199  36.3685897  38.4945638  38.6027794  37.2562958  38.2259586
  51.4125837  48.9982483  45.3528992  51.2876977  48.1972223  44.8439938
  52.0704928  49.4928676  44.8642962  43.0334005  35.3531215  44.5306132
  42.3120591  35.9667183  44.3913606  43.8227261  35.8888980  44.4522778
  53.4760745  46.7991503  46.9808542  52.5291081  46.6796854  46.9086869
  53.8243519  45.9114001  47.0634804  45.8360319  32.6885642  50.8046784
  46.3594721  32.9347938  51.5673093  45.6172652  33.5205677  50.3849922
  41.2327600  34.9589316  38.6717909  40.9040306  34.0786695  38.4893015
  41.5866971  34.9036985  39.5594298  50.4807179  46.5944219  43.1812895
  50.3332141  45.6660927  43.3620465  51.3060672  46.6164310  42.6969970
  44.3469423  35.2462286  39.0393387  44.6865496  35.7748207  38.3171995
  44.7941544  35.5842692  39.8151953  54.0841301  47.4172778  44.2677767
  55.0087848  47.2115639  44.1302218  53.9156604  47.1689179  45.1767109
  47.0412864  33.6299337  48.4896455  46.7009684  32.8307150  48.8917135
  46.3351870  33.9301048  47.9173288  47.6929336  30.7148649  46.9423778
  48.5155405  30.2409128  46.8202668  47.9367399  31.4939133  47.4422464
  46.3337570  33.7436908  37.2386679  47.0545933  34.1218161  36.7350396
  45.7102874  34.4625785  37.3421657  50.4768693  34.4482057  38.1745012
  50.6932307  35.3306695  37.8733840  49.9962760  34.0568270  37.4450654
  45.2167914  37.4067770  44.7515756  45.0712495  37.7208073  45.6440038
  44.7393118  38.0252670  44.1986655  47.0764297  34.3970318  44.7996646
  47.0625866  33.5011411  44.4628944  47.7936725  34.4040982  45.4334932
  48.9290428  34.8307658  46.8449773  48.6708206  35.7524729  46.8434104
  48.3975468  34.4338093  47.5350237  53.8736617  47.9358445  39.6239859
  54.0473494  47.3704868  38.8713711  54.3665508  48.7359340  39.4419349
  39.6913577  39.9473114  47.6903418  39.1467045  40.7232922  47.8223692
  40.5692927  40.2943919  47.5322539  46.4801193  33.2784698  40.0684216
  46.6017105  32.3501344  40.2675104  46.1903236  33.2923384  39.1562531
  49.3492384  30.9639609  43.2050936  49.3714081  31.0278942  42.2502915
  49.7660443  30.1244117  43.3991442  59.7276008  40.6994868  41.2430158
  60.1707154  39.9502193  40.8449282  58.8502518  40.6905005  40.8603890
  54.8611789  47.2525210  36.7236757  55.5562694  47.8731902  36.9424072
  55.2034939  46.4020561  36.9989135  40.4779599  39.0743011  50.5833574
  39.7361335  39.2225646  51.1698205  40.1572343  39.3351276  49.7200324
  56.7603212  44.7024915  38.2524088  57.2854537  45.0412188  37.5273408
  56.6725565  43.7671931  38.0687222  48.4223261  48.6158989  50.3813964
  48.7310388  48.3708136  51.2536664  49.2198743  48.8205627  49.8932835
  48.4443873  50.7696899  42.6119341  48.0048863  50.2773277  43.3052198
  49.1951990  50.2269866  42.3711416  40.9236212  46.9608439  42.6143969
  41.7494232  46.6612211  42.2342613  40.5730264  46.1916062  43.0633758
  45.8917745  46.3134908  44.6841643  45.2697755  45.6505613  44.3843870
  46.5622612  46.3396040  44.0015290  39.1244817  44.8794766  43.5732903
  38.2876726  44.4516940  43.3916904  39.0968463  45.0727209  44.5103694
  45.9642273  34.7916696  54.2774149  46.0130428  35.6678818  53.8951918
  46.5064787  34.2494089  53.7045792  56.5694994  42.1850285  50.8708014
  56.6192999  42.0200293  51.8123537  56.4608917  41.3177544  50.4805895
  45.4531252  44.8638831  38.1600103  45.6019373  45.5474295  37.5066776
  46.2597696  44.8443921  38.6749559  53.8598756  38.1681213  52.1867321
  54.7608619  38.0287678  51.8951319  53.9346730  38.3335668  53.1265498
  48.1941561  35.5448068  51.0320507  47.3244871  35.8381634  50.7603096
  48.4301042  36.1288513  51.7527771  59.2708873  42.1700107  43.6352606
  60.1055764  42.6089911  43.7990166  59.4068002  41.6938760  42.8160852
  56.3200379  39.7279841  49.5830094  56.7954500  39.9207488  48.7748945
  55.3965944  39.7839027  49.3373477  43.2083885  40.8904009  39.1661172
  42.9629927  39.9866339  39.3641382  43.3779800  40.8921159  38.2240650
  50.8980595  31.7627685  48.5485928  51.4162539  32.4988712  48.2232416
  50.5435728  32.0691678  49.3832687  42.4779533  36.6232366  36.6647334
  41.7848778  36.6976721  36.0087370  42.2331285  35.8592710  37.1868850
  51.1493189  28.1827968  44.0686824  51.4294943  27.5151157  44.6947251
  51.9343796  28.3757063  43.5561488  48.9526658  47.3586961  35.6311851
  48.3800625  47.9777149  35.1782322  49.5259451  47.9086323  36.1651773
  55.0202048  36.6045602  47.8158399  55.9719471  36.7043699  47.8370623
  54.8505498  35.8123870  48.3256484  53.0416427  33.6901185  48.0017800
  52.4466359  33.9706197  47.3064289  52.7566124  34.1795086  48.7734541
  52.1723918  47.6424112  36.7620433  53.1054591  47.5769673  36.9653308
  52.0847130  48.4780378  36.3034966  54.8011934  46.9589982  33.7224380
  54.7225566  46.6249845  34.6160138  55.6221601  47.4511750  33.7215853
  57.4990125  39.8251721  46.9300699  57.4666446  38.8867722  47.1160383
  58.1090749  39.9035758  46.1966524  49.3373456  38.6947774  32.9727903
  50.2832561  38.5653982  33.0416321  48.9587701  37.9562436  33.4497331
  57.6484614  36.6162765  46.9758982  57.1323663  35.8321221  46.7888911
  58.5324562  36.2881481  47.1405502  55.3095341  30.3603780  42.9354795
  55.1120162  30.0518868  43.8198127  55.9195046  31.0865419  43.0652725
  63.3166675  40.8867728  46.0706736  64.0470064  40.6253016  46.6314439
  62.7073621  40.1496450  46.1108804  61.3981972  39.0275591  46.6681187
  60.6715136  38.8931556  46.0597679  60.9829259  39.3352419  47.4737905
  49.2212149  42.7465520  54.4328560  50.1415158  42.9244119  54.6268607
  49.1861732  41.8021566  54.2808259  47.5216373  36.6197751  32.9082788
  46.6147829  36.3230863  32.9845502  47.7992354  36.3227569  32.0417075
  38.4394314  37.9404114  43.3581835  38.1197098  37.0869422  43.0656209
  37.8927742  38.1552692  44.1139802  42.2174221  40.6566555  47.0751341
  42.4360231  41.5883663  47.0939375  42.6299995  40.2974529  47.8606145
  49.1378439  31.1634640  39.0627030  48.3279167  30.8181725  39.4382276
  49.8262856  30.8542184  39.6514641  51.0668987  30.2412687  40.6851326
  51.6200026  30.6608141  41.3441349  51.3039074  29.3148435  40.7274282
  47.0902087  36.2299761  56.4654090  46.9898814  37.1794118  56.3966181
  46.8723629  35.9018000  55.5930160  46.2915158  33.4784686  33.0494768
  47.1534322  33.8039584  33.3090585  46.4765502  32.6916182  32.5367833
  38.3082574  41.5607025  45.3274956  37.6146045  41.1460978  44.8144911
  39.0555565  41.6027562  44.7308375  54.4447795  32.3513212  40.1929991
  53.8646464  33.0098016  39.8108043  54.1783727  31.5290557  39.7817408
  52.8951361  31.7518270  42.3951311  53.3951139  31.8634804  41.5865630
  53.5386969  31.4479323  43.0352119  46.9533357  39.6596900  55.2819152
  46.4700438  40.4597260  55.4883041  47.0394296  39.6704844  54.3286596
  40.2219316  41.4925279  43.2040971  40.1990004  41.5912967  42.2522854
  40.5319953  42.3390430  43.5258137  42.8806694  43.5501434  47.3187586
  43.8349948  43.5185377  47.2517517  42.6819218  43.0892058  48.1337812
  43.4706076  42.1202550  49.8858383  44.2898965  42.6146629  49.9093221
  43.7442884  41.2034518  49.8575951  53.2272673  34.5113303  39.2486339
  52.3398528  34.7962953  39.0306534  53.6426662  34.3507066  38.4013616
  56.5787209  34.5359824  42.9640678  57.3547599  35.0256276  43.2365295
  55.8535343  34.9617878  43.4212548  59.0159767  35.2487443  44.0214619
  59.6104258  35.0083179  43.3107927  59.0886351  34.5294573  44.6488155
  41.2356923  49.0921054  44.3357783  41.1011391  48.3321455  43.7695782
  40.8188985  49.8161954  43.8686572  52.3715886  44.2757977  33.3434359
  53.0751736  44.4807980  33.9592014  51.6478535  44.8434739  33.6083442
  53.2013696  40.0267839  39.4636629  53.1448898  40.4836390  38.6244261
  53.7542039  39.2658523  39.2859472  57.0118502  35.8157570  40.2886748
  56.7555436  35.4154206  41.1194956  56.3871370  36.5301364  40.1636888
  61.3230840  38.5553644  42.7958040  60.7630398  38.6246833  43.5689602
  60.7174343  38.3794628  42.0757536  44.3926049  49.9890371  44.5476226
  44.2758433  50.9335803  44.4454916  43.5718495  49.6863932  44.9362025
  54.2802583  44.7140506  35.3932819  55.1148187  44.2821705  35.2110294
  54.1186926  44.5422520  36.3209713  53.9348476  41.2172620  36.7589158
  53.8797279  41.0516891  35.8177602  53.3094531  41.9248653  36.9151348
  38.7240991  36.4540684  50.5850580  39.3699854  35.9439638  51.0737805
  38.5158142  37.1909366  51.1594006  51.2494383  43.5221532  56.0842721
  52.1185542  43.6962184  55.7229356  50.7701134  44.3415948  55.9618450
  47.2444601  30.7180729  36.3374477  47.2323271  31.6622569  36.4942747
  48.1368023  30.5350874  36.0433938  45.4180563  50.6418633  47.7632155
  46.3207810  50.6742243  48.0798649  45.1917933  49.7119084  47.7778490
  47.1734165  49.3949619  44.4242233  46.2229796  49.3951481  44.3106605
  47.4766651  48.6482354  43.9078268  51.0596721  27.3123505  40.5920413
  50.2929116  26.7581992  40.7377096  51.4707426  27.3845374  41.4534565
  43.0638482  33.6008301  54.6825595  43.9269943  33.2445106  54.8928919
  42.4903892  33.2622196  55.3700999  59.7176565  55.1837586  45.4249520
  59.3795076  55.0678650  44.5370055  60.5866333  54.7828751  45.4050526
  55.5763380  57.0373062  41.4146411  55.0128246  56.9462999  40.6462699
  55.4615776  56.2172967  41.8948904  53.1227812  58.5324254  44.2530632
  53.9149104  58.1915078  43.8376931  53.3624463  58.6419229  45.1732785
  57.8459816  56.4986398  46.9216269  58.4423388  56.2742420  46.2073232
  57.9034787  55.7571143  47.5241717  61.8793494  58.8070965  47.3264703
  61.5794217  59.7096004  47.2180511  61.5344554  58.5403148  48.1785856
  55.3305975  55.2584762  43.3601408  54.4056472  55.1260976  43.5679100
  55.5790389  56.0378981  43.8571350  52.6914787  54.9018035  44.1945197
  52.8207168  55.1552514  45.1084609  52.0112238  55.4945743  43.8749852
  56.8614274  65.5715285  40.2935671  56.7838304  66.5223110  40.3724152
  56.2575917  65.2261158  40.9510597  63.0833216  57.6957744  51.1087167
  63.4916572  57.2540155  50.3641799  62.3610477  57.1210372  51.3621359
  64.5402194  56.8373332  48.8179163  64.7519089  57.4805092  48.1413544
  64.4931942  56.0035648  48.3501093  58.9589992  57.9933343  42.1289541
  59.4228338  58.2721046  41.3394163  58.6946790  57.0916788  41.9462631
  55.8514073  57.5404825  45.0669304  56.4215430  57.9692093  44.4286788
  56.4422185  57.2587409  45.7653489  51.6384212  52.3740048  44.2396239
  50.8483266  52.6297577  43.7636350  52.1295459  53.1888386  44.3448280
  53.5898957  52.7384627  41.1979716  52.7930121  52.8503322  41.7163212
  53.3624550  53.0771280  40.3320606  49.9221915  52.6270539  46.6711230
  50.1729953  53.5117548  46.9368806  50.4581463  52.4475140  45.8986322
  55.6219982  47.0089018  55.6755566  55.2286928  46.4555216  56.3503210
  56.4386123  47.3199596  56.0662084  52.5882040  58.4472876  39.5869136
  53.1006561  59.2416126  39.7374701  53.2404753  57.7499167  39.5202737
  54.3976925  61.5638632  41.6691889  54.5743553  62.4856597  41.4812873
  55.1933758  61.2497052  42.0986269  50.5530957  56.7761530  40.3628706
  51.3906179  57.1858539  40.1462414  50.7309225  55.8360973  40.3328900
  61.5641647  46.8232655  45.5089338  61.0606442  46.7862790  44.6957143
  61.8572254  47.7325398  45.5685994  57.8084533  46.9071385  44.5155519
  58.6737529  46.7114193  44.1561409  57.8762041  46.6781737  45.4424876
  55.4146852  49.1373593  41.8871886  55.9890604  48.9148774  41.1545079
  56.0017834  49.2062287  42.6400487  55.7416439  51.1678054  35.9067771
  54.9053751  51.5052740  36.2277046  55.6021208  51.0327034  34.9694908
  57.7169519  46.0114842  40.6146956  57.0633932  45.6963859  39.9903570
  57.6749994  45.3890582  41.3406778  60.9507260  52.4996775  44.9394603
  60.0329821  52.7211722  44.7816291  61.3667403  52.5743086  44.0806311
  50.5757128  54.1152246  41.0339440  50.3781528  53.5221606  40.3090507
  50.0203792  53.8104456  41.7515379  58.5553852  54.0075352  43.1534033
  58.6102461  53.0549189  43.0776510  57.7445054  54.1634791  43.6375331
  56.4946212  52.6252412  40.9124412  55.6814077  52.9246582  41.3189604
  56.9905206  52.2308101  41.6298894  55.9860286  50.1970767  46.5285647
  56.6259666  50.0559527  45.8308610  55.1537817  49.9105281  46.1524249
  56.7620590  59.4973198  42.6420639  57.5561189  59.0023518  42.4403214
  56.0512283  58.9691061  42.2788345  53.0703354  53.6416280  38.7180392
  52.1400942  53.5800735  38.9350354  53.1660826  53.1192232  37.9217033
  52.9888903  50.1671092  41.3058634  53.2495720  51.0816426  41.1967794
  53.8106075  49.6995535  41.4555247  63.7718198  58.4719643  53.5673672
  63.6203705  58.2430194  52.6503756  63.7622878  59.4290244  53.5805017
  60.5403534  56.0451555  48.5519939  61.4695595  56.1962715  48.3788906
  60.1194565  56.1335576  47.6968585  59.3391866  60.0702220  46.3218476
  59.2002952  59.7021004  47.1944415  58.5506463  60.5849859  46.1502434
  60.8897081  59.4483823  43.7107314  60.5546914  59.4084593  44.6064964
  60.3901027  58.7828538  43.2377724  54.5001104  68.3200679  44.4383873
  54.7397702  68.9519203  45.1162892  53.6570300  67.9688719  44.7249232
  55.6154819  51.0125281  33.1065678  54.7384285  50.8914082  32.7427925
  56.0912572  50.2211360  32.8544567  47.1356959  55.8002441  43.2007185
  47.8227999  55.4864171  42.6128201  46.9805088  56.7043806  42.9274437
  51.9391681  50.6892637  47.6292209  51.8549870  50.0818307  46.8942619
  51.1174388  51.1801656  47.6301705  58.6950364  51.3163584  42.7234089
  58.3248151  50.7634624  43.4114994  59.1909456  50.7121717  42.1709089
  64.3240848  54.3305686  47.6441657  63.6712299  54.5781594  46.9894110
  64.7021228  53.5169825  47.3104134  54.9745936  64.3448681  41.7682652
  54.3056311  64.8294809  41.2846692  54.8358805  64.5917902  42.6826030
  46.7124935  53.8803034  45.4724652  46.7509035  53.3466625  46.2661771
  46.2065228  53.3538240  44.8535630  54.0915698  48.7267575  48.9687195
  54.1557024  49.5882406  48.5564592  54.0282818  48.1141576  48.2359553
  50.3433513  52.6067136  38.5478584  50.6386954  51.6977815  38.4945638
  49.4421549  52.5854876  38.2259586  53.8727760  50.6823133  44.5306132
  53.1514346  51.2959101  44.3913606  54.6621016  51.2180898  44.4522778
  52.0721354  50.2881234  38.6717909  51.7434061  49.4078613  38.4893015
  52.4260725  50.2328903  39.5594298  55.1863178  50.5754204  39.0393387
  55.5259250  51.1040125  38.3171995  55.6335298  50.9134610  39.8151953
  58.5323090  46.0440567  46.9423778  59.3549160  45.5701045  46.8202668
  58.7761154  46.8231051  47.4422464  57.1731325  49.0728825  37.2386679
  57.8939687  49.4510078  36.7350396  56.5496629  49.7917702  37.3421657
  56.0561669  52.7359688  44.7515756  55.9106250  53.0499991  45.6440038
  55.5786873  53.3544588  44.1986655  57.9158052  49.7262236  44.7996646
  57.9019621  48.8303329  44.4628944  58.6330480  49.7332899  45.4334932
  50.5307331  55.2765032  47.6903418  49.9860799  56.0524840  47.8223692
  51.4086681  55.6235837  47.5322539  57.3194948  48.6076616  40.0684216
  57.4410859  47.6793262  40.2675104  57.0296990  48.6215302  39.1562531
  60.1886138  46.2931526  43.2050936  60.2107835  46.3570859  42.2502915
  60.6054197  45.4536035  43.3991442  51.7629967  62.2900357  42.6143969
  52.5887987  61.9904129  42.2342613  51.4124019  61.5207980  43.0633758
  49.9638572  60.2086684  43.5732903  49.1270480  59.7808858  43.3916904
  49.9362217  60.4019127  44.5103694  64.6992510  53.4973131  52.1867321
  65.6002373  53.3579596  51.8951319  64.7740485  53.6627586  53.1265498
  54.0477640  56.2195926  39.1661172  53.8023682  55.3158256  39.3641382
  54.2173554  56.2213077  38.2240650  53.3173287  51.9524284  36.6647334
  52.6242532  52.0268639  36.0087370  53.0725039  51.1884627  37.1868850
  61.9886944  43.5119885  44.0686824  62.2688698  42.8443074  44.6947251
  62.7737551  43.7048981  43.5561488  58.3610128  51.9489668  32.9082788
  57.4541583  51.6522781  32.9845502  58.6386109  51.6519486  32.0417075
  49.2788068  53.2696032  43.3581835  48.9590853  52.4161340  43.0656209
  48.7321497  53.4844610  44.1139802  59.9772194  46.4926558  39.0627030
  59.1672922  46.1473643  39.4382276  60.6656611  46.1834102  39.6514641
  61.9062742  45.5704605  40.6851326  62.4593781  45.9900058  41.3441349
  62.1432828  44.6440353  40.7274282  57.1308913  48.8076603  33.0494768
  57.9928077  49.1331502  33.3090585  57.3159257  48.0208099  32.5367833
  49.1476328  56.8898943  45.3274956  48.4539800  56.4752896  44.8144911
  49.8949319  56.9319480  44.7308375  51.0613071  56.8217197  43.2040971
  51.0383759  56.9204884  42.2522854  51.3713707  57.6682348  43.5258137
  52.0750678  64.4212971  44.3357783  51.9405145  63.6613372  43.7695782
  51.6582740  65.1453871  43.8686572  49.5634745  51.7832602  50.5850580
  50.2093609  51.2731556  51.0737805  49.3551896  52.5201283  51.1594006
  62.0888137  58.8513449  56.0842721  62.9579297  59.0254102  55.7229356
  61.6094889  59.6707866  55.9618450  58.0838356  46.0472646  36.3374477
  58.0717025  46.9914486  36.4942747  58.9761777  45.8642792  36.0433938
  61.8990475  42.6415423  40.5920413  61.1322871  42.0873910  40.7377096
  62.3101180  42.7137292  41.4534565  53.9032236  48.9300219  54.6825595
  54.7663698  48.5737024  54.8928919  53.3297647  48.5914114  55.3700999
  63.9621567  73.8616171  44.2530632  64.7542859  73.5206996  43.8376931
  64.2018217  73.9711146  45.1732785  67.7008028  80.9007203  40.2935671
  67.6232058  81.8515028  40.3724152  67.0969672  80.5553075  40.9510597
  65.2370679  76.8930550  41.6691889  65.4137308  77.8148515  41.4812873
  66.0327513  76.5788969  42.0986269  71.6014874  76.8812922  53.1441553
  71.1578728  76.0949301  52.8262457  72.2632087  77.0692073  52.4785444
  72.5742558  80.3323562  35.4496934  71.9004256  80.6355258  36.0581892
  72.9608380  81.1352642  35.1002391  69.4848544  77.9502087  42.8458677
  69.4424723  78.1762933  41.9167209  70.4011243  77.7165461  42.9944478
  70.7733773  80.5003234  37.6644013  70.9485528  80.0291277  38.4789636
  70.0866561  81.1269000  37.8925274  65.3394858  83.6492597  44.4383873
  65.5791456  84.2811121  45.1162892  64.4964055  83.2980637  44.7249232
  57.9750714  71.1294359  43.2007185  58.6621753  70.8156089  42.6128201
  57.8198842  72.0335723  42.9274437  69.8522720  79.4571719  46.8425377
  69.7792891  80.2626691  47.3544682  69.4100113  79.6563685  46.0173399
  69.6412500  78.6943489  40.3528199  68.8580021  79.2365169  40.4466423
  70.3405245  79.2117469  40.7522440  72.3121403  79.3558553  48.9983536
  73.0249376  79.9906018  48.9259437  71.8211432  79.4522419  48.1823538
  67.3633317  77.1052997  49.8189107  68.0642776  77.7389480  49.9718501
  66.8928432  77.4467728  49.0584746  62.9601035  76.6389352  46.7520209
  63.5454472  75.8933040  46.8848114  62.7625873  76.9493308  47.6356873
  65.8139690  79.6740599  41.7682652  65.1450065  80.1586727  41.2846692
  65.6752560  79.9209820  42.6826030  57.5518690  69.2094952  45.4724652
  57.5902789  68.6758543  46.2661771  57.0458983  68.6830157  44.8535630
  69.9544959  81.7084343  48.3665310  70.5063267  81.8715964  49.1314395
  70.2951152  82.2988780  47.6945335  70.1010770  79.2742824  50.3813964
  70.4097897  79.0291971  51.2536664  70.8986252  79.4789463  49.8932835
  70.1231382  81.4280734  42.6119341  69.6836372  80.9357113  43.3052198
  70.8739499  80.8853702  42.3711416  62.6023721  77.6192275  42.6143969
  63.4281741  77.3196047  42.2342613  62.2517773  76.8499897  43.0633758
  67.5705254  76.9718743  44.6841643  66.9485264  76.3089448  44.3843870
  68.2410121  76.9979875  44.0015290  60.8032326  75.5378601  43.5732903
  59.9664235  75.1100776  43.3916904  60.7755972  75.7311045  44.5103694
  59.9870083  72.2190861  45.3274956  59.2933554  71.8044814  44.8144911
  60.7343074  72.2611397  44.7308375  61.9006825  72.1509115  43.2040971
  61.8777513  72.2496802  42.2522854  62.2107462  72.9974265  43.5258137
  64.5594203  74.2085270  47.3187586  65.5137457  74.1769212  47.2517517
  64.3606727  73.7475893  48.1337812  65.1493585  72.7786386  49.8858383
  65.9686474  73.2730464  49.9093221  65.4230393  71.8618354  49.8575951
  62.9144432  79.7504889  44.3357783  62.7798900  78.9905290  43.7695782
  62.4976494  80.4745789  43.8686572  66.0713558  80.6474206  44.5476226
  65.9545942  81.5919639  44.4454916  65.2506004  80.3447768  44.9362025
  67.0968072  81.3002468  47.7632155  67.9995319  81.3326078  48.0798649
  66.8705442  80.3702919  47.7778490  68.8521674  80.0533455  44.4242233
  67.9017305  80.0535316  44.3106605  69.1554160  79.3066189  43.9078268
  77.2550889  87.6956897  41.4146411  76.6915755  87.6046834  40.6462699
  77.1403285  86.8756802  41.8948904  81.8783857  86.9956273  51.3835726
  81.8672498  86.6009071  50.5116229  82.0404496  86.2622345  51.9769497
  74.8015321  89.1908089  44.2530632  75.5936613  88.8498914  43.8376931
  75.0411972  89.3003064  45.1732785  82.8350448  91.3627865  36.7260876
  82.1838428  91.9481946  36.3394890  83.6294811  91.8934060  36.7855914
  76.7606075  88.4517002  37.1248010  77.5336951  87.9045989  36.9860886
  77.1131474  89.3161252  37.3362472  78.5991118  89.7793385  50.3314910
  78.3080984  90.6839015  50.2161576  79.2348102  89.8209912  51.0458979
  79.5247325  87.1570233  46.9216269  80.1210897  86.9326256  46.2073232
  79.5822296  86.4154979  47.5241717  84.3125713  89.0518297  37.2629860
  83.6771546  89.1252924  37.9750765  83.9823120  89.6411896  36.5848940
  78.8168642  86.5137774  36.9590835  78.7004900  85.8382678  37.6271920
  78.9270902  86.0270148  36.1422988  81.1600183  85.9747922  40.6637525
  80.7958390  85.4478542  41.3750446  82.0167299  85.5846391  40.4904010
  83.5581003  89.4654800  47.3264703  83.2581726  90.3679839  47.2180511
  83.2132063  89.1986983  48.1785856  77.0093484  85.9168597  43.3601408
  76.0843981  85.7844811  43.5679100  77.2577898  86.6962816  43.8571350
  74.3702296  85.5601870  44.1945197  74.4994677  85.8136349  45.1084609
  73.6899747  86.1529578  43.8749852  78.5401783  96.2299120  40.2935671
  78.4625812  97.1806946  40.3724152  77.9363426  95.8844993  40.9510597
  81.0319013  83.4026986  52.9497038  80.2552347  83.9620906  52.9399903
  81.6709576  83.8883769  53.4711908  79.2865385  86.2112439  52.5115005
  80.0280069  86.7497483  52.2349829  78.5802370  86.8378728  52.6686557
  84.7620725  88.3541580  51.1087167  85.1704081  87.9123990  50.3641799
  84.0397986  87.7794207  51.3621359  85.0849539  88.9142770  44.8639455
  84.4558402  89.0788484  44.1615523  84.6975201  89.3284380  45.6350419
  88.9638771  89.8497208  42.2183819  88.2789809  90.2296110  41.6680852
  89.0482620  90.4592535  42.9515767  86.2189703  87.4957167  48.8179163
  86.4306598  88.1388927  48.1413544  86.1719451  86.6619484  48.3501093
  80.6377501  88.6517178  42.1289541  81.1015847  88.9304881  41.3394163
  80.3734299  87.7500623  41.9462631  77.5301582  88.1988660  45.0669304
  78.1002939  88.6275928  44.4286788  78.1209694  87.9171245  45.7653489
  79.5746387  84.7740331  38.9379106  80.2770430  85.2261374  39.4053032
  79.2427016  84.1324150  39.5658999  78.0226749  83.3652087  53.3130315
  77.3925409  84.0468368  53.5465712  77.9162837  83.2535169  52.3683453
  73.3171721  83.0323883  44.2396239  72.5270775  83.2881412  43.7636350
  73.8082968  83.8472221  44.3448280  87.3335531  90.3729123  46.9901520
  88.1552974  89.9709310  46.7084202  87.3297933  90.2697357  47.9417636
  75.2686466  83.3968463  41.1979716  74.4717630  83.5087157  41.7163212
  75.0412059  83.7355115  40.3320606  81.0992134  89.9213166  49.1462231
  81.1636567  90.3833573  49.9820402  80.3903058  89.2910531  49.2744540
  71.6009424  83.2854374  46.6711230  71.8517462  84.1701384  46.9368806
  72.1368972  83.1058975  45.8986322  95.4241524  86.7167871  43.3386492
  94.6705232  86.1475269  43.1830496  95.5589065  86.6830536  44.2857126
  80.8140152  91.5881273  39.0141211  80.6785827  92.4332809  39.4426059
  81.3549964  91.7900551  38.2507145  77.3007491  77.6672853  55.6755566
  76.9074437  77.1139052  56.3503210  78.1173632  77.9783432  56.0662084
  74.2669549  89.1056711  39.5869136  74.7794070  89.8999962  39.7374701
  74.9192262  88.4083002  39.5202737  76.0764434  92.2222468  41.6691889
  76.2531062  93.1440432  41.4812873  76.8721267  91.9080887  42.0986269
  80.2175452  79.0830732  53.2675823  80.9585166  79.6837885  53.1880285
  80.4493375  78.3408370  52.7093865  75.3616790  84.2687100  51.5454052
  75.2470305  83.3672357  51.8461151  74.5061308  84.5150796  51.1938869
  82.4408628  92.2104840  53.1441553  81.9972482  91.4241218  52.8262457
  83.1025842  92.3983990  52.4785444  77.1995749  93.7400642  47.6702231
  77.7503174  93.6117705  46.8979225  76.3607225  94.0395531  47.3197124
  84.5389866  92.4907640  51.1722954  84.5208342  93.3116521  50.6803223
  85.4609786  92.3661715  51.3973095  80.9962920  90.0051769  52.0146463
  81.5291257  89.2440058  51.7845771  80.4677001  89.7125421  52.7570617
  72.2318466  87.4345366  40.3628706  73.0693688  87.8442374  40.1462414
  72.4096734  86.4944808  40.3328900  82.3615633  89.1337762  39.5265275
  81.8336995  88.3990521  39.2138512  81.8603136  89.9112438  39.2805243
  80.5068233  86.9517972  32.5300248  79.5995295  86.7207226  32.7291397
  81.0039265  86.1555591  32.7174229  83.4136312  95.6615479  35.4496934
  82.7398011  95.9647176  36.0581892  83.8002134  96.4644560  35.1002391
  81.6856467  87.0530567  37.0524238  80.7767686  86.7689600  37.1496707
  81.7151550  87.4729646  36.1927545  86.9175734  90.6637156  40.8215405
  86.4638061  89.8228066  40.8780596  86.2869701  91.2998555  41.1590185
  85.3608673  92.5013653  41.7565223  85.6531648  93.0618710  41.0377589
  85.8707294  92.7942214  42.5118383  72.2544637  84.7736081  41.0339440
  72.0569037  84.1805442  40.3090507  71.6991301  84.4688291  41.7515379
  81.3832554  88.5939311  34.3912316  80.9451984  87.8775170  33.9317954
  82.1242995  88.8215425  33.8297408  78.1733721  83.2836247  40.9124412
  77.3601586  83.5830418  41.3189604  78.6692715  82.8891936  41.6298894
  80.3242298  93.2794004  42.8458677  80.2818477  93.5054851  41.9167209
  81.2404997  93.0457379  42.9944478  89.5275049  88.9373035  45.4599906
  89.9611556  88.8448324  46.3082960  90.2406630  88.9130535  44.8219922
  78.4408099  90.1557033  42.6420639  79.2348698  89.6607353  42.4403214
  77.7299792  89.6274896  42.2788345  83.2602944  92.5375129  46.9933007
  83.3139966  93.1066065  47.7610723  82.3917725  92.7077014  46.6287044
  74.7490863  84.3000115  38.7180392  73.8188451  84.2384570  38.9350354
  74.8448335  83.7776068  37.9217033  90.3890598  88.9796735  47.9932792
  90.5826488  89.8842546  48.2392067  90.2891217  88.5204154  48.8271377
  85.4505707  89.1303478  53.5673672  85.2991213  88.9014030  52.6503756
  85.4410387  90.0874079  53.5805017  81.0179375  90.7286055  46.3218476
  80.8790461  90.3604840  47.1944415  80.2293971  91.2433695  46.1502434
  81.6127527  95.8295152  37.6644013  81.7879283  95.3583195  38.4789636
  80.9260315  96.4560918  37.8925274  82.5684590  90.1067658  43.7107314
  82.2334423  90.0668428  44.6064964  82.0688536  89.4412374  43.2377724
  76.5428834  85.5135288  49.2359895  76.4048632  84.7815527  49.8371434
  77.4533758  85.4244188  48.9544083  87.1597914  92.1622601  51.6450154
  87.1010460  91.4781821  50.9780737  87.5617432  92.9041591  51.1930780
  77.8840069  82.2120465  50.5439215  77.3477426  81.7611204  51.1960811
  77.2956777  82.3466374  49.8009679  76.1788613  98.9784514  44.4383873
  76.4185211  99.6103039  45.1162892  75.3357809  98.6272554  44.7249232
  87.1615321  90.1262185  49.8764134  86.2742100  89.7888106  49.9990533
  87.7313872  89.3945216  50.1132899  68.8144468  86.4586276  43.2007185
  69.5015508  86.1448006  42.6128201  68.6592597  87.3627641  42.9274437
  80.6916474  94.7863637  46.8425377  80.6186646  95.5918608  47.3544682
  80.2493867  94.9855603  46.0173399  80.4806254  94.0235407  40.3528199
  79.6973776  94.5657087  40.4466423  81.1798999  94.5409387  40.7522440
  83.1515158  94.6850471  48.9983536  83.8643130  95.3197936  48.9259437
  82.6605187  94.7814337  48.1823538  84.8732685  88.5901724  40.5700827
  83.9388964  88.7103186  40.4005532  85.0509353  87.6874190  40.3060837
  78.2027071  92.4344914  49.8189107  78.9036531  93.0681397  49.9718501
  77.7322186  92.7759646  49.0584746  82.9635531  95.0249215  41.7469827
  83.1457926  94.2070871  42.2097580  83.7868517  95.2416907  41.3094717
  83.2977697  93.9517400  39.0084876  83.8265463  93.4409855  38.3955038
  83.5605916  93.6359930  39.8730409  82.0515930  85.7309333  54.1307694
  81.3756567  85.6303462  54.8010069  82.8743564  85.5748547  54.5943691
  73.7994789  91.9681269  46.7520209  74.3848226  91.2224957  46.8848114
  73.6019628  92.2785226  47.6356873  76.6533445  95.0032517  41.7682652
  75.9843820  95.4878644  41.2846692  76.5146314  95.2501737  42.6826030
  68.3912444  84.5386870  45.4724652  68.4296544  84.0050460  46.2661771
  67.8852737  84.0122075  44.8535630  80.7938713  97.0376260  48.3665310
  81.3457021  97.2007882  49.1314395  81.1344907  97.6280698  47.6945335
  75.2455479  81.4574543  52.6160229  75.8727518  81.0751620  53.2297753
  74.3883398  81.2388745  52.9815922  85.6449588  91.8637518  54.2213964
  86.1889492  92.4767476  53.7268919  85.0636432  92.4217096  54.7380977
  72.0221022  83.2650972  38.5478584  72.3174463  82.3561650  38.4945638
  71.1209058  83.2438711  38.2259586  83.9307101  94.9858236  45.3528992
  83.8058240  94.1847976  44.8439938  84.5886192  95.4804429  44.8642962
  85.9942009  92.7867256  46.9808542  85.0472344  92.6672607  46.9086869
  86.3424782  91.8989754  47.0634804  73.7508863  80.9465069  38.6717909
  73.4221570  80.0662448  38.4893015  74.1048234  80.8912738  39.5594298
  82.9988442  92.5819972  43.1812895  82.8513405  91.6536680  43.3620465
  83.8241936  92.6040063  42.6969970  76.8650687  81.2338039  39.0393387
  77.2046759  81.7623961  38.3171995  77.3122807  81.5718445  39.8151953
  86.6022564  93.4048531  44.2677767  87.5269112  93.1991392  44.1302218
  86.4337867  93.1564932  45.1767109  86.3917880  93.9234198  39.6239859
  86.5654758  93.3580621  38.8713711  86.8846772  94.7235093  39.4419349
  72.2094840  85.9348867  47.6903418  71.6648308  86.7108675  47.8223692
  73.0874190  86.2819672  47.5322539  92.2457271  86.6870621  41.2430158
  92.6888418  85.9377947  40.8449282  91.3683782  86.6780758  40.8603890
  72.9960862  85.0618764  50.5833574  72.2542598  85.2101399  51.1698205
  72.6753606  85.3227029  49.7200324  80.9404525  94.6034742  50.3813964
  81.2491651  94.3583889  51.2536664  81.7380007  94.8081380  49.8932835
  80.9625137  96.7572652  42.6119341  80.5230127  96.2649030  43.3052198
  81.7133254  96.2145619  42.3711416  73.4417476  92.9484192  42.6143969
  74.2675496  92.6487964  42.2342613  73.0911528  92.1791815  43.0633758
  78.4099009  92.3010661  44.6841643  77.7879018  91.6381366  44.3843870
  79.0803876  92.3271793  44.0015290  71.6426081  90.8670519  43.5732903
  70.8057989  90.4392693  43.3916904  71.6149726  91.0602962  44.5103694
  78.4823536  80.7792449  54.2774149  78.5311692  81.6554571  53.8951918
  79.0246051  80.2369842  53.7045792  88.9678382  91.3233572  53.5575286
  88.1773926  91.3057711  53.0179785  88.7311737  91.8621866  54.3124322
  89.0876257  88.1726038  50.8708014  89.1374262  88.0076046  51.8123537
  88.9790180  87.3053297  50.4805895  77.9712516  90.8514584  38.1600103
  78.1200636  91.5350048  37.5066776  78.7778959  90.8319674  38.6749559
  86.3780019  84.1556966  52.1867321  87.2789882  84.0163431  51.8951319
  86.4527994  84.3211421  53.1265498  80.7122825  81.5323821  51.0320507
  79.8426134  81.8257387  50.7603096  80.9482305  82.1164266  51.7527771
  90.5894454  90.5922980  51.1150036  90.2979262  90.9552960  51.9513497
  89.9766585  89.8789988  50.9363368  91.7890136  88.1575860  43.6352606
  92.6237028  88.5965664  43.7990166  91.9249265  87.6814513  42.8160852
  88.8381642  85.7155594  49.5830094  89.3135764  85.9083241  48.7748945
  87.9147207  85.7714780  49.3373477  75.7265149  86.8779762  39.1661172
  75.4811191  85.9742092  39.3641382  75.8961063  86.8796912  38.2240650
  74.9960796  82.6108119  36.6647334  74.3030041  82.6852474  36.0087370
  74.7512548  81.8468463  37.1868850  81.4707921  93.3462714  35.6311851
  80.8981888  93.9652902  35.1782322  82.0440715  93.8962076  36.1651773
  84.6905181  93.6299865  36.7620433  85.6235854  93.5645426  36.9653308
  84.6028394  94.4656131  36.3034966  90.0171389  85.8127474  46.9300699
  89.9847709  84.8743475  47.1160383  90.6272013  85.8911511  46.1966524
  95.8347939  86.8743481  46.0706736  96.5651327  86.6128769  46.6314439
  95.2254884  86.1372203  46.1108804  93.9163236  85.0151344  46.6681187
  93.1896399  84.8807309  46.0597679  93.5010523  85.3228172  47.4737905
  81.7393412  88.7341273  54.4328560  82.6596422  88.9119872  54.6268607
  81.7042995  87.7897319  54.2808259  70.9575577  83.9279867  43.3581835
  70.6378362  83.0745175  43.0656209  70.4109005  84.1428445  44.1139802
  74.7355485  86.6442308  47.0751341  74.9541495  87.5759416  47.0939375
  75.1481259  86.2850282  47.8606145  79.6083350  82.2175514  56.4654090
  79.5080077  83.1669871  56.3966181  79.3904892  81.8893753  55.5930160
  70.8263837  87.5482778  45.3274956  70.1327309  87.1336731  44.8144911
  71.5736828  87.5903315  44.7308375  79.4714620  85.6472653  55.2819152
  78.9881702  86.4473013  55.4883041  79.5575559  85.6580597  54.3286596
  72.7400580  87.4801032  43.2040971  72.7171268  87.5788720  42.2522854
  73.0501216  88.3266183  43.5258137  75.3987958  89.5377187  47.3187586
  76.3531211  89.5061130  47.2517517  75.2000481  89.0767811  48.1337812
  75.9887340  88.1078303  49.8858383  76.8080229  88.6022382  49.9093221
  76.2624148  87.1910271  49.8575951  73.7538186  95.0796807  44.3357783
  73.6192654  94.3197208  43.7695782  73.3370249  95.8037707  43.8686572
  93.8412104  84.5429397  42.7958040  93.2811662  84.6122586  43.5689602
  93.2355607  84.3670381  42.0757536  76.9107312  95.9766124  44.5476226
  76.7939697  96.9211556  44.4454916  76.0899759  95.6739685  44.9362025
  71.2422254  82.4416437  50.5850580  71.8881118  81.9315391  51.0737805
  71.0339405  83.1785119  51.1594006  83.7675646  89.5097285  56.0842721
  84.6366806  89.6837937  55.7229356  83.2882398  90.3291702  55.9618450
  77.9361826  96.6294386  47.7632155  78.8389073  96.6617996  48.0798649
  77.7099197  95.6994837  47.7778490  79.6915429  95.3825372  44.4242233
  78.7411060  95.3827234  44.3106605  79.9947915  94.6358107  43.9078268
  75.5819745  79.5884054  54.6825595  76.4451207  79.2320859  54.8928919
  75.0085156  79.2497949  55.3700999  95.4268122 101.2185911  45.4887996
  96.0646532 101.0992658  44.7851336  95.3088965 102.1666755  45.5475948
  92.2357828 101.1713339  45.4249520  91.8976340 101.0554403  44.5370055
  93.1047596 100.7704504  45.4050526  88.0944644 103.0248815  41.4146411
  87.5309509 102.9338752  40.6462699  87.9797039 102.2048720  41.8948904
  92.7177611 102.3248190  51.3835726  92.7066252 101.9300989  50.5116229
  92.8798251 101.5914263  51.9769497  85.6409076 104.5200007  44.2530632
  86.4330368 104.1790831  43.8376931  85.8805726 104.6294982  45.1732785
  93.6744203 106.6919783  36.7260876  93.0232182 107.2773863  36.3394890
  94.4688565 107.2225978  36.7855914  87.5999830 103.7808920  37.1248010
  88.3730706 103.2337907  36.9860886  87.9525229 104.6453169  37.3362472
  89.4384872 105.1085302  50.3314910  89.1474738 106.0130933  50.2161576
  90.0741857 105.1501830  51.0458979  90.3641079 102.4862151  46.9216269
  90.9604652 102.2618173  46.2073232  90.4216051 101.7446896  47.5241717
  89.9366108  99.9401586  34.7566460  90.1891628  99.4183107  33.9949923
  88.9990667  99.7767732  34.8593144  94.9809390  98.9437364  42.5641204
  95.7672480  98.5256788  42.2131621  95.2448095  99.8483457  42.7322852
  95.1519468 104.3810215  37.2629860  94.5165301 104.4544841  37.9750765
  94.8216874 104.9703814  36.5848940 100.3817818  98.8812598  43.4674182
 101.1142990  98.3111814  43.7012012  99.6257173  98.4934198  43.9080688
  89.6562396 101.8429692  36.9590835  89.5398655 101.1674595  37.6271920
  89.7664656 101.3562066  36.1422988  91.9993937 101.3039839  40.6637525
  91.6352145 100.7770460  41.3750446  92.8561053 100.9138308  40.4904010
  97.9043238  92.5934172  47.9268791  97.5726563  93.4629583  47.7030006
  97.3088851  92.2770456  48.6062821  91.6399424  96.3329739  35.6598873
  91.8073827  97.2009975  36.0269344  91.4496593  96.4957021  34.7360162
  94.3974757 104.7946718  47.3264703  94.0975481 105.6971757  47.2180511
  94.0525817 104.5278901  48.1785856  87.8487239 101.2460515  43.3601408
  86.9237735 101.1136729  43.5679100  88.0971652 102.0254734  43.8571350
  97.7971901  97.3129258  45.0062141  96.8888779  97.2444666  44.7120902
  97.7459497  97.7901203  45.8343966  91.6188645  98.7887396  36.6445540
  91.4988270  99.2344447  37.4831020  90.9241234  99.1372714  36.0859078
  85.2096050 100.8893788  44.1945197  85.3388431 101.1428267  45.1084609
  84.5293501 101.4821496  43.8749852  89.3795537 111.5591038  40.2935671
  89.3019567 112.5098863  40.3724152  88.7757181 111.2136911  40.9510597
  91.8712767  98.7318904  52.9497038  91.0946101  99.2912824  52.9399903
  92.5103330  99.2175687  53.4711908  99.6633548  95.5145696  46.7840015
  99.0207928  95.8078230  46.1379809  99.1588476  95.3998617  47.5893211
  97.3173711  99.2608870  37.4725874  98.2291567  99.4936256  37.2973571
  96.8083358  99.8445914  36.9100953  90.1259139 101.5404357  52.5115005
  90.8673824 102.0789401  52.2349829  89.4196125 102.1670646  52.6686557
  95.6014479 103.6833497  51.1087167  96.0097835 103.2415908  50.3641799
  94.8791741 103.1086125  51.3621359  91.9545549  98.6206104  48.4820723
  92.8006744  99.0445518  48.6255372  91.8944187  97.9639728  49.1759287
  95.9243294 104.2434688  44.8639455  95.2952156 104.4080402  44.1615523
  95.5368956 104.6576298  45.6350419  99.8032526 105.1789126  42.2183819
  99.1183564 105.5588027  41.6680852  99.8876375 105.7884453  42.9515767
  95.1044994  96.2810473  50.1401897  94.8605926  97.0352533  49.6036173
  95.3804925  96.6595820  50.9749144  97.0583457 102.8249085  48.8179163
  97.2700352 103.4680845  48.1413544  97.0113205 101.9911401  48.3501093
  94.6609686  95.4366906  45.7215735  93.7994165  95.7348159  46.0132472
  94.6872121  95.6537304  44.7896767  91.4771256 103.9809096  42.1289541
  91.9409601 104.2596799  41.3394163  91.2128054 103.0792541  41.9462631
  88.3695337 103.5280578  45.0669304  88.9396694 103.9567846  44.4286788
  88.9603448 103.2463162  45.7653489  90.4140142 100.1032248  38.9379106
  91.1164185 100.5553292  39.4053032  90.0820770  99.4616067  39.5658999
  88.8620503  98.6944005  53.3130315  88.2319164  99.3760286  53.5465712
  88.7556591  98.5827087  52.3683453  84.1565476  98.3615801  44.2396239
  83.3664530  98.6173330  43.7636350  84.6476723  99.1764139  44.3448280
  98.1729285 105.7021040  46.9901520  98.9946729 105.3001228  46.7084202
  98.1691688 105.5989274  47.9417636  86.1080221  98.7260380  41.1979716
  85.3111384  98.8379075  41.7163212  85.8805813  99.0647033  40.3320606
  91.9385889 105.2505084  49.1462231  92.0030321 105.7125491  49.9820402
  91.2296812 104.6202449  49.2744540  82.4403179  98.6146292  46.6711230
  82.6911217  99.4993301  46.9368806  82.9762727  98.4350893  45.8986322
 106.2635278 102.0459789  43.3386492 105.5098987 101.4767187  43.1830496
 106.3982819 102.0122453  44.2857126  91.6533906 106.9173191  39.0141211
  91.5179581 107.7624727  39.4426059  92.1943719 107.1192469  38.2507145
  88.1401246  92.9964771  55.6755566  87.7468191  92.4430969  56.3503210
  88.9567386  93.3075349  56.0662084  85.1063304 104.4348629  39.5869136
  85.6187824 105.2291879  39.7374701  85.7586016 103.7374920  39.5202737
  86.9158188 107.5514385  41.6691889  87.0924817 108.4732350  41.4812873
  87.7115022 107.2372805  42.0986269  91.0569207  94.4122650  53.2675823
  91.7978920  95.0129803  53.1880285  91.2887130  93.6700288  52.7093865
  86.2010545  99.5979017  51.5454052  86.0864060  98.6964275  51.8461151
  85.3455063  99.8442714  51.1938869  93.2802383 107.5396758  53.1441553
  92.8366237 106.7533136  52.8262457  93.9419596 107.7275908  52.4785444
  88.0389504 109.0692559  47.6702231  88.5896929 108.9409623  46.8979225
  87.2000980 109.3687448  47.3197124  95.3783621 107.8199558  51.1722954
  95.3602096 108.6408439  50.6803223  96.3003541 107.6953633  51.3973095
  91.8356675 105.3343687  52.0146463  92.3685012 104.5731975  51.7845771
  91.3070756 105.0417339  52.7570617  95.0026370  90.4403753  47.5440104
  94.6590639  91.3305395  47.4679215  95.3705332  90.2505411  46.6809689
  83.0712220 102.7637283  40.3628706  83.9087442 103.1734292  40.1462414
  83.2490488 101.8236726  40.3328900  94.9676652 100.4312364  36.0512539
  94.4523276 101.2016969  36.2900927  94.6953961  99.7577500  36.6745601
  92.5523764  95.2762065  41.1097778  91.6965360  94.8868915  40.9303417
  92.9650715  95.3554026  40.2497563  94.0822910  92.8108408  45.5089338
  93.5787706  92.7738543  44.6957143  94.3753517  93.7201151  45.5685994
  90.3265796  92.8947138  44.5155519  91.1918793  92.6989947  44.1561409
  90.3943305  92.6657490  45.4424876  99.9410927 103.1844719  37.9865713
  99.1640369 102.8455878  37.5420875 100.6202408 103.1897342  37.3120678
  94.7562956  98.3039456  37.8772321  94.4513091  98.6185605  38.7282464
  95.7093398  98.3820876  37.9199654  93.2009388 104.4629679  39.5265275
  92.6730749 103.7282439  39.2138512  92.6996890 105.2404356  39.2805243
  98.1802234 102.6578700  44.6432321  97.5225908 103.3477961  44.7312450
  98.9842633 103.0475132  44.9866307  87.9328115  95.1249346  41.8871886
  88.5071867  94.9024527  41.1545079  88.5199098  95.1938040  42.6400487
  96.9907692 101.0123073  42.6936263  97.5039574 101.6453065  43.1957972
  97.6408916 100.4124268  42.3279623  88.2597702  97.1553807  35.9067771
  87.4235014  97.4928493  36.2277046  88.1202472  97.0202787  34.9694908
  90.2350783  91.9990595  40.6146956  89.5815195  91.6839612  39.9903570
  90.1931257  91.3766335  41.3406778  91.3461988 102.2809890  32.5300248
  90.4389049 102.0499143  32.7291397  91.8433020 101.4847509  32.7174229
  94.2530067 110.9907397  35.4496934  93.5791765 111.2939094  36.0581892
  94.6395889 111.7936477  35.1002391  93.4688523  98.4872528  44.9394603
  92.5511085  98.7087475  44.7816291  93.8848667  98.5618839  44.0806311
  94.2523571  99.8863944  40.0697283  94.9995390 100.3985341  39.7604405
  94.5215161  99.5647997  40.9301677  92.5250221 102.3822485  37.0524238
  91.6161440 102.0981517  37.1496707  92.5545305 102.8021563  36.1927545
  97.7569489 105.9929074  40.8215405  97.3031816 105.1519984  40.8780596
  97.1263455 106.6290472  41.1590185  96.7002408  96.9221060  42.0516073
  95.9625165  96.4098446  42.3826315  96.9529182  96.4821442  41.2399350
  96.2002428 107.8305571  41.7565223  96.4925402 108.3910628  41.0377589
  96.7101048 108.1234132  42.5118383  96.8014035  89.6997312  42.6457842
  97.1072912  88.8394676  42.3583757  97.5266640  90.2914932  42.4456836
  83.0938392 100.1027999  41.0339440  82.8962791  99.5097359  40.3090507
  82.5385056  99.7980209  41.7515379  91.0735115  99.9951105  43.1534033
  91.1283725  99.0424942  43.0776510  90.2626317 100.1510544  43.6375331
  92.2226309 103.9231228  34.3912316  91.7845739 103.2067087  33.9317954
  92.9636750 104.1507343  33.8297408  89.0127475  98.6128165  40.9124412
  88.1995341  98.9122336  41.3189604  89.5086469  98.2183854  41.6298894
  91.1636053 108.6085922  42.8458677  91.1212232 108.8346768  41.9167209
  92.0798752 108.3749296  42.9944478  94.6101687  99.0769989  49.7439306
  94.9651075  99.3041463  50.6033772  95.2573818  99.4088366  49.1216561
 100.3399424 102.1988425  40.4488635 100.2017322 102.3890021  39.5209824
  99.9835643 102.9607808  40.9056686  88.5041550  96.1846520  46.5285647
  89.1440929  96.0435280  45.8308610  87.6719080  95.8981034  46.1524249
 100.3668803 104.2664952  45.4599906 100.8005310 104.1740241  46.3082960
 101.0800384 104.2422453  44.8219922  89.2801854 105.4848951  42.6420639
  90.0742452 104.9899271  42.4403214  88.5693546 104.9566814  42.2788345
  94.0996698 107.8667046  46.9933007  94.1533721 108.4357983  47.7610723
  93.2311480 108.0368931  46.6287044  85.5884617  99.6292033  38.7180392
  84.6582205  99.5676488  38.9350354  85.6842089  99.1067985  37.9217033
  85.5070166  96.1546845  41.3058634  85.7676984  97.0692179  41.1967794
  86.3287339  95.6871288  41.4555247  86.9795092  97.5684603  48.4757458
  87.6518145  97.3601965  47.8270107  86.1524878  97.3706689  48.0362691
 101.2284353 104.3088653  47.9932792 101.4220243 105.2134463  48.2392067
 101.1284971 103.8496072  48.8271377  92.8820664  94.1946544  50.4923119
  92.2348579  94.8936493  50.3987596  93.6521679  94.6282687  50.8599367
  96.2899462 104.4595396  53.5673672  96.1384968 104.2305947  52.6503756
  96.2804141 105.4165997  53.5805017  93.0584798 102.0327308  48.5519939
  93.9876858 102.1838468  48.3788906  92.6375828 102.1211329  47.6968585
  91.8573130 106.0577973  46.3218476  91.7184215 105.6896757  47.1944415
  91.0687726 106.5725612  46.1502434  92.4521282 111.1587069  37.6644013
  92.6273037 110.6875113  38.4789636  91.7654070 111.7852836  37.8925274
  93.4078345 105.4359576  43.7107314  93.0728178 105.3960346  44.6064964
  92.9082291 104.7704292  43.2377724  87.3822589 100.8427206  49.2359895
  87.2442387 100.1107444  49.8371434  88.2927512 100.7536106  48.9544083
  96.3437537 102.7815610  33.9844374  95.7266707 102.0562438  33.8877427
  95.8754025 103.5424970  33.6411448  90.0104890 100.5547165  48.7243575
  90.7204508  99.9140357  48.6830193  89.9674198 100.8060060  49.6469756
  97.9991668 107.4914518  51.6450154  97.9404214 106.8073738  50.9780737
  98.4011187 108.2333508  51.1930780  88.7233824  97.5412383  50.5439215
  88.1871181  97.0903121  51.1960811  88.1350532  97.6758292  49.8009679
  87.0182367 114.3076432  44.4383873  87.2578965 114.9394956  45.1162892
  86.1751563 113.9564472  44.7249232  88.1336082  97.0001034  33.1065678
  87.2565549  96.8789835  32.7427925  88.6093836  96.2087113  32.8544567
  98.0009075 105.4554102  49.8764134  97.1135854 105.1180024  49.9990533
  98.5707627 104.7237133  50.1132899  79.6538223 101.7878194  43.2007185
  80.3409262 101.4739924  42.6128201  79.4986351 102.6919559  42.9274437
  84.4572945  96.6768391  47.6292209  84.3731133  96.0694060  46.8942619
  83.6355651  97.1677409  47.6301705  91.5310229 110.1155555  46.8425377
  91.4580400 110.9210526  47.3544682  91.0887622 110.3147520  46.0173399
  91.3200008 109.3527325  40.3528199  90.5367530 109.8949005  40.4466423
  92.0192754 109.8701304  40.7522440  94.6296659  95.1621954  42.9962404
  95.1265358  94.4091916  42.6763474  93.8583640  95.1986271  42.4305613
 102.4826416 100.8662320  44.6380696 102.4716292 101.7487035  44.2674629
 101.6143795 100.5133870  44.4435233  93.9908912 110.0142389  48.9983536
  94.7036885 110.6489853  48.9259437  93.4998941 110.1106255  48.1823538
  95.7126439 103.9193641  40.5700827  94.7782718 104.0395104  40.4005532
  95.8903108 103.0166108  40.3060837  91.2131627  97.3039337  42.7234089
  90.8429415  96.7510377  43.4114994  91.7090720  96.6997471  42.1709089
  99.0998991  99.7610961  41.1050862  99.5659443 100.5938952  41.0311164
  99.5506491  99.2955942  41.8096120  89.0420826 107.7636832  49.8189107
  89.7430285 108.3973315  49.9718501  88.5715941 108.1051564  49.0584746
  97.1675222 106.1054782  38.1037014  97.4435066 105.9911376  39.0130888
  96.2979720 105.7072267  38.0649187  97.0715653  92.1291548  45.1441763
  96.1578733  92.3595774  45.3123970  97.5008755  92.2129992  45.9955795
  96.8422112 100.3181440  47.6441657  96.1893562 100.5657347  46.9894110
  97.2202492  99.5045578  47.3104134  93.8029286 110.3541133  41.7469827
  93.9851680 109.5362789  42.2097580  94.6262272 110.5708825  41.3094717
  94.1371451 109.2809318  39.0084876  94.6659218 108.7701772  38.3955038
  94.3999671 108.9651848  39.8730409  92.8909685 101.0601251  54.1307694
  92.2150322 100.9595380  54.8010069  93.7137319 100.9040464  54.5943691
  84.6388544 107.2973187  46.7520209  85.2241981 106.5516875  46.8848114
  84.4413382 107.6077144  47.6356873  87.4927199 110.3324435  41.7682652
  86.8237574 110.8170562  41.2846692  87.3540069 110.5793655  42.6826030
  79.2306199  99.8678787  45.4724652  79.2690298  99.3342378  46.2661771
  78.7246492  99.3413993  44.8535630  91.6332468 112.3668178  48.3665310
  92.1850776 112.5299800  49.1314395  91.9738661 112.9572616  47.6945335
  86.6096961  94.7143328  48.9687195  86.6738288  95.5758159  48.5564592
  86.5464081  94.1017329  48.2359553  86.0849234  96.7866460  52.6160229
  86.7121272  96.4043538  53.2297753  85.2277152  96.5680662  52.9815922
  96.4843342 107.1929436  54.2213964  97.0283246 107.8059394  53.7268919
  95.9030187 107.7509014  54.7380977  82.8614776  98.5942889  38.5478584
  83.1568217  97.6853568  38.4945638  81.9602812  98.5730629  38.2259586
  94.7700855 110.3150154  45.3528992  94.6451995 109.5139893  44.8439938
  95.4279946 110.8096347  44.8642962  86.3909023  96.6698886  44.5306132
  85.6695609  97.2834854  44.3913606  87.1802279  97.2056651  44.4522778
  96.8335763 108.1159174  46.9808542  95.8866099 107.9964525  46.9086869
  97.1818537 107.2281672  47.0634804  89.1935337  94.0053313  50.8046784
  89.7169739  94.2515609  51.5673093  88.9747670  94.8373347  50.3849922
  84.5902618  96.2756987  38.6717909  84.2615324  95.3954366  38.4893015
  84.9441989  96.2204656  39.5594298  93.8382197 107.9111890  43.1812895
  93.6907159 106.9828597  43.3620465  94.6635690 107.9331981  42.6969970
  87.7044441  96.5629957  39.0393387  88.0440514  97.0915878  38.3171995
  88.1516562  96.9010363  39.8151953  97.4416319 108.7340449  44.2677767
  98.3662866 108.5283310  44.1302218  97.2731622 108.4856850  45.1767109
  90.3987882  94.9467008  48.4896455  90.0584702  94.1474821  48.8917135
  89.6926888  95.2468719  47.9173288  91.0504354  92.0316320  46.9423778
  91.8730423  91.5576798  46.8202668  91.2942417  92.8106804  47.4422464
  89.6912588  95.0604579  37.2386679  90.4120951  95.4385831  36.7350396
  89.0677892  95.7793455  37.3421657  93.8343711  95.7649728  38.1745012
  94.0507325  96.6474365  37.8733840  93.3537778  95.3735941  37.4450654
  88.5742932  98.7235441  44.7515756  88.4287513  99.0375744  45.6440038
  88.0968136  99.3420341  44.1986655  90.4339315  95.7137989  44.7996646
  90.4200884  94.8179082  44.4628944  91.1511743  95.7208652  45.4334932
  92.2865446  96.1475329  46.8449773  92.0283224  97.0692400  46.8434104
  91.7550486  95.7505763  47.5350237  97.2311635 109.2526116  39.6239859
  97.4048512 108.6872539  38.8713711  97.7240526 110.0527011  39.4419349
  83.0488595 101.2640785  47.6903418  82.5042063 102.0400593  47.8223692
  83.9267944 101.6111590  47.5322539  89.8376211  94.5952369  40.0684216
  89.9592122  93.6669015  40.2675104  89.5478254  94.6091055  39.1562531
  92.7067402  92.2807279  43.2050936  92.7289098  92.3446613  42.2502915
  93.1235461  91.4411788  43.3991442 103.0851026 102.0162539  41.2430158
 103.5282172 101.2669864  40.8449282 102.2077536 102.0072675  40.8603890
  98.2186807 108.5692880  36.7236757  98.9137712 109.1899573  36.9424072
  98.5609957 107.7188232  36.9989135  83.8354616 100.3910681  50.5833574
  83.0936353 100.5393317  51.1698205  83.5147361 100.6518947  49.7200324
 100.1178230 106.0192586  38.2524088 100.6429555 106.3579859  37.5273408
 100.0300583 105.0839601  38.0687222  91.7798279 109.9326660  50.3813964
  92.0885406 109.6875806  51.2536664  92.5773761 110.1373298  49.8932835
  91.8018891 112.0864569  42.6119341  91.3623881 111.5940948  43.3052198
  92.5527008 111.5437537  42.3711416  84.2811230 108.2776110  42.6143969
  85.1069250 107.9779882  42.2342613  83.9305282 107.5083733  43.0633758
  89.2492763 107.6302578  44.6841643  88.6272773 106.9673283  44.3843870
  89.9197630 107.6563710  44.0015290  82.4819835 106.1962437  43.5732903
  81.6451744 105.7684611  43.3916904  82.4543481 106.3894880  44.5103694
  89.3217291  96.1084366  54.2774149  89.3705446  96.9846489  53.8951918
  89.8639805  95.5661759  53.7045792  99.8072136 106.6525490  53.5575286
  99.0167680 106.6349628  53.0179785  99.5705491 107.1913783  54.3124322
  99.9270012 103.5017956  50.8708014  99.9768016 103.3367963  51.8123537
  99.8183935 102.6345215  50.4805895  88.8106270 106.1806502  38.1600103
  88.9594391 106.8641966  37.5066776  89.6172714 106.1611592  38.6749559
  97.2173774  99.4848884  52.1867321  98.1183637  99.3455349  51.8951319
  97.2921748  99.6503339  53.1265498  91.5516579  96.8615739  51.0320507
  90.6819889  97.1549305  50.7603096  91.7876060  97.4456184  51.7527771
 101.4288208 105.9214897  51.1150036 101.1373017 106.2844878  51.9513497
 100.8160340 105.2081906  50.9363368 102.6283891 103.4867777  43.6352606
 103.4630782 103.9257581  43.7990166 102.7643019 103.0106430  42.8160852
  99.6775397 101.0447512  49.5830094 100.1529518 101.2375158  48.7748945
  98.7540962 101.1006698  49.3373477  86.5658903 102.2071679  39.1661172
  86.3204945 101.3034009  39.3641382  86.7354818 102.2088830  38.2240650
  94.2555613  93.0795356  48.5485928  94.7737557  93.8156383  48.2232416
  93.9010746  93.3859349  49.3832687  85.8354551  97.9400037  36.6647334
  85.1423796  98.0144392  36.0087370  85.5906303  97.1760381  37.1868850
  94.5068207  89.4995638  44.0686824  94.7869961  88.8318827  44.6947251
  95.2918814  89.6924734  43.5561488  92.3101676 108.6754632  35.6311851
  91.7375643 109.2944819  35.1782322  92.8834469 109.2253994  36.1651773
  98.3777066  97.9213272  47.8158399  99.3294488  98.0211370  47.8370623
  98.2080516  97.1291541  48.3256484  96.3991445  95.0068855  48.0017800
  95.8041377  95.2873868  47.3064289  96.1141142  95.4962756  48.7734541
  95.5298936 108.9591782  36.7620433  96.4629609 108.8937344  36.9653308
  95.4422148 109.7948049  36.3034966  98.1586952 108.2757653  33.7224380
  98.0800584 107.9417516  34.6160138  98.9796619 108.7679421  33.7215853
 100.8565143 101.1419392  46.9300699 100.8241463 100.2035393  47.1160383
 101.4665767 101.2203429  46.1966524  92.6948474 100.0115445  32.9727903
  93.6407579  99.8821653  33.0416321  92.3162719  99.2730107  33.4497331
 101.0059632  97.9330435  46.9758982 100.4898681  97.1488892  46.7888911
 101.8899580  97.6049152  47.1405502  98.6670359  91.6771451  42.9354795
  98.4695180  91.3686539  43.8198127  99.2770064  92.4033090  43.0652725
 106.6741693 102.2035399  46.0706736 107.4045082 101.9420687  46.6314439
 106.0648639 101.4664121  46.1108804 104.7556990 100.3443261  46.6681187
 104.0290154 100.2099226  46.0597679 104.3404277 100.6520090  47.4737905
  92.5787167 104.0633191  54.4328560  93.4990176 104.2411790  54.6268607
  92.5436750 103.1189236  54.2808259  90.8791391  97.9365421  32.9082788
  89.9722847  97.6398534  32.9845502  91.1567372  97.6395239  32.0417075
  81.7969332  99.2571785  43.3581835  81.4772116  98.4037093  43.0656209
  81.2502760  99.4720363  44.1139802  85.5749239 101.9734226  47.0751341
  85.7935249 102.9051333  47.0939375  85.9875013 101.6142200  47.8606145
  92.4953457  92.4802311  39.0627030  91.6854185  92.1349396  39.4382276
  93.1837874  92.1709855  39.6514641  94.4244005  91.5580358  40.6851326
  94.9775044  91.9775811  41.3441349  94.6614092  90.6316106  40.7274282
  90.4477105  97.5467431  56.4654090  90.3473832  98.4961788  56.3966181
  90.2298647  97.2185670  55.5930160  89.6490176  94.7952356  33.0494768
  90.5109340  95.1207255  33.3090585  89.8340520  94.0083852  32.5367833
  81.6657592 102.8774696  45.3274956  80.9721063 102.4628649  44.8144911
  82.4130583 102.9195233  44.7308375  97.8022812  93.6680883  40.1929991
  97.2221482  94.3265687  39.8108043  97.5358745  92.8458228  39.7817408
  96.2526379  93.0685941  42.3951311  96.7526157  93.1802475  41.5865630
  96.8961987  92.7646993  43.0352119  90.3108375 100.9764570  55.2819152
  89.8275456 101.7764930  55.4883041  90.3969314 100.9872515  54.3286596
  83.5794334 102.8092950  43.2040971  83.5565022 102.9080637  42.2522854
  83.8894971 103.6558101  43.5258137  86.2381712 104.8669105  47.3187586
  87.1924966 104.8353047  47.2517517  86.0394236 104.4059729  48.1337812
  86.8281094 103.4370221  49.8858383  87.6473983 103.9314300  49.9093221
  87.1017902 102.5202189  49.8575951  96.5847691  95.8280973  39.2486339
  95.6973546  96.1130624  39.0306534  97.0001680  95.6674737  38.4013616
  99.9362227  95.8527494  42.9640678 100.7122617  96.3423947  43.2365295
  99.2110361  96.2785549  43.4212548 102.3734785  96.5655114  44.0214619
 102.9679276  96.3250849  43.3107927 102.4461369  95.8462244  44.6488155
  84.5931941 110.4088724  44.3357783  84.4586409 109.6489125  43.7695782
  84.1764003 111.1329624  43.8686572  95.7290904 105.5925648  33.3434359
  96.4326754 105.7975650  33.9592014  95.0053553 106.1602410  33.6083442
  96.5588714 101.3435509  39.4636629  96.5023916 101.8004061  38.6244261
  97.1117057 100.5826194  39.2859472 100.3693520  97.1325241  40.2886748
 100.1130454  96.7321877  41.1194956  99.7446388  97.8469035  40.1636888
 104.6805858  99.8721314  42.7958040 104.1205416  99.9414504  43.5689602
 104.0749361  99.6962299  42.0757536  87.7501067 111.3058041  44.5476226
  87.6333451 112.2503474  44.4454916  86.9293513 111.0031603  44.9362025
  97.6377601 106.0308177  35.3932819  98.4723205 105.5989376  35.2110294
  97.4761944 105.8590191  36.3209713  97.2923494 102.5340291  36.7589158
  97.2372297 102.3684562  35.8177602  96.6669549 103.2416323  36.9151348
  82.0816009  97.7708355  50.5850580  82.7274872  97.2607309  51.0737805
  81.8733160  98.5077037  51.1594006  94.6069401 104.8389202  56.0842721
  95.4760560 105.0129855  55.7229356  94.1276152 105.6583619  55.9618450
  88.7755581 111.9586303  47.7632155  89.6782828 111.9909914  48.0798649
  88.5492951 111.0286754  47.7778490  90.5309183 110.7117290  44.4242233
  89.5804814 110.7119152  44.3106605  90.8341669 109.9650024  43.9078268
  94.4171738  88.6291176  40.5920413  93.6504134  88.0749663  40.7377096
  94.8282443  88.7013045  41.4534565  86.4213500  94.9175972  54.6825595
  87.2844961  94.5612777  54.8928919  85.8478910  94.5789867  55.3700999
 106.2661876 116.5477828  45.4887996 106.9040286 116.4284576  44.7851336
 106.1482719 117.4958672  45.5475948 103.0751583 116.5005256  45.4249520
 102.7370094 116.3846321  44.5370055 103.9441351 116.0996422  45.4050526
  98.9338398 118.3540733  41.4146411  98.3703264 118.2630670  40.6462699
  98.8190794 117.5340637  41.8948904 103.5571366 117.6540108  51.3835726
 103.5460007 117.2592906  50.5116229 103.7192005 116.9206181  51.9769497
  96.4802830 119.8491924  44.2530632  97.2724122 119.5082749  43.8376931
  96.7199481 119.9586899  45.1732785 104.5137957 122.0211701  36.7260876
 103.8625937 122.6065781  36.3394890 105.3082320 122.5517895  36.7855914
  98.4393584 119.1100838  37.1248010  99.2124460 118.5629825  36.9860886
  98.7918983 119.9745087  37.3362472 100.2778627 120.4377220  50.3314910
  99.9868493 121.3422851  50.2161576 100.9135611 120.4793748  51.0458979
 101.2034834 117.8154068  46.9216269 101.7998406 117.5910091  46.2073232
 101.2609805 117.0738814  47.5241717 100.7759862 115.2693504  34.7566460
 101.0285383 114.7475025  33.9949923  99.8384421 115.1059649  34.8593144
 105.8203145 114.2729282  42.5641204 106.6066234 113.8548705  42.2131621
 106.0841849 115.1775374  42.7322852 105.9913222 119.7102132  37.2629860
 105.3559055 119.7836759  37.9750765 105.6610629 120.2995731  36.5848940
 111.2211572 114.2104515  43.4674182 111.9536744 113.6403732  43.7012012
 110.4650928 113.8226116  43.9080688 100.4956151 117.1721610  36.9590835
 100.3792409 116.4966513  37.6271920 100.6058411 116.6853984  36.1422988
 102.8387692 116.6331757  40.6637525 102.4745899 116.1062378  41.3750446
 103.6954808 116.2430226  40.4904010 108.7436992 107.9226089  47.9268791
 108.4120317 108.7921500  47.7030006 108.1482606 107.6062373  48.6062821
 102.4793179 111.6621657  35.6598873 102.6467581 112.5301893  36.0269344
 102.2890348 111.8248938  34.7360162 105.2368512 120.1238635  47.3264703
 104.9369235 121.0263674  47.2180511 104.8919572 119.8570819  48.1785856
  98.6880993 116.5752432  43.3601408  97.7631490 116.4428646  43.5679100
  98.9365407 117.3546652  43.8571350 108.6365656 112.6421176  45.0062141
 107.7282533 112.5736584  44.7120902 108.5853252 113.1193121  45.8343966
 102.4582400 114.1179314  36.6445540 102.3382025 114.5636365  37.4831020
 101.7634988 114.4664632  36.0859078  96.0489805 116.2185706  44.1945197
  96.1782186 116.4720185  45.1084609  95.3687256 116.8113414  43.8749852
 100.2189292 126.8882956  40.2935671 100.1413321 127.8390781  40.3724152
  99.6150935 126.5428828  40.9510597 102.7106522 114.0610821  52.9497038
 101.9339856 114.6204741  52.9399903 103.3497085 114.5467604  53.4711908
 110.5027302 110.8437614  46.7840015 109.8601682 111.1370147  46.1379809
 109.9982231 110.7290534  47.5893211 108.1567466 114.5900787  37.4725874
 109.0685322 114.8228174  37.2973571 107.6477113 115.1737831  36.9100953
 100.9652894 116.8696275  52.5115005 101.7067578 117.4081319  52.2349829
 100.2589879 117.4962563  52.6686557 106.4408233 119.0125415  51.1087167
 106.8491590 118.5707826  50.3641799 105.7185495 118.4378043  51.3621359
 102.7939304 113.9498022  48.4820723 103.6400499 114.3737435  48.6255372
 102.7337941 113.2931646  49.1759287 106.7637048 119.5726606  44.8639455
 106.1345911 119.7372320  44.1615523 106.3762710 119.9868215  45.6350419
 110.6426280 120.5081044  42.2183819 109.9577318 120.8879945  41.6680852
 110.7270129 121.1176370  42.9515767 105.9438749 111.6102390  50.1401897
 105.6999681 112.3644451  49.6036173 106.2198679 111.9887738  50.9749144
 107.8977212 118.1541003  48.8179163 108.1094107 118.7972762  48.1413544
 107.8506960 117.3203319  48.3501093 105.5003441 110.7658823  45.7215735
 104.6387920 111.0640077  46.0132472 105.5265875 110.9829222  44.7896767
 102.3165010 119.3101014  42.1289541 102.7803356 119.5888717  41.3394163
 102.0521808 118.4084458  41.9462631  99.2089091 118.8572495  45.0669304
  99.7790448 119.2859764  44.4286788  99.7997203 118.5755080  45.7653489
 101.2533896 115.4324166  38.9379106 101.9557939 115.8845210  39.4053032
 100.9214525 114.7907985  39.5658999  99.7014258 114.0235923  53.3130315
  99.0712918 114.7052204  53.5465712  99.5950345 113.9119004  52.3683453
  94.9959230 113.6907719  44.2396239  94.2058284 113.9465247  43.7636350
  95.4870477 114.5056057  44.3448280 109.0123040 121.0312958  46.9901520
 109.8340483 120.6293145  46.7084202 109.0085442 120.9281192  47.9417636
  96.9473975 114.0552298  41.1979716  96.1505139 114.1670992  41.7163212
  96.7199568 114.3938950  40.3320606 102.7779643 120.5797001  49.1462231
 102.8424076 121.0417409  49.9820402 102.0690567 119.9494366  49.2744540
  93.2796933 113.9438209  46.6711230  93.5304971 114.8285219  46.9368806
  93.8156481 113.7642811  45.8986322 117.1029033 117.3751706  43.3386492
 116.3492741 116.8059105  43.1830496 117.2376574 117.3414371  44.2857126
 102.4927661 122.2465109  39.0141211 102.3573335 123.0916644  39.4426059
 103.0337473 122.4484386  38.2507145  98.9795000 108.3256689  55.6755566
  98.5861946 107.7722887  56.3503210  99.7961141 108.6367267  56.0662084
  95.9457058 119.7640547  39.5869136  96.4581579 120.5583797  39.7374701
  96.5979771 119.0666837  39.5202737  97.7551943 122.8806303  41.6691889
  97.9318571 123.8024268  41.4812873  98.5508776 122.5664722  42.0986269
 101.8962961 109.7414568  53.2675823 102.6372675 110.3421721  53.1880285
 102.1280884 108.9992205  52.7093865  97.0404299 114.9270935  51.5454052
  96.9257814 114.0256192  51.8461151  96.1848817 115.1734632  51.1938869
 104.1196137 122.8688675  53.1441553 103.6759991 122.0825054  52.8262457
 104.7813351 123.0567826  52.4785444  98.8783258 124.3984477  47.6702231
  99.4290683 124.2701540  46.8979225  98.0394734 124.6979366  47.3197124
 106.2177375 123.1491475  51.1722954 106.1995850 123.9700356  50.6803223
 107.1397295 123.0245550  51.3973095 102.6750429 120.6635605  52.0146463
 103.2078766 119.9023893  51.7845771 102.1464510 120.3709256  52.7570617
 105.8420124 105.7695671  47.5440104 105.4984394 106.6597312  47.4679215
 106.2099087 105.5797328  46.6809689  93.9105975 118.0929201  40.3628706
  94.7481197 118.5026209  40.1462414  94.0884243 117.1528643  40.3328900
 105.8070407 115.7604282  36.0512539 105.2917030 116.5308886  36.2900927
 105.5347715 115.0869418  36.6745601 103.3917518 110.6053983  41.1097778
 102.5359114 110.2160833  40.9303417 103.8044470 110.6845943  40.2497563
 104.9216665 108.1400326  45.5089338 104.4181460 108.1030461  44.6957143
 105.2147272 109.0493069  45.5685994 101.1659551 108.2239056  44.5155519
 102.0312547 108.0281864  44.1561409 101.2337059 107.9949407  45.4424876
 110.7804681 118.5136636  37.9865713 110.0034124 118.1747796  37.5420875
 111.4596162 118.5189260  37.3120678 105.5956710 113.6331374  37.8772321
 105.2906846 113.9477523  38.7282464 106.5487152 113.7112794  37.9199654
 104.0403142 119.7921597  39.5265275 103.5124504 119.0574357  39.2138512
 103.5390645 120.5696274  39.2805243 109.0195988 117.9870618  44.6432321
 108.3619662 118.6769879  44.7312450 109.8236387 118.3767050  44.9866307
  98.7721870 110.4541263  41.8871886  99.3465622 110.2316445  41.1545079
  99.3592852 110.5229958  42.6400487 107.8301447 116.3414990  42.6936263
 108.3433329 116.9744982  43.1957972 108.4802671 115.7416186  42.3279623
  99.0991457 112.4845724  35.9067771  98.2628769 112.8220411  36.2277046
  98.9596226 112.3494704  34.9694908 101.0744537 107.3282512  40.6146956
 100.4208950 107.0131530  39.9903570 101.0325011 106.7058253  41.3406778
 102.1855742 117.6101807  32.5300248 101.2782804 117.3791061  32.7291397
 102.6826774 116.8139427  32.7174229 105.0923821 126.3199315  35.4496934
 104.4185520 126.6231011  36.0581892 105.4789643 127.1228395  35.1002391
 104.3082278 113.8164446  44.9394603 103.3904839 114.0379393  44.7816291
 104.7242421 113.8910756  44.0806311 105.0917325 115.2155862  40.0697283
 105.8389144 115.7277259  39.7604405 105.3608915 114.8939914  40.9301677
 103.3643976 117.7114402  37.0524238 102.4555195 117.4273435  37.1496707
 103.3939059 118.1313481  36.1927545 108.5963243 121.3220992  40.8215405
 108.1425570 120.4811902  40.8780596 107.9657210 121.9582390  41.1590185
 107.5396163 112.2512978  42.0516073 106.8018919 111.7390364  42.3826315
 107.7922936 111.8113359  41.2399350 107.0396182 123.1597488  41.7565223
 107.3319157 123.7202546  41.0377589 107.5494803 123.4526049  42.5118383
 107.6407790 105.0289230  42.6457842 107.9466667 104.1686593  42.3583757
 108.3660395 105.6206850  42.4456836  93.9332146 115.4319916  41.0339440
  93.7356546 114.8389277  40.3090507  93.3778810 115.1272127  41.7515379
 101.9128870 115.3243023  43.1534033 101.9677479 114.3716859  43.0776510
 101.1020072 115.4802462  43.6375331 103.0620063 119.2523146  34.3912316
 102.6239493 118.5359005  33.9317954 103.8030504 119.4799261  33.8297408
  99.8521230 113.9420083  40.9124412  99.0389095 114.2414253  41.3189604
 100.3480224 113.5475771  41.6298894 102.0029807 123.9377840  42.8458677
 101.9605986 124.1638686  41.9167209 102.9192506 123.7041214  42.9944478
 105.4495441 114.4061907  49.7439306 105.8044829 114.6333380  50.6033772
 106.0967572 114.7380284  49.1216561 111.1793178 117.5280343  40.4488635
 111.0411077 117.7181939  39.5209824 110.8229397 118.2899726  40.9056686
  99.3435304 111.5138438  46.5285647  99.9834684 111.3727197  45.8308610
  98.5112835 111.2272952  46.1524249 111.2062558 119.5956870  45.4599906
 111.6399064 119.5032159  46.3082960 111.9194139 119.5714370  44.8219922
 100.1195608 120.8140869  42.6420639 100.9136207 120.3191189  42.4403214
  99.4087301 120.2858732  42.2788345 104.9390453 123.1958964  46.9933007
 104.9927475 123.7649900  47.7610723 104.0705234 123.3660849  46.6287044
  96.4278372 114.9583950  38.7180392  95.4975960 114.8968406  38.9350354
  96.5235844 114.4359903  37.9217033  96.3463921 111.4838763  41.3058634
  96.6070738 112.3984096  41.1967794  97.1681093 111.0163206  41.4555247
  97.8188846 112.8976520  48.4757458  98.4911900 112.6893882  47.8270107
  96.9918633 112.6998606  48.0362691 112.0678107 119.6380571  47.9932792
 112.2613997 120.5426381  48.2392067 111.9678726 119.1787990  48.8271377
 103.7214418 109.5238461  50.4923119 103.0742333 110.2228411  50.3987596
 104.4915434 109.9574605  50.8599367 107.1293216 119.7887313  53.5673672
 106.9778722 119.5597865  52.6503756 107.1197896 120.7457915  53.5805017
 103.8978552 117.3619226  48.5519939 104.8270612 117.5130386  48.3788906
 103.4769582 117.4503247  47.6968585 102.6966884 121.3869891  46.3218476
 102.5577970 121.0188675  47.1944415 101.9081480 121.9017530  46.1502434
 103.2915036 126.4878987  37.6644013 103.4666792 126.0167030  38.4789636
 102.6047824 127.1144753  37.8925274 104.2472099 120.7651493  43.7107314
 103.9121932 120.7252263  44.6064964 103.7476045 120.0996209  43.2377724
  98.2216343 116.1719123  49.2359895  98.0836141 115.4399362  49.8371434
  99.1321267 116.0828023  48.9544083 107.1831291 118.1107528  33.9844374
 106.5660462 117.3854356  33.8877427 106.7147780 118.8716888  33.6411448
 100.8498644 115.8839083  48.7243575 101.5598263 115.2432275  48.6830193
 100.8067952 116.1351977  49.6469756 108.8385423 122.8206436  51.6450154
 108.7797969 122.1365656  50.9780737 109.2404941 123.5625426  51.1930780
  99.5627578 112.8704301  50.5439215  99.0264935 112.4195039  51.1960811
  98.9744286 113.0050209  49.8009679  97.8576121 129.6368350  44.4383873
  98.0972720 130.2686874  45.1162892  97.0145318 129.2856390  44.7249232
  98.9729837 112.3292952  33.1065678  98.0959303 112.2081753  32.7427925
  99.4487590 111.5379030  32.8544567 108.8402830 120.7846020  49.8764134
 107.9529609 120.4471942  49.9990533 109.4101381 120.0529051  50.1132899
  90.4931977 117.1170112  43.2007185  91.1803017 116.8031842  42.6128201
  90.3380106 118.0211476  42.9274437  95.2966699 112.0060308  47.6292209
  95.2124888 111.3985978  46.8942619  94.4749406 112.4969327  47.6301705
 102.3703983 125.4447472  46.8425377 102.2974155 126.2502444  47.3544682
 101.9281376 125.6439438  46.0173399 102.1593763 124.6819242  40.3528199
 101.3761285 125.2240922  40.4466423 102.8586508 125.1993222  40.7522440
 105.4690413 110.4913872  42.9962404 105.9659113 109.7383834  42.6763474
 104.6977395 110.5278188  42.4305613 113.3220171 116.1954237  44.6380696
 113.3110047 117.0778953  44.2674629 112.4537550 115.8425788  44.4435233
 104.8302667 125.3434306  48.9983536 105.5430639 125.9781771  48.9259437
 104.3392696 125.4398172  48.1823538 106.5520194 119.2485559  40.5700827
 105.6176473 119.3687021  40.4005532 106.7296862 118.3458026  40.3060837
 102.0525382 112.6331255  42.7234089 101.6823169 112.0802295  43.4114994
 102.5484474 112.0289388  42.1709089 109.9392745 115.0902878  41.1050862
 110.4053197 115.9230870  41.0311164 110.3900246 114.6247860  41.8096120
  99.8814580 123.0928750  49.8189107 100.5824040 123.7265233  49.9718501
  99.4109695 123.4343481  49.0584746 108.0068976 121.4346700  38.1037014
 108.2828820 121.3203294  39.0130888 107.1373475 121.0364184  38.0649187
 107.9109408 107.4583465  45.1441763 106.9972488 107.6887692  45.3123970
 108.3402509 107.5421909  45.9955795 107.6815866 115.6473357  47.6441657
 107.0287317 115.8949265  46.9894110 108.0596246 114.8337495  47.3104134
 104.6423040 125.6833050  41.7469827 104.8245435 124.8654706  42.2097580
 105.4656026 125.9000743  41.3094717 104.9765206 124.6101236  39.0084876
 105.5052972 124.0993690  38.3955038 105.2393425 124.2943766  39.8730409
 103.7303439 116.3893168  54.1307694 103.0544076 116.2887298  54.8010069
 104.5531073 116.2332382  54.5943691  95.4782298 122.6265105  46.7520209
  96.0635735 121.8808793  46.8848114  95.2807137 122.9369062  47.6356873
  98.3320954 125.6616352  41.7682652  97.6631329 126.1462480  41.2846692
  98.1933823 125.9085573  42.6826030  90.0699953 115.1970705  45.4724652
  90.1084053 114.6634296  46.2661771  89.5640246 114.6705911  44.8535630
 102.4726222 127.6960096  48.3665310 103.0244530 127.8591717  49.1314395
 102.8132416 128.2864534  47.6945335  97.4490716 110.0435246  48.9687195
  97.5132042 110.9050076  48.5564592  97.3857836 109.4309247  48.2359553
  96.9242988 112.1158378  52.6160229  97.5515027 111.7335455  53.2297753
  96.0670907 111.8972580  52.9815922 107.3237097 122.5221353  54.2213964
 107.8677001 123.1351311  53.7268919 106.7423941 123.0800932  54.7380977
  93.7008531 113.9234807  38.5478584  93.9961972 113.0145486  38.4945638
  92.7996567 113.9022547  38.2259586 105.6094610 125.6442071  45.3528992
 105.4845749 124.8431811  44.8439938 106.2673701 126.1388265  44.8642962
  97.2302778 111.9990804  44.5306132  96.5089364 112.6126771  44.3913606
  98.0196034 112.5348569  44.4522778 107.6729518 123.4451091  46.9808542
 106.7259853 123.3256443  46.9086869 108.0212291 122.5573589  47.0634804
 100.0329091 109.3345230  50.8046784 100.5563493 109.5807527  51.5673093
  99.8141425 110.1665265  50.3849922  95.4296372 111.6048905  38.6717909
  95.1009079 110.7246284  38.4893015  95.7835743 111.5496574  39.5594298
 104.6775951 123.2403808  43.1812895 104.5300914 122.3120515  43.3620465
 105.5029445 123.2623898  42.6969970  98.5438196 111.8921875  39.0393387
  98.8834268 112.4207796  38.3171995  98.9910316 112.2302281  39.8151953
 108.2810073 124.0632366  44.2677767 109.2056621 123.8575228  44.1302218
 108.1125376 123.8148767  45.1767109 101.2381636 110.2758925  48.4896455
 100.8978457 109.4766738  48.8917135 100.5320643 110.5760636  47.9173288
 101.8898108 107.3608238  46.9423778 102.7124178 106.8868716  46.8202668
 102.1336172 108.1398722  47.4422464 100.5306343 110.3896496  37.2386679
 101.2514705 110.7677749  36.7350396  99.9071647 111.1085373  37.3421657
 104.6737466 111.0941645  38.1745012 104.8901080 111.9766283  37.8733840
 104.1931533 110.7027859  37.4450654  99.4136687 114.0527358  44.7515756
  99.2681268 114.3667661  45.6440038  98.9361891 114.6712259  44.1986655
 101.2733070 111.0429906  44.7996646 101.2594639 110.1471000  44.4628944
 101.9905498 111.0500570  45.4334932 103.1259201 111.4767247  46.8449773
 102.8676978 112.3984317  46.8434104 102.5944241 111.0797681  47.5350237
 108.0705389 124.5818034  39.6239859 108.2442267 124.0164456  38.8713711
 108.5634281 125.3818929  39.4419349  93.8882349 116.5932703  47.6903418
  93.3435817 117.3692511  47.8223692  94.7661699 116.9403507  47.5322539
 100.6769966 109.9244287  40.0684216 100.7985877 108.9960933  40.2675104
 100.3872008 109.9382973  39.1562531 103.5461156 107.6099197  43.2050936
 103.5682853 107.6738530  42.2502915 103.9629215 106.7703706  43.3991442
 113.9244780 117.3454457  41.2430158 114.3675927 116.5961782  40.8449282
 113.0471291 117.3364593  40.8603890 109.0580562 123.8984798  36.7236757
 109.7531466 124.5191491  36.9424072 109.4003712 123.0480149  36.9989135
  94.6748371 115.7202599  50.5833574  93.9330107 115.8685234  51.1698205
  94.3541115 115.9810865  49.7200324 110.9571985 121.3484504  38.2524088
 111.4823309 121.6871776  37.5273408 110.8694337 120.4131519  38.0687222
 102.6192034 125.2618577  50.3813964 102.9279160 125.0167724  51.2536664
 103.4167516 125.4665216  49.8932835 102.6412646 127.4156487  42.6119341
 102.2017636 126.9232866  43.3052198 103.3920763 126.8729455  42.3711416
  95.1204985 123.6068028  42.6143969  95.9463005 123.3071800  42.2342613
  94.7699037 122.8375650  43.0633758 100.0886518 122.9594496  44.6841643
  99.4666527 122.2965201  44.3843870 100.7591385 122.9855628  44.0015290
  93.3213590 121.5254354  43.5732903  92.4845498 121.0976529  43.3916904
  93.2937235 121.7186798  44.5103694 100.1611045 111.4376284  54.2774149
 100.2099201 112.3138407  53.8951918 100.7033560 110.8953677  53.7045792
 110.6465891 121.9817407  53.5575286 109.8561435 121.9641546  53.0179785
 110.4099246 122.5205701  54.3124322 110.7663766 118.8309874  50.8708014
 110.8161771 118.6659881  51.8123537 110.6577689 117.9637133  50.4805895
  99.6500025 121.5098419  38.1600103  99.7988145 122.1933884  37.5066776
 100.4566468 121.4903509  38.6749559 108.0567528 114.8140802  52.1867321
 108.9577391 114.6747267  51.8951319 108.1315503 114.9795257  53.1265498
 102.3910334 112.1907656  51.0320507 101.5213643 112.4841222  50.7603096
 102.6269814 112.7748101  51.7527771 112.2681963 121.2506815  51.1150036
 111.9766771 121.6136796  51.9513497 111.6554094 120.5373823  50.9363368
 113.4677645 118.8159695  43.6352606 114.3024537 119.2549499  43.7990166
 113.6036774 118.3398348  42.8160852 110.5169151 116.3739430  49.5830094
 110.9923273 116.5667076  48.7748945 109.5934716 116.4298616  49.3373477
  97.4052658 117.5363597  39.1661172  97.1598700 116.6325927  39.3641382
  97.5748572 117.5380747  38.2240650 105.0949368 108.4087273  48.5485928
 105.6131311 109.1448300  48.2232416 104.7404500 108.7151267  49.3832687
  96.6748305 113.2691955  36.6647334  95.9817550 113.3436310  36.0087370
  96.4300057 112.5052298  37.1868850 105.3461962 104.8287556  44.0686824
 105.6263716 104.1610745  44.6947251 106.1312569 105.0216652  43.5561488
 103.1495430 124.0046550  35.6311851 102.5769397 124.6236737  35.1782322
 103.7228224 124.5545911  36.1651773 109.2170820 113.2505190  47.8158399
 110.1688243 113.3503288  47.8370623 109.0474271 112.4583458  48.3256484
 107.2385200 110.3360773  48.0017800 106.6435132 110.6165786  47.3064289
 106.9534896 110.8254674  48.7734541 106.3692690 124.2883700  36.7620433
 107.3023363 124.2229262  36.9653308 106.2815903 125.1239967  36.3034966
 108.9980707 123.6049570  33.7224380 108.9194338 123.2709434  34.6160138
 109.8190373 124.0971338  33.7215853 111.6958898 116.4711310  46.9300699
 111.6635218 115.5327310  47.1160383 112.3059522 116.5495346  46.1966524
 103.5342229 115.3407363  32.9727903 104.4801333 115.2113571  33.0416321
 103.1556474 114.6022024  33.4497331 111.8453386 113.2622353  46.9758982
 111.3292435 112.4780810  46.7888911 112.7293335 112.9341070  47.1405502
 109.5064113 107.0063369  42.9354795 109.3088934 106.6978457  43.8198127
 110.1163819 107.7325007  43.0652725 117.5135448 117.5327316  46.0706736
 118.2438836 117.2712605  46.6314439 116.9042393 116.7956038  46.1108804
 115.5950745 115.6735179  46.6681187 114.8683908 115.5391144  46.0597679
 115.1798032 115.9812008  47.4737905 103.4180921 119.3925109  54.4328560
 104.3383931 119.5703708  54.6268607 103.3830504 118.4481154  54.2808259
 101.7185146 113.2657339  32.9082788 100.8116601 112.9690452  32.9845502
 101.9961127 112.9687157  32.0417075  92.6363086 114.5863702  43.3581835
  92.3165871 113.7329011  43.0656209  92.0896514 114.8012280  44.1139802
  96.4142994 117.3026143  47.0751341  96.6329004 118.2343251  47.0939375
  96.8268768 116.9434118  47.8606145 103.3347212 107.8094229  39.0627030
 102.5247940 107.4641314  39.4382276 104.0231629 107.5001772  39.6514641
 105.2637760 106.8872275  40.6851326 105.8168799 107.3067729  41.3441349
 105.5007846 105.9608024  40.7274282 101.2870859 112.8759349  56.4654090
 101.1867586 113.8253706  56.3966181 101.0692401 112.5477588  55.5930160
 100.4883931 110.1244274  33.0494768 101.3503095 110.4499172  33.3090585
 100.6734275 109.3375770  32.5367833  92.5051346 118.2066614  45.3274956
  91.8114818 117.7920567  44.8144911  93.2524337 118.2487150  44.7308375
 108.6416567 108.9972801  40.1929991 108.0615236 109.6557605  39.8108043
 108.3752500 108.1750145  39.7817408 107.0920133 108.3977858  42.3951311
 107.5919912 108.5094393  41.5865630 107.7355741 108.0938911  43.0352119
 101.1502129 116.3056488  55.2819152 100.6669211 117.1056848  55.4883041
 101.2363068 116.3164433  54.3286596  94.4188089 118.1384868  43.2040971
  94.3958777 118.2372555  42.2522854  94.7288725 118.9850018  43.5258137
  97.0775467 120.1961023  47.3187586  98.0318720 120.1644965  47.2517517
  96.8787990 119.7351646  48.1337812  97.6674849 118.7662139  49.8858383
  98.4867738 119.2606217  49.9093221  97.9411657 117.8494107  49.8575951
 107.4241445 111.1572891  39.2486339 106.5367300 111.4422542  39.0306534
 107.8395434 110.9966654  38.4013616 110.7755981 111.1819412  42.9640678
 111.5516371 111.6715864  43.2365295 110.0504115 111.6077466  43.4212548
 113.2128540 111.8947031  44.0214619 113.8073031 111.6542767  43.3107927
 113.2855123 111.1754162  44.6488155  95.4325695 125.7380642  44.3357783
  95.2980163 124.9781043  43.7695782  95.0157758 126.4621542  43.8686572
 106.5684658 120.9217566  33.3434359 107.2720509 121.1267568  33.9592014
 105.8447307 121.4894328  33.6083442 107.3982469 116.6727427  39.4636629
 107.3417670 117.1295978  38.6244261 107.9510811 115.9118112  39.2859472
 111.2087275 112.4617159  40.2886748 110.9524209 112.0613794  41.1194956
 110.5840143 113.1760953  40.1636888 115.5199613 115.2013232  42.7958040
 114.9599171 115.2706421  43.5689602 114.9143116 115.0254217  42.0757536
  98.5894821 126.6349959  44.5476226  98.4727205 127.5795392  44.4454916
  97.7687268 126.3323521  44.9362025 108.4771356 121.3600095  35.3932819
 109.3116960 120.9281293  35.2110294 108.3155699 121.1882109  36.3209713
 108.1317248 117.8632208  36.7589158 108.0766052 117.6976480  35.8177602
 107.5063303 118.5708241  36.9151348  92.9209763 113.1000273  50.5850580
  93.5668627 112.5899227  51.0737805  92.7126914 113.8368954  51.1594006
 105.4463155 120.1681120  56.0842721 106.3154315 120.3421772  55.7229356
 104.9669907 120.9875537  55.9618450 101.4413374 107.3640317  36.3374477
 101.4292043 108.3082157  36.4942747 102.3336795 107.1810463  36.0433938
  99.6149335 127.2878221  47.7632155 100.5176582 127.3201831  48.0798649
  99.3886706 126.3578672  47.7778490 101.3702937 126.0409208  44.4242233
 100.4198569 126.0411069  44.3106605 101.6735424 125.2941942  43.9078268
 105.2565493 103.9583094  40.5920413 104.4897889 103.4041581  40.7377096
 105.6676198 104.0304963  41.4534565  97.2607254 110.2467890  54.6825595
  98.1238716 109.8904694  54.8928919  96.6872665 109.9081784  55.3700999
 117.1055631 131.8769746  45.4887996 117.7434041 131.7576493  44.7851336
 116.9876474 132.8250590  45.5475948 113.9145337 131.8297174  45.4249520
 113.5763849 131.7138239  44.5370055 114.7835105 131.4288339  45.4050526
 109.7732153 133.6832651  41.4146411 109.2097018 133.5922587  40.6462699
 109.6584548 132.8632555  41.8948904 114.3965120 132.9832026  51.3835726
 114.3853761 132.5884824  50.5116229 114.5585760 132.2498098  51.9769497
 107.3196585 135.1783842  44.2530632 108.1117877 134.8374667  43.8376931
 107.5593235 135.2878817  45.1732785 111.1172381 135.7669138  50.3314910
 110.8262247 136.6714768  50.2161576 111.7529366 135.8085665  51.0458979
 112.0428588 133.1445986  46.9216269 112.6392160 132.9202009  46.2073232
 112.1003560 132.4030732  47.5241717 116.6596899 129.6021200  42.5641204
 117.4459989 129.1840623  42.2131621 116.9235604 130.5067292  42.7322852
 122.0605327 129.5396433  43.4674182 122.7930499 128.9695650  43.7012012
 121.3044682 129.1518033  43.9080688 113.6781446 131.9623675  40.6637525
 113.3139654 131.4354296  41.3750446 114.5348562 131.5722144  40.4904010
 119.5830747 123.2518007  47.9268791 119.2514072 124.1213418  47.7030006
 118.9876360 122.9354291  48.6062821 113.3186933 126.9913574  35.6598873
 113.4861336 127.8593811  36.0269344 113.1284102 127.1540856  34.7360162
 116.0762266 135.4530553  47.3264703 115.7762990 136.3555592  47.2180511
 115.7313326 135.1862736  48.1785856 109.5274748 131.9044350  43.3601408
 108.6025244 131.7720564  43.5679100 109.7759161 132.6838569  43.8571350
 119.4759410 127.9713093  45.0062141 118.5676288 127.9028502  44.7120902
 119.4247006 128.4485038  45.8343966 113.2976154 129.4471232  36.6445540
 113.1775779 129.8928282  37.4831020 112.6028743 129.7956549  36.0859078
 106.8883559 131.5477624  44.1945197 107.0175940 131.8012102  45.1084609
 106.2081010 132.1405332  43.8749852 113.5500276 129.3902739  52.9497038
 112.7733610 129.9496659  52.9399903 114.1890839 129.8759522  53.4711908
 121.3421057 126.1729532  46.7840015 120.6995437 126.4662065  46.1379809
 120.8375985 126.0582452  47.5893211 111.8046648 132.1988192  52.5115005
 112.5461333 132.7373236  52.2349829 111.0983634 132.8254481  52.6686557
 117.2801988 134.3417333  51.1087167 117.6885344 133.8999743  50.3641799
 116.5579249 133.7669960  51.3621359 113.6333058 129.2789940  48.4820723
 114.4794253 129.7029353  48.6255372 113.5731696 128.6223564  49.1759287
 117.6030803 134.9018523  44.8639455 116.9739665 135.0664237  44.1615523
 117.2156465 135.3160133  45.6350419 116.7832503 126.9394308  50.1401897
 116.5393435 127.6936368  49.6036173 117.0592434 127.3179655  50.9749144
 118.7370966 133.4832920  48.8179163 118.9487861 134.1264680  48.1413544
 118.6900714 132.6495237  48.3501093 116.3397195 126.0950741  45.7215735
 115.4781674 126.3931994  46.0132472 116.3659630 126.3121140  44.7896767
 113.1558765 134.6392931  42.1289541 113.6197110 134.9180634  41.3394163
 112.8915563 133.7376376  41.9462631 110.0482846 134.1864413  45.0669304
 110.6184203 134.6151681  44.4286788 110.6390957 133.9046998  45.7653489
 112.0927651 130.7616084  38.9379106 112.7951694 131.2137127  39.4053032
 111.7608279 130.1199903  39.5658999 110.5408012 129.3527840  53.3130315
 109.9106673 130.0344121  53.5465712 110.4344100 129.2410922  52.3683453
 105.8352985 129.0199636  44.2396239 105.0452039 129.2757165  43.7636350
 106.3264232 129.8347974  44.3448280 107.7867730 129.3844216  41.1979716
 106.9898893 129.4962910  41.7163212 107.5593322 129.7230868  40.3320606
 113.6173398 135.9088919  49.1462231 113.6817830 136.3709326  49.9820402
 112.9084321 135.2786284  49.2744540 104.1190688 129.2730127  46.6711230
 104.3698726 130.1577137  46.9368806 104.6550236 129.0934728  45.8986322
 109.8188755 123.6548606  55.6755566 109.4255700 123.1014805  56.3503210
 110.6354895 123.9659185  56.0662084 106.7850813 135.0932464  39.5869136
 107.2975333 135.8875715  39.7374701 107.4373525 134.3958755  39.5202737
 108.5945697 138.2098221  41.6691889 108.7712326 139.1316185  41.4812873
 109.3902531 137.8956640  42.0986269 112.7356716 125.0706485  53.2675823
 113.4766429 125.6713639  53.1880285 112.9674639 124.3284123  52.7093865
 107.8798054 130.2562853  51.5454052 107.7651569 129.3548110  51.8461151
 107.0242572 130.5026549  51.1938869 114.9589892 138.1980593  53.1441553
 114.5153746 137.4116972  52.8262457 115.6207105 138.3859743  52.4785444
 109.7177013 139.7276395  47.6702231 110.2684438 139.5993458  46.8979225
 108.8788489 140.0271284  47.3197124 113.5144184 135.9927522  52.0146463
 114.0472521 135.2315811  51.7845771 112.9858265 135.7001174  52.7570617
 116.6813879 121.0987588  47.5440104 116.3378148 121.9889230  47.4679215
 117.0492841 120.9089246  46.6809689 104.7499729 133.4221119  40.3628706
 105.5874951 133.8318127  40.1462414 104.9277997 132.4820561  40.3328900
 114.2311273 125.9345900  41.1097778 113.3752869 125.5452751  40.9303417
 114.6438224 126.0137861  40.2497563 115.7610419 123.4692243  45.5089338
 115.2575215 123.4322379  44.6957143 116.0541026 124.3784986  45.5685994
 112.0053305 123.5530973  44.5155519 112.8706302 123.3573782  44.1561409
 112.0730814 123.3241325  45.4424876 116.4350465 128.9623292  37.8772321
 116.1300600 129.2769441  38.7282464 117.3880907 129.0404711  37.9199654
 119.8589743 133.3162535  44.6432321 119.2013417 134.0061797  44.7312450
 120.6630142 133.7058967  44.9866307 109.6115624 125.7833181  41.8871886
 110.1859376 125.5608363  41.1545079 110.1986607 125.8521876  42.6400487
 118.6695201 131.6706908  42.6936263 119.1827083 132.3036900  43.1957972
 119.3196425 131.0708104  42.3279623 109.9385211 127.8137642  35.9067771
 109.1022523 128.1512329  36.2277046 109.7989981 127.6786622  34.9694908
 111.9138292 122.6574430  40.6146956 111.2602704 122.3423447  39.9903570
 111.8718766 122.0350170  41.3406778 115.1476032 129.1456364  44.9394603
 114.2298594 129.3671311  44.7816291 115.5636176 129.2202674  44.0806311
 115.9311080 130.5447779  40.0697283 116.6782899 131.0569176  39.7604405
 116.2002669 130.2231832  40.9301677 118.3789917 127.5804896  42.0516073
 117.6412674 127.0682282  42.3826315 118.6316691 127.1405277  41.2399350
 118.4801544 120.3581148  42.6457842 118.7860421 119.4978511  42.3583757
 119.2054149 120.9498768  42.4456836 104.7725900 130.7611834  41.0339440
 104.5750300 130.1681195  40.3090507 104.2172564 130.4564044  41.7515379
 112.7522624 130.6534941  43.1534033 112.8071234 129.7008777  43.0776510
 111.9413826 130.8094380  43.6375331 110.6914984 129.2712000  40.9124412
 109.8782850 129.5706171  41.3189604 111.1873978 128.8767689  41.6298894
 112.8423562 139.2669757  42.8458677 112.7999741 139.4930604  41.9167209
 113.7586261 139.0333132  42.9944478 116.2889196 129.7353825  49.7439306
 116.6438583 129.9625298  50.6033772 116.9361327 130.0672202  49.1216561
 110.1829059 126.8430356  46.5285647 110.8228438 126.7019115  45.8308610
 109.3506589 126.5564869  46.1524249 110.9589363 136.1432786  42.6420639
 111.7529961 135.6483106  42.4403214 110.2481055 135.6150649  42.2788345
 107.2672126 130.2875868  38.7180392 106.3369714 130.2260323  38.9350354
 107.3629598 129.7651821  37.9217033 107.1857675 126.8130681  41.3058634
 107.4464493 127.7276014  41.1967794 108.0074848 126.3455123  41.4555247
 108.6582601 128.2268438  48.4757458 109.3305654 128.0185800  47.8270107
 107.8312387 128.0290524  48.0362691 114.5608173 124.8530379  50.4923119
 113.9136088 125.5520329  50.3987596 115.3309188 125.2866523  50.8599367
 117.9686971 135.1179231  53.5673672 117.8172477 134.8889783  52.6503756
 117.9591650 136.0749833  53.5805017 114.7372307 132.6911144  48.5519939
 115.6664367 132.8422303  48.3788906 114.3163337 132.7795165  47.6968585
 113.5360639 136.7161808  46.3218476 113.3971724 136.3480593  47.1944415
 112.7475235 137.2309448  46.1502434 115.0865854 136.0943411  43.7107314
 114.7515686 136.0544181  44.6064964 114.5869800 135.4288127  43.2377724
 109.0610098 131.5011041  49.2359895 108.9229896 130.7691280  49.8371434
 109.9715021 131.4119941  48.9544083 111.6892399 131.2131000  48.7243575
 112.3992017 130.5724192  48.6830193 111.6461707 131.4643895  49.6469756
 110.4021332 128.1996218  50.5439215 109.8658690 127.7486957  51.1960811
 109.8138041 128.3342127  49.8009679 101.3325732 132.4462029  43.2007185
 102.0196771 132.1323759  42.6128201 101.1773860 133.3503394  42.9274437
 106.1360454 127.3352226  47.6292209 106.0518642 126.7277895  46.8942619
 105.3143160 127.8261244  47.6301705 116.3084168 125.8205789  42.9962404
 116.8052867 125.0675752  42.6763474 115.5371149 125.8570106  42.4305613
 124.1613925 131.5246155  44.6380696 124.1503801 132.4070870  44.2674629
 123.2931304 131.1717706  44.4435233 117.3913948 134.5777477  40.5700827
 116.4570227 134.6978939  40.4005532 117.5690617 133.6749943  40.3060837
 112.8919136 127.9623172  42.7234089 112.5216924 127.4094213  43.4114994
 113.3878229 127.3581306  42.1709089 120.7786500 130.4194796  41.1050862
 121.2446952 131.2522788  41.0311164 121.2294000 129.9539777  41.8096120
 110.7208335 138.4220667  49.8189107 111.4217794 139.0557150  49.9718501
 110.2503450 138.7635399  49.0584746 118.7503162 122.7875383  45.1441763
 117.8366242 123.0179610  45.3123970 119.1796264 122.8713827  45.9955795
 118.5209621 130.9765275  47.6441657 117.8681071 131.2241182  46.9894110
 118.8990001 130.1629413  47.3104134 114.5697194 131.7185086  54.1307694
 113.8937831 131.6179215  54.8010069 115.3924828 131.5624300  54.5943691
 106.3176053 137.9557022  46.7520209 106.9029490 137.2100710  46.8848114
 106.1200891 138.2660979  47.6356873 109.1714708 140.9908270  41.7682652
 108.5025083 141.4754397  41.2846692 109.0327578 141.2377490  42.6826030
 100.9093708 130.5262623  45.4724652 100.9477807 129.9926213  46.2661771
 100.4034001 129.9997828  44.8535630 108.2884470 125.3727163  48.9687195
 108.3525796 126.2341994  48.5564592 108.2251590 124.7601165  48.2359553
 107.7636743 127.4450296  52.6160229 108.3908781 127.0627373  53.2297753
 106.9064661 127.2264498  52.9815922 104.5402285 129.2526725  38.5478584
 104.8355726 128.3437403  38.4945638 103.6390321 129.2314464  38.2259586
 108.0696532 127.3282721  44.5306132 107.3483118 127.9418689  44.3913606
 108.8589788 127.8640486  44.4522778 110.8722846 124.6637148  50.8046784
 111.3957248 124.9099444  51.5673093 110.6535179 125.4957183  50.3849922
 106.2690127 126.9340822  38.6717909 105.9402833 126.0538201  38.4893015
 106.6229498 126.8788491  39.5594298 109.3831950 127.2213792  39.0393387
 109.7228023 127.7499714  38.3171995 109.8304071 127.5594198  39.8151953
 112.0775391 125.6050843  48.4896455 111.7372211 124.8058656  48.8917135
 111.3714397 125.9052554  47.9173288 112.7291863 122.6900155  46.9423778
 113.5517932 122.2160634  46.8202668 112.9729926 123.4690639  47.4422464
 111.3700097 125.7188414  37.2386679 112.0908460 126.0969667  36.7350396
 110.7465401 126.4377291  37.3421657 115.5131220 126.4233563  38.1745012
 115.7294834 127.3058201  37.8733840 115.0325287 126.0319776  37.4450654
 110.2530441 129.3819276  44.7515756 110.1075022 129.6959579  45.6440038
 109.7755645 130.0004176  44.1986655 112.1126824 126.3721824  44.7996646
 112.0988393 125.4762917  44.4628944 112.8299252 126.3792488  45.4334932
 113.9652955 126.8059164  46.8449773 113.7070733 127.7276235  46.8434104
 113.4337995 126.4089599  47.5350237 104.7276104 131.9224620  47.6903418
 104.1829572 132.6984428  47.8223692 105.6055453 132.2695425  47.5322539
 111.5163720 125.2536204  40.0684216 111.6379631 124.3252851  40.2675104
 111.2265763 125.2674890  39.1562531 114.3854911 122.9391115  43.2050936
 114.4076607 123.0030448  42.2502915 114.8022970 122.0995623  43.3991442
 105.5142125 131.0494517  50.5833574 104.7723861 131.1977152  51.1698205
 105.1934870 131.3102782  49.7200324 105.9598739 138.9359945  42.6143969
 106.7856759 138.6363717  42.2342613 105.6092791 138.1667568  43.0633758
 110.9280272 138.2886414  44.6841643 110.3060282 137.6257119  44.3843870
 111.5985139 138.3147546  44.0015290 104.1607344 136.8546272  43.5732903
 103.3239252 136.4268446  43.3916904 104.1330990 137.0478715  44.5103694
 111.0004800 126.7668202  54.2774149 111.0492955 127.6430325  53.8951918
 111.5427314 126.2245595  53.7045792 121.6057521 134.1601791  50.8708014
 121.6555525 133.9951799  51.8123537 121.4971444 133.2929050  50.4805895
 118.8961283 130.1432719  52.1867321 119.7971146 130.0039184  51.8951319
 118.9709257 130.3087174  53.1265498 113.2304088 127.5199574  51.0320507
 112.3607398 127.8133140  50.7603096 113.4663569 128.1040019  51.7527771
 121.3562906 131.7031347  49.5830094 121.8317027 131.8958994  48.7748945
 120.4328471 131.7590533  49.3373477 108.2446412 132.8655515  39.1661172
 107.9992454 131.9617845  39.3641382 108.4142327 132.8672665  38.2240650
 115.9343122 123.7379191  48.5485928 116.4525066 124.4740218  48.2232416
 115.5798255 124.0443184  49.3832687 107.5142060 128.5983872  36.6647334
 106.8211305 128.6728227  36.0087370 107.2693812 127.8344216  37.1868850
 116.1855716 120.1579474  44.0686824 116.4657470 119.4902663  44.6947251
 116.9706323 120.3508569  43.5561488 120.0564575 128.5797108  47.8158399
 121.0081997 128.6795205  47.8370623 119.8868025 127.7875376  48.3256484
 118.0778954 125.6652691  48.0017800 117.4828886 125.9457703  47.3064289
 117.7928651 126.1546592  48.7734541 122.5352652 131.8003227  46.9300699
 122.5028972 130.8619228  47.1160383 123.1453276 131.8787264  46.1966524
 122.6847141 128.5914271  46.9758982 122.1686190 127.8072727  46.7888911
 123.5687089 128.2632987  47.1405502 120.3457868 122.3355286  42.9354795
 120.1482689 122.0270374  43.8198127 120.9557573 123.0616925  43.0652725
 114.2574676 134.7217026  54.4328560 115.1777685 134.8995625  54.6268607
 114.2224259 133.7773072  54.2808259 103.4756841 129.9155620  43.3581835
 103.1559625 129.0620928  43.0656209 102.9290269 130.1304198  44.1139802
 107.2536748 132.6318061  47.0751341 107.4722758 133.5635169  47.0939375
 107.6662522 132.2726035  47.8606145 114.1740966 123.1386146  39.0627030
 113.3641694 122.7933231  39.4382276 114.8625383 122.8293690  39.6514641
 116.1031514 122.2164193  40.6851326 116.6562553 122.6359647  41.3441349
 116.3401601 121.2899941  40.7274282 112.1264614 128.2051267  56.4654090
 112.0261341 129.1545624  56.3966181 111.9086156 127.8769506  55.5930160
 111.3277685 125.4536192  33.0494768 112.1896849 125.7791090  33.3090585
 111.5128029 124.6667688  32.5367833 103.3445101 133.5358532  45.3274956
 102.6508572 133.1212484  44.8144911 104.0918092 133.5779068  44.7308375
 119.4810321 124.3264718  40.1929991 118.9008991 124.9849522  39.8108043
 119.2146254 123.5042063  39.7817408 117.9313888 123.7269776  42.3951311
 118.4313666 123.8386311  41.5865630 118.5749496 123.4230829  43.0352119
 111.9895884 131.6348406  55.2819152 111.5062965 132.4348766  55.4883041
 112.0756823 131.6456350  54.3286596 105.2581843 133.4676785  43.2040971
 105.2352531 133.5664473  42.2522854 105.5682480 134.3141936  43.5258137
 107.9169221 135.5252940  47.3187586 108.8712475 135.4936883  47.2517517
 107.7181745 135.0643564  48.1337812 108.5068603 134.0954056  49.8858383
 109.3261492 134.5898135  49.9093221 108.7805411 133.1786025  49.8575951
 118.2635200 126.4864809  39.2486339 117.3761055 126.7714459  39.0306534
 118.6789189 126.3258572  38.4013616 121.6149736 126.5111330  42.9640678
 122.3910126 127.0007782  43.2365295 120.8897870 126.9369384  43.4212548
 124.0522294 127.2238949  44.0214619 124.6466785 126.9834685  43.3107927
 124.1248878 126.5046079  44.6488155 106.2719450 141.0672560  44.3357783
 106.1373918 140.3072961  43.7695782 105.8551512 141.7913460  43.8686572
 122.0481029 127.7909076  40.2886748 121.7917963 127.3905712  41.1194956
 121.4233897 128.5052870  40.1636888 126.3593367 130.5305150  42.7958040
 125.7992925 130.5998339  43.5689602 125.7536870 130.3546134  42.0757536
 109.4288576 141.9641877  44.5476226 109.3120960 142.9087309  44.4454916
 108.6081022 141.6615438  44.9362025 103.7603518 128.4292190  50.5850580
 104.4062381 127.9191144  51.0737805 103.5520669 129.1660872  51.1594006
 116.2856910 135.4973038  56.0842721 117.1548069 135.6713690  55.7229356
 115.8063661 136.3167455  55.9618450 112.2807128 122.6932235  36.3374477
 112.2685798 123.6374075  36.4942747 113.1730550 122.5102380  36.0433938
 116.0959247 119.2875011  40.5920413 115.3291643 118.7333498  40.7377096
 116.5069952 119.3596880  41.4534565 108.1001009 125.5759807  54.6825595
 108.9632470 125.2196612  54.8928919 107.5266419 125.2373702  55.3700999
  38.5208840   2.6850725  38.1081032  38.5097481   2.2903523  37.2361536
  38.6829480   1.9516797  38.7014804  35.2416101   5.4687836  37.0560216
  34.9505967   6.3733467  36.9406883  35.8773086   5.5104364  37.7704286
  37.6743996  -0.9078562  39.6742345  36.8977330  -0.3484642  39.6645209
  38.3134559  -0.4221779  40.1957215  35.9290368   1.9006891  39.2360312
  36.6705053   2.4391935  38.9595135  35.2227354   2.5273180  39.3931863
  41.4045708   4.0436032  37.8332473  41.8129064   3.6018442  37.0887106
  40.6822969   3.4688659  38.0866666  43.9760514   6.0623575  33.7146827
  44.7977958   5.6603762  33.4329508  43.9722917   5.9591809  34.6662942
  39.0833611   7.8999292  39.8686860  38.6397466   7.1135670  39.5507764
  39.7450825   8.0878442  39.2030750  41.1814849   8.1802092  37.8968261
  41.1633325   9.0010973  37.4048530  42.1034770   8.0556167  38.1218402
  37.6387904   5.6946221  38.7391769  38.1716240   4.9334509  38.5091077
  37.1101985   5.4019873  39.4815924  47.0315582   4.6691187  34.7178098
  47.2251472   5.5736998  34.9637373  46.9316200   4.2098606  35.5516683
  42.0930690   4.8197930  40.2918979  41.9416197   4.5908482  39.3749063
  42.0835370   5.7768531  40.3050324  43.8022897   7.8517052  38.3695461
  43.7435443   7.1676273  37.7026044  44.2042415   8.5936043  37.9176087
  43.8040304   5.8156636  36.6009441  42.9167083   5.4782558  36.7235839
  44.3738855   5.0839668  36.8378206  39.7940141  10.3744923  35.7228842
  40.5068113  11.0092388  35.6504744  39.3030170  10.4708789  34.9068844
  34.8452055   8.1239366  36.5434413  35.5461514   8.7575849  36.6963807
  34.3747170   8.4654098  35.7830053  38.6940914   1.4203785  40.8553001
  38.0181551   1.3197914  41.5255376  39.5168548   1.2642999  41.3188998
  37.4363697  12.7270712  35.0910617  37.9882005  12.8902334  35.8559702
  37.7769890  13.3175150  34.4190642  42.2874571   7.5531970  40.9459271
  42.8314475   8.1661928  40.4514226  41.7061416   8.1111548  41.4626284
  42.6366992   8.4761708  33.7053849  41.6897328   8.3567059  33.6332176
  42.9849765   7.5884206  33.7880110  37.5829508  10.2929194  37.1059271
  37.8916634  10.0478341  37.9781971  38.3804990  10.4975832  36.6178141
  45.6103365   7.0128024  40.2820592  44.8198909   6.9952163  39.7425092
  45.3736720   7.5516318  41.0369629  45.7301240   3.8620490  37.5953321
  45.7799245   3.6970498  38.5368844  45.6215164   2.9947749  37.2051202
  43.0205003  -0.1548582  38.9112628  43.9214865  -0.2942117  38.6196625
  43.0952977   0.0105873  39.8510805  47.2319437   6.2817432  37.8395342
  46.9404245   6.6447412  38.6758803  46.6191568   5.5684440  37.6608675
  45.4806625   1.4050046  36.3075400  45.9560747   1.5977693  35.4994252
  44.5572191   1.4609232  36.0618784  52.4772922   2.5637933  32.7952042
  53.2076311   2.3023221  33.3559746  51.8679868   1.8266655  32.8354110
  38.3818396   4.4235725  41.1573867  39.3021405   4.6014324  41.3513913
  38.3467979   3.4791771  41.0053566  36.2508333  -2.0930034  43.1899397
  36.1505060  -1.1435677  43.1211488  36.0329876  -2.4211795  42.3175467
  36.1139604   1.3367104  42.0064458  35.6306685   2.1367465  42.2128347
  36.2000543   1.3475049  41.0531902  40.4100630   5.1991737  42.8088028
  41.2791789   5.3732389  42.4474662  39.9307381   6.0186153  42.6863757
  34.5786810  12.3188838  34.4877461  35.4814056  12.3512448  34.8043956
  34.3524180  11.3889289  34.5023797  52.0693105  16.9080363  32.2133302
  52.7071515  16.7887110  31.5096642  51.9513948  17.8561206  32.2721254
  48.8782812  16.8607791  32.1494827  48.5401323  16.7448855  31.2615362
  49.7472580  16.4598956  32.1295833  44.7369627  18.7143267  28.1391718
  44.1734492  18.6233204  27.3708006  44.6222022  17.8943171  28.6194210
  49.3602595  18.0142642  38.1081032  49.3491235  17.6195441  37.2361536
  49.5223234  17.2808715  38.7014804  42.2834059  20.2094459  30.9775938
  43.0755351  19.8685283  30.5622238  42.5230709  20.3189434  31.8978092
  50.3169186  22.3814235  23.4506183  49.6657166  22.9668315  23.0640197
  51.1113549  22.9120430  23.5101220  46.0809856  20.7979754  37.0560216
  45.7899722  21.7025385  36.9406883  46.7166840  20.8396282  37.7704286
  47.0066063  18.1756603  33.6461576  47.6029635  17.9512625  32.9318539
  47.0641034  17.4341348  34.2487024  51.6234374  14.6331816  29.2886510
  52.4097463  14.2151240  28.9376927  51.8873078  15.5377909  29.4568159
  51.7944451  20.0704667  23.9875167  51.1590284  20.1439293  24.6996072
  51.4641858  20.6598266  23.3094246  57.0242801  14.5707050  30.1919489
  57.7567973  14.0006266  30.4257318  56.2682157  14.1828650  30.6325994
  48.6418921  16.9934291  27.3882831  48.2777128  16.4664912  28.0995753
  49.4986037  16.6032760  27.2149317  54.5468221   8.2828624  34.6514097
  54.2151546   9.1524035  34.4275312  53.9513835   7.9664908  35.3308128
  51.0399741  20.4841170  34.0510010  50.7400464  21.3866208  33.9425817
  50.6950800  20.2173353  34.9031163  44.4912222  16.9354967  30.0846714
  43.5662719  16.8031181  30.2924406  44.7396635  17.7149186  30.5816657
  54.4396885  13.0023710  31.7307447  53.5313762  12.9339118  31.4366208
  54.3884480  13.4795655  32.5589273  41.8521033  16.5788240  30.9190504
  41.9813414  16.8322719  31.8329915  41.1718485  17.1715948  30.5995159
  46.0220521  27.2485490  27.0180978  45.9444550  28.1993315  27.0969458
  45.4182164  26.9031363  27.6755904  48.5137750  14.4213355  39.6742345
  47.7371084  14.9807276  39.6645209  49.1528313  14.9070138  40.1957215
  56.3058531  11.2040148  33.5085321  55.6632911  11.4972681  32.8625116
  55.8013460  11.0893069  34.3138518  53.9598695  14.9503321  24.1971181
  54.8716551  15.1830708  24.0218878  53.4508342  15.5340366  23.6346259
  46.7684123  17.2298809  39.2360312  47.5098807  17.7683853  38.9595135
  46.0621108  17.8565098  39.3931863  52.2439462  19.3727949  37.8332473
  52.6522818  18.9310360  37.0887106  51.5216724  18.7980577  38.0866666
  48.5970532  14.3100556  35.2066030  49.4431728  14.7339970  35.3500679
  48.5369170  13.6534180  35.9004593  52.5668277  19.9329140  31.5884762
  51.9377139  20.0974854  30.8860830  52.1793939  20.3470749  32.3595726
  56.4457509  20.8683578  28.9429126  55.7608547  21.2482479  28.3926159
  56.5301358  21.4778904  29.6761074  51.7469978  11.9704924  36.8647204
  51.5030910  12.7246985  36.3281479  52.0229908  12.3490272  37.6994451
  53.7008440  18.5143537  35.5424469  53.9125336  19.1575297  34.8658850
  53.6538189  17.6805853  35.0746399  51.3034669  11.1261357  32.4461041
  50.4419148  11.4242611  32.7377779  51.3297104  11.3431756  31.5142074
  48.1196239  19.6703548  28.8534847  48.5834584  19.9491251  28.0639470
  47.8553037  18.7686993  28.6707938  45.0120320  19.2175030  31.7914610
  45.5821677  19.6462298  31.1532095  45.6028432  18.9357614  32.4898796
  45.5045486  14.3838457  40.0375622  44.8744147  15.0654738  40.2711018
  45.3981574  14.2721539  39.0928760  40.7990459  14.0510253  30.9641546
  40.0089513  14.3067782  30.4881656  41.2901706  14.8658591  31.0693586
  54.8154268  21.3915492  33.7146827  55.6371712  20.9895679  33.4329508
  54.8116671  21.2883726  34.6662942  48.5810872  20.9399535  35.8707537
  48.6455304  21.4019943  36.7065709  47.8721796  20.3096900  35.9989847
  39.0828162  14.3040743  33.3956537  39.3336200  15.1887753  33.6614113
  39.6187710  14.1245345  32.6231628  62.9060261  17.7354241  30.0631798
  62.1523970  17.1661639  29.9075803  63.0407803  17.7016905  31.0102433
  48.2958889  22.6067643  25.7386517  48.1604564  23.4519179  26.1671365
  48.8368702  22.8086921  24.9752451  44.7826229   8.6859223  42.4000873
  44.3893175   8.1325421  43.0748517  45.5992369   8.9969801  42.7907390
  41.7488287  20.1243081  26.3114443  42.2612807  20.9186331  26.4620007
  42.4011000  19.4269371  26.2448044  43.5583172  23.2408837  28.3937196
  43.7349800  24.1626802  28.2058180  44.3540005  22.9267257  28.8231576
  47.6994190  10.1017102  39.9921129  48.4403904  10.7024255  39.9125592
  47.9312113   9.3594740  39.4339172  42.8435528  15.2873469  38.2699359
  42.7289043  14.3858726  38.5706458  41.9880046  15.5337166  37.9184176
  49.9227366  23.2291209  39.8686860  49.4791220  22.4427588  39.5507764
  50.5844579  23.4170360  39.2030750  44.6814487  24.7587011  34.3947538
  45.2321912  24.6304074  33.6224532  43.8425963  25.0581900  34.0442431
  52.0208604  23.5094009  37.8968261  52.0027079  24.3302890  37.4048530
  52.9428524  23.3848085  38.1218402  48.4781658  21.0238139  38.7391769
  49.0109995  20.2626427  38.5091077  47.9495739  20.7311791  39.4815924
  51.6451353   6.1298205  34.2685411  51.3015622   7.0199847  34.1924522
  52.0130316   5.9399862  33.4054996  50.7247893   8.5002860  32.2334644
  50.2212689   8.4632995  31.4202449  51.0178500   9.4095603  32.2931301
  46.9690779   8.5841590  31.2400826  47.8343776   8.3884398  30.8806715
  47.0368288   8.3551942  32.1670183  56.5835910  18.8739171  24.7111020
  55.8065353  18.5350330  24.2666182  57.2627391  18.8791794  24.0365985
  49.8434371  20.1524131  26.2510581  49.3155732  19.4176891  25.9383819
  49.3421874  20.9298808  26.0050550  54.8227217  18.3473152  31.3677628
  54.1650891  19.0372413  31.4557756  55.6267616  18.7369584  31.7111614
  53.6332676  16.7017525  29.4181569  54.1464557  17.3347516  29.9203279
  54.2833900  16.1018720  29.0524929  50.8955050  26.6801849  22.1742240
  50.2216749  26.9833546  22.7827198  51.2820872  27.4830929  21.8247697
  50.1113506  14.1766980  31.6639910  49.1936068  14.3981927  31.5061598
  50.5273650  14.2513291  30.8051617  50.8948554  15.5758396  26.7942590
  51.6420373  16.0879793  26.4849712  51.1640144  15.2542449  27.6546984
  54.3994472  21.6823526  27.5460712  53.9456799  20.8414436  27.6025902
  53.7688439  22.3184924  27.8835492  53.3427391  12.6115512  28.7761379
  52.6050148  12.0992898  29.1071622  53.5954165  12.1715894  27.9644656
  52.8427411  23.5200023  28.4810530  53.1350385  24.0805080  27.7622896
  53.3526032  23.8128584  29.2363689  47.7160098  15.6845557  29.8779340
  47.7708708  14.7319394  29.8021816  46.9051300  15.8404996  30.3620638
  45.6552458  14.3022617  27.6369719  44.8420324  14.6016787  28.0434911
  46.1511453  13.9078306  28.3544201  47.8061036  24.2980374  29.5703983
  47.7637215  24.5241220  28.6412515  48.7223735  24.0643748  29.7189784
  51.2526670  14.7664441  36.4684612  51.6076058  14.9935914  37.3279078
  51.8998801  15.0982818  35.8461868  56.9824407  17.8882877  27.1733941
  56.8442306  18.0784473  26.2455131  56.6260626  18.6502260  27.6301993
  45.1466533  11.8740972  33.2530954  45.7865912  11.7329731  32.5553917
  44.3144064  11.5875486  32.8769556  57.0093787  19.9559404  32.1845213
  57.4430293  19.8634693  33.0328267  57.7225367  19.9316905  31.5465229
  45.9226837  21.1743403  29.3665946  46.7167436  20.6793723  29.1648521
  45.2118529  20.6461266  29.0033652  50.7421682  23.5561498  33.7178314
  50.7958704  24.1252435  34.4856030  49.8736463  23.7263383  33.3532351
  43.6220075  13.2579055  35.2002765  44.2943128  13.0496417  34.5515414
  42.7949861  13.0601141  34.7607997  57.8709336  19.9983105  34.7178098
  58.0645226  20.9028915  34.9637373  57.7709954  19.5390524  35.5516683
  49.5245647   9.8840995  37.2168426  48.8773562  10.5830945  37.1232902
  50.2946662  10.3177139  37.5844674  52.9324445  20.1489848  40.2918979
  52.7809951  19.9200399  39.3749063  52.9229124  21.1060449  40.3050324
  49.7009781  17.7221760  35.2765245  50.6301841  17.8732920  35.1034213
  49.2800811  17.8105781  34.4213892  48.4998113  21.7472425  33.0463783
  48.3609199  21.3791209  33.9189721  47.7112709  22.2620064  32.8747741
  49.0946265  26.8481521  24.3889320  49.2698021  26.3769564  25.2034942
  48.4079053  27.4747287  24.6170580  50.0503328  21.1254027  30.4352621
  49.7153161  21.0854797  31.3310271  49.5507274  20.4598743  29.9623031
  44.0247572  16.5321658  35.9605202  43.8867370  15.8001896  36.5616741
  44.9352496  16.4430558  35.6789390  46.6529873  16.2441617  35.4488882
  47.3629491  15.6034809  35.4075500  46.6099181  16.4954512  36.3715062
  54.6416652  23.1808970  38.3695461  54.5829198  22.4968190  37.7026044
  55.0436170  23.9227960  37.9176087  45.3658807  13.2306835  37.2684521
  44.8296164  12.7797573  37.9206117  44.7775515  13.3652744  36.5254985
  43.6607350  29.9970884  31.1629180  43.9003949  30.6289408  31.8408198
  42.8176547  29.6458924  31.4494539  54.6434059  21.1448554  36.6009441
  53.7560838  20.8074476  36.7235839  55.2132610  20.4131585  36.8378206
  36.2963206  17.4772646  29.9252492  36.9834246  17.1634376  29.3373507
  36.1411335  18.3814010  29.6519743  41.0997928  12.3662842  34.3537516
  41.0156117  11.7588512  33.6187926  40.2780634  12.8571861  34.3547012
  48.1735212  25.8050006  33.5670684  48.1005384  26.6104978  34.0789988
  47.7312605  26.0041972  32.7418705  47.9624992  25.0421776  27.0773505
  47.1792514  25.5843457  27.1711730  48.6617737  25.5595756  27.4767746
  51.2721642  10.8516406  29.7207711  51.7690341  10.0986368  29.4008781
  50.5008623  10.8880723  29.1550920  59.1251399  16.5556771  31.3626002
  59.1141276  17.4381487  30.9919935  58.2568779  16.2028322  31.1680539
  50.6333896  25.7036840  35.7228842  51.3461868  26.3384305  35.6504744
  50.1423924  25.8000706  34.9068844  52.3551423  19.6088093  27.2946134
  51.4207701  19.7289556  27.1250838  52.5328091  18.7060560  27.0306144
  47.8556611  12.9933789  29.4479395  47.4854398  12.4404829  30.1360301
  48.3515703  12.3891922  28.8954395  55.7423974  15.4505412  27.8296168
  56.2084426  16.2833404  27.7556471  56.1931474  14.9850394  28.5341427
  45.6845809  23.4531284  36.5434413  46.3855269  24.0867767  36.6963807
  45.2140924  23.7946015  35.7830053  53.8100205  21.7949234  24.8282320
  54.0860049  21.6805828  25.7376194  52.9404704  21.3966719  24.7894493
  53.7140637   7.8185999  31.8687070  52.8003716   8.0490226  32.0369277
  54.1433738   7.9024444  32.7201102  53.4847095  16.0075891  34.3686964
  52.8318545  16.2551799  33.7139416  53.8627475  15.1940030  34.0349441
  50.4454269  26.0435585  28.4715134  50.6276664  25.2257241  28.9342886
  51.2687255  26.2603277  28.0340024  50.7796435  24.9703770  25.7330182
  51.3084201  24.4596224  25.1200344  51.0424654  24.6546300  26.5975715
  49.5334668  16.7495702  40.8553001  48.8575305  16.6489832  41.5255376
  50.3562302  16.5934916  41.3188998  41.2813527  22.9867639  33.4765516
  41.8666964  22.2411327  33.6093420  41.0838366  23.2971596  34.3602180
  44.1352183  26.0218886  28.4927958  43.4662558  26.5065014  28.0091998
  43.9965052  26.2688107  29.4071337  35.8731182  15.5573239  32.1969959
  35.9115282  15.0236830  32.9907077  35.3671475  15.0308445  31.5780936
  48.2757451  28.0562630  35.0910617  48.8275759  28.2194251  35.8559702
  48.6163645  28.6467068  34.4190642  43.2521944  10.4037780  35.6932501
  43.3163271  11.2652611  35.2809899  43.1889065   9.7911781  34.9604860
  42.7274217  12.4760912  39.3405536  43.3546256  12.0937990  39.9543060
  41.8702136  12.2575114  39.7061228  53.1268325  22.8823887  40.9459271
  53.6708229  23.4953846  40.4514226  52.5455170  23.4403466  41.4626284
  51.4125838  26.0044605  32.0774299  51.2876978  25.2034345  31.5685244
  52.0704929  26.4990799  31.5888269  43.0334007  12.3593338  31.2551439
  42.3120592  12.9729306  31.1158912  43.8227262  12.8951103  31.1768085
  53.4760747  23.8053626  33.7053849  52.5291082  23.6858977  33.6332176
  53.8243520  22.9176124  33.7880110  45.8360320   9.6947764  37.5292091
  46.3594722   9.9410061  38.2918400  45.6172653  10.5267799  37.1095228
  50.4807180  23.6006342  29.9058201  50.3332142  22.6723049  30.0865771
  51.3060674  23.6226432  29.4215276  54.0841302  24.4234900  30.9923074
  55.0087849  24.2177762  30.8547525  53.9156605  24.1751302  31.9012415
  47.0412865  10.6361460  35.2141761  46.7009686   9.8369273  35.6162441
  46.3351871  10.9363170  34.6418595  47.6929337   7.7210772  33.6669084
  48.5155406   7.2471250  33.5447975  47.9367401   8.5001256  34.1667771
  45.2167916  14.4129893  31.4761063  45.0712496  14.7270196  32.3685344
  44.7393119  15.0314793  30.9231962  47.0764299  11.4032441  31.5241953
  47.0625867  10.5073534  31.1874250  47.7936727  11.4103104  32.1580239
  48.9290429  11.8369781  33.5695080  48.6708207  12.7586851  33.5679410
  48.3975470  11.4400215  34.2595544  53.8736618  24.9420568  26.3485165
  54.0473496  24.3766990  25.5959018  54.3665509  25.7421463  26.1664655
  39.6913578  16.9535237  34.4148724  39.1467046  17.7295045  34.5468998
  40.5692928  17.3006041  34.2567846  59.7276009  17.7056991  27.9675465
  60.1707155  16.9564316  27.5694588  58.8502520  17.6967127  27.5849197
  54.8611791  24.2587332  23.4482064  55.5562695  24.8794025  23.6669378
  55.2034941  23.4082684  23.7234442  40.4779600  16.0805133  37.3078881
  39.7361336  16.2287769  37.8943511  40.1572344  16.3413399  36.4445630
  56.7603214  21.7087038  24.9769394  57.2854538  22.0474311  24.2518714
  56.6725566  20.7734053  24.7932529  48.4223262  25.6221112  37.1059271
  48.7310389  25.3770258  37.9781971  49.2198744  25.8267750  36.6178141
  48.4443874  27.7759021  29.3364648  48.0048865  27.2835400  30.0297504
  49.1951991  27.2331989  29.0956723  40.9236213  23.9670562  29.3389276
  41.7494233  23.6674334  28.9587919  40.5730265  23.1978184  29.7879064
  45.8917747  23.3197030  31.4086949  45.2697756  22.6567735  31.1089177
  46.5622614  23.3458162  30.7260597  39.1244818  21.8856888  30.2978209
  38.2876727  21.4579063  30.1162211  39.0968464  22.0789332  31.2349000
  45.9642274  11.7978818  41.0019455  46.0130430  12.6740941  40.6197225
  46.5064788  11.2556211  40.4291099  56.4497120  22.3419942  40.2820592
  55.6592663  22.3244080  39.7425092  56.2130474  22.8808235  41.0369629
  56.5694995  19.1912408  37.5953321  56.6193000  19.0262415  38.5368844
  56.4608918  18.3239667  37.2051202  45.4531254  21.8700954  24.8845410
  45.6019374  22.5536418  24.2312083  46.2597697  21.8506044  25.3994866
  53.8598757  15.1743336  38.9112628  54.7608620  15.0349801  38.6196625
  53.9346732  15.3397791  39.8510805  48.1941563  12.5510191  37.7565814
  47.3244872  12.8443757  37.4848402  48.4301043  13.1350636  38.4773078
  58.0713192  21.6109349  37.8395342  57.7798000  21.9739330  38.6758803
  57.4585323  20.8976358  37.6608675  59.2708874  19.1762229  30.3597913
  60.1055765  19.6152033  30.5235473  59.4068003  18.7000882  29.5406158
  56.3200380  16.7341964  36.3075400  56.7954501  16.9269610  35.4994252
  55.3965945  16.7901150  36.0618784  50.8980596   8.7689808  35.2731234
  51.4162540   9.5050835  34.9477723  50.5435729   9.0753801  36.1077993
  51.1493191   5.1890090  30.7932131  51.4294944   4.5213279  31.4192557
  51.9343797   5.3819186  30.2806795  48.9526659  24.3649084  22.3557157
  48.3800626  24.9839271  21.9027629  49.5259453  24.9148446  22.8897079
  55.0202049  13.6107724  34.5403706  55.9719472  13.7105822  34.5615930
  54.8505499  12.8185993  35.0501790  53.0416428  10.6963307  34.7263107
  52.4466360  10.9768320  34.0309596  52.7566125  11.1857208  35.4979848
  52.1723919  24.6486234  23.4865740  53.1054592  24.5831796  23.6898615
  52.0847132  25.4842501  23.0280272  54.8011936  23.9652104  20.4469687
  54.7225567  23.6311968  21.3405445  55.6221602  24.4573872  20.4461159
  57.4990127  16.8313844  33.6546006  57.4666447  15.8929845  33.8405690
  58.1090750  16.9097881  32.9211831  57.6484615  13.6224887  33.7004289
  57.1323664  12.8383344  33.5134218  58.5324564  13.2943604  33.8650808
  55.3095342   7.3665903  29.6600102  55.1120163   7.0580991  30.5443434
  55.9195048   8.0927542  29.7898031  63.3166677  17.8929851  32.7952042
  64.0470065  17.6315139  33.3559746  62.7073622  17.1558573  32.8354110
  61.3981974  16.0337713  33.3926494  60.6715137  15.8993678  32.7842985
  60.9829261  16.3414542  34.1983212  49.2212150  19.7527643  41.1573867
  50.1415160  19.9306242  41.3513913  49.1861733  18.8083688  41.0053566
  42.2174223  17.6628678  33.7996648  42.4360232  18.5945785  33.8184682
  42.6299996  17.3036652  34.5851452  47.0902088  13.2361883  43.1899397
  46.9898815  14.1856240  43.1211488  46.8723630  12.9080122  42.3175467
  38.3082575  18.5669148  32.0520263  37.6146047  18.1523101  31.5390217
  39.0555566  18.6089685  31.4553682  52.8951362   8.7580393  29.1196617
  53.3951141   8.8696927  28.3110936  53.5386970   8.4541445  29.7597426
  46.9533358  16.6659022  42.0064458  46.4700440  17.4659382  42.2128347
  47.0394297  16.6766967  41.0531902  40.2219318  18.4987402  29.9286278
  40.1990006  18.5975089  28.9768161  40.5319954  19.3452553  30.2503444
  42.8806695  20.5563557  34.0432892  43.8349949  20.5247499  33.9762824
  42.6819219  20.0954181  34.8583118  43.4706078  19.1264673  36.6103690
  44.2898967  19.6208752  36.6338527  43.7442885  18.2096641  36.5821257
  56.5787210  11.5421946  29.6885985  57.3547600  12.0318399  29.9610601
  55.8535344  11.9680000  30.1457854  59.0159769  12.2549565  30.7459925
  59.6104259  12.0145301  30.0353234  59.0886352  11.5356696  31.3733462
  41.2356924  26.0983176  31.0603090  41.1011392  25.3383577  30.4941088
  40.8188987  26.8224076  30.5931879  53.2013698  17.0329961  26.1881936
  53.1448899  17.4898513  25.3489568  53.7542040  16.2720646  26.0104778
  57.0118503  12.8219693  27.0132055  56.7555438  12.4216329  27.8440263
  56.3871372  13.5363487  26.8882194  61.3230841  15.5615766  29.5203346
  60.7630399  15.6308956  30.2934909  60.7174345  15.3856751  28.8002843
  44.3926050  26.9952493  31.2721533  44.2758434  27.9397926  31.1700223
  43.5718496  26.6926055  31.6607332  54.2802585  21.7202629  22.1178125
  55.1148189  21.2883828  21.9355600  54.1186928  21.5484643  23.0455020
  53.9348477  18.2234742  23.4834465  53.8797281  18.0579014  22.5422909
  53.3094532  18.9310775  23.6396654  38.7240992  13.4602807  37.3095887
  39.3699855  12.9501761  37.7983112  38.5158143  14.1971488  37.8839312
  51.2494384  20.5283654  42.8088028  52.1185544  20.7024307  42.4474662
  50.7701136  21.3478071  42.6863757  45.4180564  27.6480755  34.4877461
  46.3207811  27.6804366  34.8043956  45.1917934  26.7181206  34.5023797
  47.1734166  26.4011742  31.1487540  46.2229797  26.4013603  31.0351912
  47.4766652  25.6544476  30.6323574  43.0638483  10.6070424  41.4070901
  43.9269944  10.2507229  41.6174226  42.4903894  10.2684319  42.0946305
  62.9086860  32.2372280  32.2133302  63.5465270  32.1179028  31.5096642
  62.7907703  33.1853124  32.2721254  59.7176566  32.1899708  32.1494827
  59.3795078  32.0740773  31.2615362  60.5866334  31.7890873  32.1295833
  55.5763382  34.0435185  28.1391718  55.0128247  33.9525122  27.3708006
  55.4615777  33.2235089  28.6194210  60.1996349  33.3434560  38.1081032
  60.1884990  32.9487358  37.2361536  60.3616989  32.6100633  38.7014804
  53.1227814  35.5386376  30.9775938  53.9149106  35.1977201  30.5622238
  53.3624464  35.6481351  31.8978092  61.1562940  37.7106152  23.4506183
  60.5050920  38.2960233  23.0640197  61.9507303  38.2412347  23.5101220
  55.0818568  34.7995290  23.8493317  55.8549444  34.2524277  23.7106193
  55.4343967  35.6639539  24.0607778  56.9203610  36.1271672  37.0560216
  56.6293476  37.0317303  36.9406883  57.5560595  36.1688199  37.7704286
  57.8459817  33.5048520  33.6461576  58.4423389  33.2804543  32.9318539
  57.9034789  32.7633266  34.2487024  57.4184845  30.9587956  21.4811767
  57.6710366  30.4369477  20.7195230  56.4809405  30.7954101  21.5838451
  62.4628128  29.9623734  29.2886510  63.2491218  29.5443157  28.9376927
  62.7266833  30.8669826  29.4568159  62.6338206  35.3996584  23.9875167
  61.9984039  35.4731211  24.6996072  62.3035612  35.9890183  23.3094246
  67.8636555  29.8998967  30.1919489  68.5961727  29.3298184  30.4257318
  67.1075911  29.5120568  30.6325994  57.1381134  32.8616062  23.6836142
  57.0217392  32.1860965  24.3517226  57.2483394  32.3748436  22.8668295
  59.4812675  32.3226209  27.3882831  59.1170882  31.7956830  28.0995753
  60.3379791  31.9324678  27.2149317  65.3861976  23.6120541  34.6514097
  65.0545301  24.4815952  34.4275312  64.7907589  23.2956825  35.3308128
  59.1218162  27.3516108  22.3844180  59.2892564  28.2196345  22.7514651
  58.9315331  27.5143390  21.4605469  61.8793495  35.8133087  34.0510010
  61.5794218  36.7158126  33.9425817  61.5344555  35.5465271  34.9031163
  55.3305977  32.2646884  30.0846714  54.4056473  32.1323098  30.2924406
  55.5790390  33.0441103  30.5816657  65.2790639  28.3315628  31.7307447
  64.3707516  28.2631036  31.4366208  65.2278235  28.8087572  32.5589273
  59.1007383  29.8073766  23.3690847  58.9807008  30.2530817  24.2076327
  58.4059971  30.1559084  22.8104385  52.6914788  31.9080158  30.9190504
  52.8207169  32.1614637  31.8329915  52.0112239  32.5007866  30.5995159
  56.8614275  42.5777408  27.0180978  56.7838305  43.5285233  27.0969458
  56.2575919  42.2323280  27.6755904  59.3531505  29.7505273  39.6742345
  58.5764839  30.3099193  39.6645209  59.9922068  30.2362056  40.1957215
  67.1452285  26.5332066  33.5085321  66.5026666  26.8264599  32.8625116
  66.6407214  26.4184986  34.3138518  64.7992449  30.2795239  24.1971181
  65.7110305  30.5122626  24.0218878  64.2902096  30.8632283  23.6346259
  57.6077877  32.5590726  39.2360312  58.3492562  33.0975770  38.9595135
  56.9014863  33.1857015  39.3931863  63.0833217  34.7019867  37.8332473
  63.4916573  34.2602277  37.0887106  62.3610478  34.1272494  38.0866666
  59.4364287  29.6392474  35.2066030  60.2825482  30.0631887  35.3500679
  59.3762925  28.9826098  35.9004593  63.4062031  35.2621058  31.5884762
  62.7770894  35.4266772  30.8860830  63.0187694  35.6762667  32.3595726
  67.2851263  36.1975495  28.9429126  66.6002301  36.5774397  28.3926159
  67.3695113  36.8070822  29.6761074  62.5863732  27.2996842  36.8647204
  62.3424664  28.0538903  36.3281479  62.8623663  27.6782190  37.6994451
  64.5402195  33.8435454  35.5424469  64.7519090  34.4867214  34.8658850
  64.4931943  33.0097771  35.0746399  62.1428424  26.4553275  32.4461041
  61.2812903  26.7534529  32.7377779  62.1690859  26.6723674  31.5142074
  58.9589993  34.9995466  28.8534847  59.4228339  35.2783169  28.0639470
  58.6946791  34.0978910  28.6707938  55.8514074  34.5466947  31.7914610
  56.4215431  34.9754216  31.1532095  56.4422186  34.2649532  32.4898796
  57.8958879  31.1218618  25.6624412  58.5982923  31.5739662  26.1298339
  57.5639508  30.4802437  26.2904305  56.3439241  29.7130375  40.0375622
  55.7137901  30.3946656  40.2711018  56.2375329  29.6013456  39.0928760
  51.6384213  29.3802171  30.9641546  50.8483267  29.6359699  30.4881656
  52.1295461  30.1950509  31.0693586  65.6548023  36.7207410  33.7146827
  66.4765467  36.3187597  33.4329508  65.6510426  36.6175644  34.6662942
  53.5898959  29.7446750  27.9225023  52.7930122  29.8565444  28.4408518
  53.3624551  30.0833402  27.0565913  59.4204626  36.2691453  35.8707537
  59.4849059  36.7311860  36.7065709  58.7115550  35.6388818  35.9989847
  49.9221916  29.6332661  33.3956537  50.1729955  30.5179671  33.6614113
  50.4581465  29.4537263  32.6231628  73.7454016  33.0646158  30.0631798
  72.9917724  32.4953556  29.9075803  73.8801557  33.0308823  31.0102433
  59.1352644  37.9359561  25.7386517  58.9998319  38.7811096  26.1671365
  59.6762456  38.1378838  24.9752451  55.6219984  24.0151141  42.4000873
  55.2286929  23.4617339  43.0748517  56.4386124  24.3261719  42.7907390
  52.5882041  35.4534999  26.3114443  53.1006562  36.2478249  26.4620007
  53.2404754  34.7561289  26.2448044  54.3976926  38.5700755  28.3937196
  54.5743554  39.4918720  28.2058180  55.1933760  38.2559174  28.8231576
  58.5387945  25.4309020  39.9921129  59.2797658  26.0316173  39.9125592
  58.7705867  24.6886657  39.4339172  53.6829283  30.6165387  38.2699359
  53.5682798  29.7150644  38.5706458  52.8273800  30.8629084  37.9184176
  60.7621120  38.5583127  39.8686860  60.3184975  37.7719506  39.5507764
  61.4238334  38.7462278  39.2030750  55.5208242  40.0878929  34.3947538
  56.0715667  39.9595992  33.6224532  54.6819717  40.3873818  34.0442431
  62.8602358  38.8385927  37.8968261  62.8420834  39.6594808  37.4048530
  63.7822278  38.7140002  38.1218402  59.3175413  36.3530057  38.7391769
  59.8503749  35.5918345  38.5091077  58.7889494  36.0603708  39.4815924
  62.4845108  21.4590123  34.2685411  62.1409377  22.3491764  34.1924522
  62.8524070  21.2691780  33.4054996  50.5530958  33.7823653  27.0874013
  51.3906180  34.1920661  26.8707721  50.7309226  32.8423095  27.0574207
  62.4495390  31.4498734  22.7757846  61.9342014  32.2203338  23.0146233
  62.1772699  30.7763870  23.3990908  60.0342501  26.2948434  27.8343084
  59.1784098  25.9055285  27.6548723  60.4469453  26.3740395  26.9742870
  61.5641648  23.8294778  32.2334644  61.0606444  23.7924913  31.4202449
  61.8572255  24.7387520  32.2931301  57.8084534  23.9133507  31.2400826
  58.6737531  23.7176316  30.8806715  57.8762043  23.6843859  32.1670183
  67.4229664  34.2031088  24.7111020  66.6459107  33.8642248  24.2666182
  68.1021145  34.2083711  24.0365985  62.2381693  29.3225826  24.6017627
  61.9331829  29.6371975  25.4527770  63.1912136  29.4007246  24.6444960
  60.6828125  35.4816049  26.2510581  60.1549487  34.7468809  25.9383819
  60.1815628  36.2590725  26.0050550  65.6620971  33.6765070  31.3677628
  65.0044646  34.3664331  31.4557756  66.4661371  34.0661501  31.7111614
  55.4146853  26.1435715  28.6117193  55.9890605  25.9210897  27.8790386
  56.0017835  26.2124410  29.3645794  64.4726430  32.0309442  29.4181569
  64.9858312  32.6639434  29.9203279  65.1227654  31.4310638  29.0524929
  55.7416440  28.1740176  22.6313078  54.9053752  28.5114863  22.9522353
  55.6021210  28.0389156  21.6940215  57.7169521  23.0176964  27.3392262
  57.0633933  22.7025981  26.7148877  57.6749995  22.3952705  28.0652085
  58.8280725  33.2996259  19.2545554  57.9207787  33.0685513  19.4536703
  59.3251757  32.5033879  19.4419536  61.7348804  42.0093767  22.1742240
  61.0610503  42.3125463  22.7827198  62.1214626  42.8122847  21.8247697
  60.9507261  29.5058898  31.6639910  60.0329822  29.7273845  31.5061598
  61.3667405  29.5805208  30.8051617  61.7342309  30.9050313  26.7942590
  62.4814128  31.4171711  26.4849712  62.0033898  30.5834366  27.6546984
  60.0068959  33.4008854  23.7769544  59.0980178  33.1167887  23.8742014
  60.0364043  33.8207933  22.9172851  65.2388226  37.0115444  27.5460712
  64.7850553  36.1706354  27.6025902  64.6082193  37.6476842  27.8835492
  64.1821146  27.9407430  28.7761379  63.4443903  27.4284816  29.1071622
  64.4347919  27.5007811  27.9644656  63.6821166  38.8491940  28.4810530
  63.9744140  39.4096997  27.7622896  64.1919786  39.1420501  29.2363689
  64.2832773  20.7183682  29.3703149  64.5891650  19.8581045  29.0829064
  65.0085378  21.3101302  29.1702143  50.5757129  31.1214368  27.7584747
  50.3781529  30.5283729  27.0335813  50.0203793  30.8166578  28.4760685
  58.5553853  31.0137475  29.8779340  58.6102463  30.0611311  29.8021816
  57.7445055  31.1696914  30.3620638  59.7045047  34.9417598  21.1157623
  59.2664477  34.2253457  20.6563260  60.4455488  35.1693713  20.5542714
  56.4946213  29.6314535  27.6369719  55.6814078  29.9308705  28.0434911
  56.9905207  29.2370223  28.3544201  58.6454791  39.6272291  29.5703983
  58.6030970  39.8533138  28.6412515  59.5617490  39.3935666  29.7189784
  62.0920425  30.0956359  36.4684612  62.4469812  30.3227832  37.3279078
  62.7392556  30.4274736  35.8461868  67.8218162  33.2174795  27.1733941
  67.6836060  33.4076391  26.2455131  67.4654380  33.9794178  27.6301993
  55.9860288  27.2032890  33.2530954  56.6259667  27.0621649  32.5553917
  55.1537818  26.9167403  32.8769556  67.8487541  35.2851322  32.1845213
  68.2824048  35.1926611  33.0328267  68.5619122  35.2608822  31.5465229
  56.7620592  36.5035320  29.3665946  57.5561190  36.0085641  29.1648521
  56.0512284  35.9753184  29.0033652  61.5815436  38.8853416  33.7178314
  61.6352458  39.4544352  34.4856030  60.7130217  39.0555301  33.3532351
  53.0703355  30.6478402  25.4425699  52.1400943  30.5862858  25.6595661
  53.1660827  30.1254355  24.6462340  52.9888904  27.1733215  28.0303940
  53.2495721  28.0878548  27.9213101  53.8106076  26.7057658  28.1800553
  54.4613829  28.5870972  35.2002765  55.1336883  28.3788334  34.5515414
  53.6343616  28.3893058  34.7607997  68.7103091  35.3275023  34.7178098
  68.9038981  36.2320833  34.9637373  68.6103709  34.8682442  35.5516683
  60.3639401  25.2132913  37.2168426  59.7167316  25.9122863  37.1232902
  61.1340417  25.6469057  37.5844674  63.7718199  35.4781765  40.2918979
  63.6203706  35.2492317  39.3749063  63.7622879  36.4352367  40.3050324
  60.5403536  33.0513678  35.2765245  61.4695596  33.2024838  35.1034213
  60.1194566  33.1397699  34.4213892  59.3391868  37.0764342  33.0463783
  59.2002953  36.7083127  33.9189721  58.5506464  37.5911982  32.8747741
  59.9340020  42.1773439  24.3889320  60.1091775  41.7061482  25.2034942
  59.2472808  42.8039205  24.6170580  60.8897083  36.4545945  30.4352621
  60.5546915  36.4146715  31.3310271  60.3901028  35.7890661  29.9623031
  54.8641327  31.8613575  35.9605202  54.7261125  31.1293814  36.5616741
  55.7746250  31.7722475  35.6789390  63.8256274  33.8001980  20.7089681
  63.2085445  33.0748808  20.6122733  63.3572763  34.5611340  20.3656755
  57.4923627  31.5733535  35.4488882  58.2023246  30.9326727  35.4075500
  57.4492935  31.8246429  36.3715062  65.4810406  38.5100888  38.3695461
  65.4222952  37.8260108  37.7026044  65.8829924  39.2519878  37.9176087
  56.2052561  28.5598752  37.2684521  55.6689918  28.1089491  37.9206117
  55.6169270  28.6944661  36.5254985  54.5001105  45.3262802  31.1629180
  54.7397703  45.9581326  31.8408198  53.6570301  44.9750842  31.4494539
  55.6154820  28.0187404  19.8310985  54.7384287  27.8976205  19.4673231
  56.0912573  27.2273482  19.5789873  65.4827813  36.4740472  36.6009441
  64.5954592  36.1366394  36.7235839  66.0526364  35.7423503  36.8378206
  47.1356960  32.8064564  29.9252492  47.8228000  32.4926294  29.3373507
  46.9805089  33.7105928  29.6519743  51.9391683  27.6954760  34.3537516
  51.8549871  27.0880430  33.6187926  51.1174389  28.1863778  34.3547012
  59.0128967  41.1341924  33.5670684  58.9399138  41.9396896  34.0789988
  58.5706360  41.3333890  32.7418705  58.8018746  40.3713694  27.0773505
  58.0186268  40.9135374  27.1711730  59.5011491  40.8887674  27.4767746
  62.1115396  26.1808324  29.7207711  62.6084096  25.4278286  29.4008781
  61.3402378  26.2172640  29.1550920  69.9645154  31.8848689  31.3626002
  69.9535030  32.7673405  30.9919935  69.0962533  31.5320240  31.1680539
  61.4727650  41.0328758  35.7228842  62.1855622  41.6676223  35.6504744
  60.9817679  41.1292624  34.9068844  63.1945177  34.9380011  27.2946134
  62.2601456  35.0581473  27.1250838  63.3721846  34.0352478  27.0306144
  58.6950365  28.3225707  29.4479395  58.3248153  27.7696747  30.1360301
  59.1909458  27.7183840  28.8954395  66.5817728  30.7797330  27.8296168
  67.0478181  31.6125322  27.7556471  67.0325229  30.3142312  28.5341427
  56.5239564  38.7823202  36.5434413  57.2249023  39.4159685  36.6963807
  56.0534679  39.1237933  35.7830053  64.6493960  37.1241151  24.8282320
  64.9253803  37.0097746  25.7376194  63.7798458  36.7258636  24.7894493
  64.5534391  23.1477917  31.8687070  63.6397471  23.3782144  32.0369277
  64.9827493  23.2316361  32.7201102  64.3240850  31.3367809  34.3686964
  63.6712300  31.5843717  33.7139416  64.7021230  30.5231947  34.0349441
  61.2848024  41.3727502  28.4715134  61.4670418  40.5549158  28.9342886
  62.1081010  41.5895195  28.0340024  61.6190189  40.2995687  25.7330182
  62.1477955  39.7888142  25.1200344  61.8818409  39.9838218  26.5975715
  60.3728423  32.0787620  40.8553001  59.6969060  31.9781749  41.5255376
  61.1956057  31.9226834  41.3188998  52.1207282  38.3159557  33.4765516
  52.7060719  37.5703245  33.6093420  51.9232120  38.6263513  34.3602180
  54.9745937  41.3510804  28.4927958  54.3056312  41.8356932  28.0091998
  54.8358807  41.5980025  29.4071337  46.7124937  30.8865157  32.1969959
  46.7509036  30.3528748  32.9907077  46.2065229  30.3600362  31.5780936
  59.1151206  43.3854548  35.0910617  59.6669514  43.5486169  35.8559702
  59.4557399  43.9758985  34.4190642  54.0915699  25.7329697  35.6932501
  54.1557025  26.5944528  35.2809899  54.0282819  25.1203699  34.9604860
  53.5667971  27.8052830  39.3405536  54.1940010  27.4229907  39.9543060
  52.7095890  27.5867032  39.7061228  63.9662080  38.2115805  40.9459271
  64.5101984  38.8245763  40.4514226  63.3848925  38.7695384  41.4626284
  50.3433514  29.6129259  25.2723890  50.6386955  28.7039937  25.2190944
  49.4421550  29.5916998  24.9504893  62.2519593  41.3336523  32.0774299
  62.1270732  40.5326263  31.5685244  62.9098684  41.8282716  31.5888269
  53.8727761  27.6885256  31.2551439  53.1514347  28.3021223  31.1158912
  54.6621017  28.2243020  31.1768085  64.3154501  39.1345543  33.7053849
  63.3684837  39.0150894  33.6332176  64.6637274  38.2468041  33.7880110
  56.6754075  25.0239682  37.5292091  57.1988476  25.2701979  38.2918400
  56.4566408  25.8559717  37.1095228  52.0721356  27.2943357  25.3963216
  51.7434062  26.4140736  25.2138322  52.4260726  27.2391025  26.2839605
  61.3200935  38.9298259  29.9058201  61.1725897  38.0014967  30.0865771
  62.1454428  38.9518350  29.4215276  55.1863179  27.5816327  25.7638693
  55.5259251  28.1102248  25.0417302  55.6335299  27.9196733  26.5397260
  64.9235056  39.7526818  30.9923074  65.8481604  39.5469679  30.8547525
  64.7550360  39.5043219  31.9012415  57.8806620  25.9653377  35.2141761
  57.5403440  25.1661190  35.6162441  57.1745626  26.2655088  34.6418595
  58.5323091  23.0502690  33.6669084  59.3549161  22.5763168  33.5447975
  58.7761155  23.8293173  34.1667771  57.1731326  26.0790948  23.9631986
  57.8939688  26.4572201  23.4595703  56.5496630  26.7979825  24.0666964
  61.3162449  26.7836097  24.8990318  61.5326063  27.6660735  24.5979147
  60.8356516  26.3922310  24.1695960  56.0561670  29.7421810  31.4761063
  55.9106251  30.0562113  32.3685344  55.5786874  30.3606711  30.9231962
  57.9158053  26.7324358  31.5241953  57.9019622  25.8365452  31.1874250
  58.6330481  26.7395022  32.1580239  59.7684184  27.1661698  33.5695080
  59.5101962  28.0878769  33.5679410  59.2369224  26.7692133  34.2595544
  64.7130373  40.2712486  26.3485165  64.8867250  39.7058908  25.5959018
  65.2059264  41.0713380  26.1664655  50.5307332  32.2827155  34.4148724
  49.9860800  33.0586963  34.5468998  51.4086682  32.6297959  34.2567846
  57.3194949  25.6138739  26.7929523  57.4410860  24.6855385  26.9920410
  57.0296991  25.6277425  25.8807838  60.1886139  23.2993649  29.9296243
  60.2107836  23.3632982  28.9748222  60.6054198  22.4598158  30.1236749
  70.5669764  33.0348909  27.9675465  71.0100910  32.2856234  27.5694588
  69.6896274  33.0259045  27.5849197  65.7005545  39.5879250  23.4482064
  66.3956450  40.2085943  23.6669378  66.0428695  38.7374601  23.7234442
  51.3173354  31.4097051  37.3078881  50.5755090  31.5579686  37.8943511
  50.9966099  31.6705317  36.4445630  67.5996968  37.0378956  24.9769394
  68.1248292  37.3766228  24.2518714  67.5119321  36.1025971  24.7932529
  59.2617017  40.9513029  37.1059271  59.5704143  40.7062176  37.9781971
  60.0592499  41.1559668  36.6178141  59.2837629  43.1050939  29.3364648
  58.8442619  42.6127318  30.0297504  60.0345746  42.5623906  29.0956723
  51.7629968  39.2962480  29.3389276  52.5887988  38.9966252  28.9587919
  51.4124020  38.5270102  29.7879064  56.7311501  38.6488948  31.4086949
  56.1091510  37.9859653  31.1089177  57.4016368  38.6750080  30.7260597
  49.9638573  37.2148806  30.2978209  49.1270481  36.7870980  30.1162211
  49.9362218  37.4081249  31.2349000  56.8036029  27.1270736  41.0019455
  56.8524184  28.0032859  40.6197225  57.3458543  26.5848129  40.4291099
  67.2890874  37.6711859  40.2820592  66.4986418  37.6535998  39.7425092
  67.0524229  38.2100153  41.0369629  67.4088749  34.5204326  37.5953321
  67.4586754  34.3554333  38.5368844  67.3002673  33.6531585  37.2051202
  56.2925008  37.1992871  24.8845410  56.4413128  37.8828336  24.2312083
  57.0991451  37.1797961  25.3994866  64.6992512  30.5035254  38.9112628
  65.6002374  30.3641718  38.6196625  64.7740486  30.6689708  39.8510805
  59.0335317  27.8802108  37.7565814  58.1638626  28.1735674  37.4848402
  59.2694797  28.4642553  38.4773078  68.9106946  36.9401267  37.8395342
  68.6191754  37.3031248  38.6758803  68.2979077  36.2268275  37.6608675
  70.1102628  34.5054147  30.3597913  70.9449520  34.9443951  30.5235473
  70.2461757  34.0292800  29.5406158  67.1594134  32.0633882  36.3075400
  67.6348256  32.2561528  35.4994252  66.2359700  32.1193068  36.0618784
  54.0477641  33.2258049  25.8906479  53.8023683  32.3220379  26.0886689
  54.2173556  33.2275199  24.9485957  61.7374351  24.0981725  35.2731234
  62.2556295  24.8342752  34.9477723  61.3829484  24.4045719  36.1077993
  53.3173289  28.9586406  23.3892640  52.6242533  29.0330761  22.7332676
  53.0725040  28.1946750  23.9114157  61.9886945  20.5182008  30.7932131
  62.2688699  19.8505197  31.4192557  62.7737552  20.7111103  30.2806795
  59.7920414  39.6941002  22.3557157  59.2194381  40.3131189  21.9027629
  60.3653207  40.2440363  22.8897079  65.8595803  28.9399642  34.5403706
  66.8113226  29.0397739  34.5615930  65.6899254  28.1477910  35.0501790
  63.8810183  26.0255225  34.7263107  63.2860115  26.3060238  34.0309596
  63.5959880  26.5149126  35.4979848  63.0117673  39.9778152  23.4865740
  63.9448346  39.9123713  23.6898615  62.9240886  40.8134419  23.0280272
  65.6405690  39.2944022  20.4469687  65.5619322  38.9603886  21.3405445
  66.4615357  39.7865790  20.4461159  68.3383881  32.1605761  33.6546006
  68.3060201  31.2221762  33.8405690  68.9484505  32.2389798  32.9211831
  60.1767212  31.0301814  19.6973210  61.1226317  30.9008023  19.7661628
  59.7981457  30.2916476  20.1742638  68.4878370  28.9516805  33.7004289
  67.9717418  28.1675262  33.5134218  69.3718318  28.6235522  33.8650808
  66.1489097  22.6957820  29.6600102  65.9513918  22.3872909  30.5443434
  66.7588802  23.4219459  29.7898031  74.1560431  33.2221768  32.7952042
  74.8863820  32.9607056  33.3559746  73.5467377  32.4850490  32.8354110
  72.2375728  31.3629631  33.3926494  71.5108892  31.2285596  32.7842985
  71.8223015  31.6706460  34.1983212  60.0605905  35.0819561  41.1573867
  60.9808914  35.2598160  41.3513913  60.0255488  34.1375606  41.0053566
  58.3610129  28.9551791  19.6328095  57.4541585  28.6584904  19.7090809
  58.6386110  28.6581609  18.7662381  49.2788070  30.2758154  30.0827141
  48.9590854  29.4223462  29.7901515  48.7321498  30.4906732  30.8385109
  53.0567977  32.9920595  33.7996648  53.2753987  33.9237703  33.8184682
  53.4693751  32.6328570  34.5851452  59.9772195  23.4988681  25.7872336
  59.1672923  23.1535766  26.1627582  60.6656612  23.1896224  26.3759948
  61.9062743  22.5766727  27.4096633  62.4593782  22.9962181  28.0686656
  62.1432830  21.6502475  27.4519589  57.9295842  28.5653801  43.1899397
  57.8292569  29.5148158  43.1211488  57.7117384  28.2372040  42.3175467
  57.1308914  25.8138726  19.7740074  57.9928078  26.1393624  20.0335891
  57.3159258  25.0270222  19.2613140  49.1476330  33.8961066  32.0520263
  48.4539801  33.4815019  31.5390217  49.8949321  33.9381602  31.4553682
  65.2841550  24.6867253  26.9175297  64.7040219  25.3452057  26.5353350
  65.0177483  23.8644597  26.5062715  63.7345117  24.0872310  29.1196617
  64.2344895  24.1988845  28.3110936  64.3780725  23.7833363  29.7597426
  57.7927112  31.9950940  42.0064458  57.3094194  32.7951300  42.2128347
  57.8788052  32.0058885  41.0531902  51.0613072  33.8279320  29.9286278
  51.0383760  33.9267007  28.9768161  51.3713709  34.6744470  30.2503444
  53.7200450  35.8855475  34.0432892  54.6743704  35.8539417  33.9762824
  53.5212974  35.4246098  34.8583118  54.3099832  34.4556591  36.6103690
  55.1292721  34.9500669  36.6338527  54.5836640  33.5388559  36.5821257
  64.0666428  26.8467343  25.9731645  63.1792283  27.1316994  25.7551840
  64.4820417  26.6861106  25.1258922  67.4180964  26.8713864  29.6885985
  68.1941355  27.3610316  29.9610601  66.6929099  27.2971918  30.1457854
  69.8553523  27.5841483  30.7459925  70.4498014  27.3437219  30.0353234
  69.9280107  26.8648614  31.3733462  52.0750679  41.4275094  31.0603090
  51.9405147  40.6675495  30.4941088  51.6582741  42.1515994  30.5931879
  63.2109642  36.6112018  20.0679665  63.9145492  36.8162020  20.6837321
  62.4872291  37.1788779  20.3328749  64.0407452  32.3621879  26.1881936
  63.9842653  32.8190430  25.3489568  64.5935795  31.6012563  26.0104778
  67.8512258  28.1511611  27.0132055  67.5949192  27.7508246  27.8440263
  67.2265126  28.8655405  26.8882194  72.1624596  30.8907684  29.5203346
  71.6024154  30.9600873  30.2934909  71.5568099  30.7148669  28.8002843
  55.2319805  42.3244411  31.2721533  55.1152189  43.2689844  31.1700223
  54.4112251  42.0217973  31.6607332  65.1196339  37.0494547  22.1178125
  65.9541943  36.6175745  21.9355600  64.9580682  36.8776560  23.0455020
  64.7742231  33.5526660  23.4834465  64.7191035  33.3870932  22.5422909
  64.1488287  34.2602693  23.6396654  49.5634746  28.7894724  37.3095887
  50.2093610  28.2793678  37.7983112  49.3551897  29.5263406  37.8839312
  62.0888139  35.8575572  42.8088028  62.9579298  36.0316224  42.4474662
  61.6094890  36.6769989  42.6863757  58.0838357  23.0534769  23.0619783
  58.0717027  23.9976609  23.2188054  58.9761779  22.8704914  22.7679244
  56.2574319  42.9772673  34.4877461  57.1601565  43.0096283  34.8043956
  56.0311689  42.0473124  34.5023797  58.0127921  41.7303659  31.1487540
  57.0623552  41.7305521  31.0351912  58.3160407  40.9836394  30.6323574
  61.8990476  19.6477546  27.3165720  61.1322872  19.0936032  27.4622402
  62.3101181  19.7199414  28.1779872  53.9032237  25.9362342  41.4070901
  54.7663699  25.5799146  41.6174226  53.3297648  25.5976236  42.0946305
  66.4157136  49.3727102  28.1391718  65.8522001  49.2817039  27.3708006
  66.3009531  48.5527007  28.6194210  71.9956695  53.0398070  23.4506183
  71.3444675  53.6252151  23.0640197  72.7901058  53.5704265  23.5101220
  65.9212322  50.1287207  23.8493317  66.6943198  49.5816194  23.7106193
  66.2737721  50.9931457  24.0607778  68.2578600  46.2879873  21.4811767
  68.5104121  45.7661395  20.7195230  67.3203159  46.1246019  21.5838451
  73.3021883  45.2915652  29.2886510  74.0884972  44.8735075  28.9376927
  73.5660587  46.1961744  29.4568159  73.4731960  50.7288502  23.9875167
  72.8377793  50.8023129  24.6996072  73.1429367  51.3182101  23.3094246
  78.7030310  45.2290885  30.1919489  79.4355482  44.6590102  30.4257318
  77.9469666  44.8412485  30.6325994  67.9774889  48.1907979  23.6836142
  67.8611147  47.5152883  24.3517226  68.0877149  47.7040353  22.8668295
  70.3206430  47.6518126  27.3882831  69.9564637  47.1248747  28.0995753
  71.1773546  47.2616595  27.2149317  76.2255730  38.9412459  34.6514097
  75.8939055  39.8107870  34.4275312  75.6301344  38.6248743  35.3308128
  69.9611917  42.6808026  22.3844180  70.1286319  43.5488263  22.7514651
  69.7709086  42.8435308  21.4605469  76.1184394  43.6607545  31.7307447
  75.2101271  43.5922954  31.4366208  76.0671989  44.1379490  32.5589273
  69.9401137  45.1365684  23.3690847  69.8200763  45.5822734  24.2076327
  69.2453726  45.4851001  22.8104385  63.5308542  47.2372075  30.9190504
  63.6600923  47.4906554  31.8329915  62.8505994  47.8299783  30.5995159
  67.7008030  57.9069325  27.0180978  67.6232059  58.8577150  27.0969458
  67.0969673  57.5615198  27.6755904  77.9846040  41.8623984  33.5085321
  77.3420420  42.1556517  32.8625116  77.4800968  41.7476904  34.3138518
  75.6386204  45.6087157  24.1971181  76.5504060  45.8414544  24.0218878
  75.1295851  46.1924201  23.6346259  70.2758041  44.9684391  35.2066030
  71.1219237  45.3923805  35.3500679  70.2156679  44.3118016  35.9004593
  78.1245018  51.5267413  28.9429126  77.4396056  51.9066314  28.3926159
  78.2088867  52.1362740  29.6761074  73.4257487  42.6288760  36.8647204
  73.1818419  43.3830820  36.3281479  73.7017417  43.0074107  37.6994451
  72.9822178  41.7845193  32.4461041  72.1206657  42.0826446  32.7377779
  73.0084613  42.0015592  31.5142074  68.7352634  46.4510536  25.6624412
  69.4376677  46.9031579  26.1298339  68.4033262  45.8094355  26.2904305
  62.4777968  44.7094088  30.9641546  61.6877022  44.9651617  30.4881656
  62.9689215  45.5242426  31.0693586  64.4292713  45.0738668  27.9225023
  63.6323876  45.1857362  28.4408518  64.2018305  45.4125320  27.0565913
  60.7615671  44.9624579  33.3956537  61.0123709  45.8471589  33.6614113
  61.2975219  44.7829180  32.6231628  84.5847770  48.3938076  30.0631798
  83.8311479  47.8245474  29.9075803  84.7195312  48.3600741  31.0102433
  69.9746398  53.2651478  25.7386517  69.8392073  54.1103014  26.1671365
  70.5156211  53.4670756  24.9752451  66.4613738  39.3443058  42.4000873
  66.0680684  38.7909257  43.0748517  67.2779878  39.6553637  42.7907390
  63.4275796  50.7826916  26.3114443  63.9400316  51.5770167  26.4620007
  64.0798509  50.0853207  26.2448044  65.2370681  53.8992673  28.3937196
  65.4137309  54.8210637  28.2058180  66.0327514  53.5851092  28.8231576
  69.3781699  40.7600937  39.9921129  70.1191412  41.3608090  39.9125592
  69.6099622  40.0178575  39.4339172  64.5223037  45.9457305  38.2699359
  64.4076552  45.0442562  38.5706458  63.6667555  46.1921001  37.9184176
  73.3238862  36.7882040  34.2685411  72.9803131  37.6783682  34.1924522
  73.6917825  36.5983698  33.4054996  61.3924713  49.1115571  27.0874013
  62.2299935  49.5212579  26.8707721  61.5702980  48.1715013  27.0574207
  73.2889145  46.7790651  22.7757846  72.7735768  47.5495256  23.0146233
  73.0166453  46.1055787  23.3990908  70.8736256  41.6240352  27.8343084
  70.0177852  41.2347202  27.6548723  71.2863208  41.7032313  26.9742870
  72.4035402  39.1586695  32.2334644  71.9000198  39.1216831  31.4202449
  72.6966009  40.0679438  32.2931301  68.6478288  39.2425425  31.2400826
  69.5131285  39.0468234  30.8806715  68.7155797  39.0135777  32.1670183
  78.2623419  49.5323006  24.7111020  77.4852862  49.1934165  24.2666182
  78.9414900  49.5375629  24.0365985  73.0775448  44.6517743  24.6017627
  72.7725584  44.9663893  25.4527770  74.0305890  44.7299163  24.6444960
  71.5221880  50.8107967  26.2510581  70.9943241  50.0760726  25.9383819
  71.0209383  51.5882643  26.0050550  76.5014726  49.0056987  31.3677628
  75.8438400  49.6956249  31.4557756  77.3055125  49.3953419  31.7111614
  66.2540607  41.4727633  28.6117193  66.8284359  41.2502815  27.8790386
  66.8411590  41.5416328  29.3645794  75.3120185  47.3601360  29.4181569
  75.8252066  47.9931352  29.9203279  75.9621408  46.7602555  29.0524929
  66.5810195  43.5032094  22.6313078  65.7447507  43.8406781  22.9522353
  66.4414964  43.3681074  21.6940215  68.5563275  38.3468882  27.3392262
  67.9027687  38.0317899  26.7148877  68.5143749  37.7244622  28.0652085
  69.6674480  48.6288177  19.2545554  68.7601542  48.3977430  19.4536703
  70.1645512  47.8325796  19.4419536  72.5742559  57.3385684  22.1742240
  71.9004258  57.6417381  22.7827198  72.9608381  58.1414765  21.8247697
  71.7901015  44.8350815  31.6639910  70.8723577  45.0565762  31.5061598
  72.2061159  44.9097126  30.8051617  72.5736063  46.2342231  26.7942590
  73.3207882  46.7463628  26.4849712  72.8427653  45.9126284  27.6546984
  70.8462713  48.7300772  23.7769544  69.9373933  48.4459805  23.8742014
  70.8757797  49.1499850  22.9172851  76.0781981  52.3407361  27.5460712
  75.6244308  51.4998271  27.6025902  75.4475948  52.9768760  27.8835492
  75.0214900  43.2699347  28.7761379  74.2837657  42.7576734  29.1071622
  75.2741674  42.8299729  27.9644656  74.5214920  54.1783858  28.4810530
  74.8137894  54.7388915  27.7622896  75.0313541  54.4712419  29.2363689
  75.1226528  36.0475599  29.3703149  75.4285405  35.1872963  29.0829064
  75.8479133  36.6393220  29.1702143  61.4150884  46.4506286  27.7584747
  61.2175284  45.8575647  27.0335813  60.8597548  46.1458496  28.4760685
  70.5438801  50.2709516  21.1157623  70.1058231  49.5545374  20.6563260
  71.2849242  50.4985630  20.5542714  67.3339967  44.9606452  27.6369719
  66.5207833  45.2600623  28.0434911  67.8298962  44.5662141  28.3544201
  78.6611916  48.5466713  27.1733941  78.5229815  48.7368309  26.2455131
  78.3048135  49.3086095  27.6301993  66.8254042  42.5324808  33.2530954
  67.4653421  42.3913567  32.5553917  65.9931573  42.2459321  32.8769556
  78.6881296  50.6143240  32.1845213  79.1217802  50.5218529  33.0328267
  79.4012876  50.5900740  31.5465229  63.9097110  45.9770320  25.4425699
  62.9794698  45.9154775  25.6595661  64.0054581  45.4546273  24.6462340
  63.8282659  42.5025133  28.0303940  64.0889476  43.4170466  27.9213101
  64.6499831  42.0349575  28.1800553  65.3007584  43.9162890  35.2002765
  65.9730637  43.7080252  34.5515414  64.4737370  43.7184976  34.7607997
  71.2033156  40.5424831  37.2168426  70.5561071  41.2414780  37.1232902
  71.9734171  40.9760975  37.5844674  70.7733774  57.5065357  24.3889320
  70.9485530  57.0353400  25.2034942  70.0866562  58.1331123  24.6170580
  74.6650029  49.1293897  20.7089681  74.0479199  48.4040725  20.6122733
  74.1966517  49.8903257  20.3656755  67.0446316  43.8890670  37.2684521
  66.5083673  43.4381409  37.9206117  66.4563024  44.0236579  36.5254985
  66.4548575  43.3479321  19.8310985  65.5778041  43.2268122  19.4673231
  66.9306328  42.5565400  19.5789873  57.9750715  48.1356481  29.9252492
  58.6621755  47.8218211  29.3373507  57.8198844  49.0397846  29.6519743
  62.7785437  43.0246678  34.3537516  62.6943626  42.4172347  33.6187926
  61.9568143  43.5155696  34.3547012  69.6412501  55.7005612  27.0773505
  68.8580023  56.2427292  27.1711730  70.3405246  56.2179591  27.4767746
  72.9509151  41.5100241  29.7207711  73.4477850  40.7570204  29.4008781
  72.1796132  41.5464558  29.1550920  80.8038908  47.2140607  31.3626002
  80.7928785  48.0965322  30.9919935  79.9356288  46.8612158  31.1680539
  74.0338932  50.2671929  27.2946134  73.0995210  50.3873391  27.1250838
  74.2115600  49.3644395  27.0306144  69.5344120  43.6517624  29.4479395
  69.1641907  43.0988665  30.1360301  70.0303212  43.0475758  28.8954395
  77.4211483  46.1089248  27.8296168  77.8871935  46.9417239  27.7556471
  77.8718983  45.6434229  28.5341427  75.4887714  52.4533069  24.8282320
  75.7647558  52.3389664  25.7376194  74.6192213  52.0550554  24.7894493
  75.3928146  38.4769835  31.8687070  74.4791225  38.7074062  32.0369277
  75.8221247  38.5608279  32.7201102  72.1241778  56.7019420  28.4715134
  72.3064173  55.8841076  28.9342886  72.9474764  56.9187112  28.0340024
  72.4583944  55.6287605  25.7330182  72.9871710  55.1180060  25.1200344
  72.7212163  55.3130135  26.5975715  57.5518691  46.2157075  32.1969959
  57.5902791  45.6820665  32.9907077  57.0458984  45.6892280  31.5780936
  64.9309453  41.0621615  35.6932501  64.9950780  41.9236446  35.2809899
  64.8676574  40.4495617  34.9604860  64.4061726  43.1344748  39.3405536
  65.0333765  42.7521825  39.9543060  63.5489645  42.9158950  39.7061228
  61.1827269  44.9421177  25.2723890  61.4780710  44.0331855  25.2190944
  60.2815304  44.9208916  24.9504893  64.7121516  43.0177173  31.2551439
  63.9908101  43.6313141  31.1158912  65.5014771  43.5534938  31.1768085
  67.5147829  40.3531600  37.5292091  68.0382231  40.5993896  38.2918400
  67.2960162  41.1851635  37.1095228  62.9115110  42.6235274  25.3963216
  62.5827816  41.7432653  25.2138322  63.2654481  42.5682943  26.2839605
  72.1594689  54.2590177  29.9058201  72.0119651  53.3306885  30.0865771
  72.9848183  54.2810268  29.4215276  66.0256933  42.9108244  25.7638693
  66.3653006  43.4394165  25.0417302  66.4729054  43.2488650  26.5397260
  68.7200374  41.2945295  35.2141761  68.3797195  40.4953108  35.6162441
  68.0139380  41.5947006  34.6418595  69.3716846  38.3794607  33.6669084
  70.1942915  37.9055086  33.5447975  69.6154910  39.1585091  34.1667771
  68.0125080  41.4082866  23.9631986  68.7333443  41.7864119  23.4595703
  67.3890385  42.1271743  24.0666964  72.1556203  42.1128015  24.8990318
  72.3719818  42.9952653  24.5979147  71.6750270  41.7214228  24.1695960
  66.8955425  45.0713728  31.4761063  66.7500005  45.3854031  32.3685344
  66.4180628  45.6898628  30.9231962  68.7551808  42.0616276  31.5241953
  68.7413376  41.1657369  31.1874250  69.4724236  42.0686940  32.1580239
  70.6077938  42.4953616  33.5695080  70.3495716  43.4170687  33.5679410
  70.0762979  42.0984051  34.2595544  75.5524127  55.6004403  26.3485165
  75.7261005  55.0350826  25.5959018  76.0453018  56.4005298  26.1664655
  61.3701087  47.6119072  34.4148724  60.8254555  48.3878880  34.5468998
  62.2480437  47.9589877  34.2567846  68.1588704  40.9430656  26.7929523
  68.2804615  40.0147302  26.9920410  67.8690746  40.9569342  25.8807838
  71.0279894  38.6285567  29.9296243  71.0501591  38.6924900  28.9748222
  71.4447953  37.7890075  30.1236749  81.4063518  48.3640826  27.9675465
  81.8494664  47.6148151  27.5694588  80.5290029  48.3550963  27.5849197
  76.5399300  54.9171168  23.4482064  77.2350204  55.5377860  23.6669378
  76.8822450  54.0666519  23.7234442  62.1567109  46.7388969  37.3078881
  61.4148845  46.8871604  37.8943511  61.8359853  46.9997234  36.4445630
  78.4390723  52.3670873  24.9769394  78.9642047  52.7058146  24.2518714
  78.3513075  51.4317889  24.7932529  62.6023722  54.6254397  29.3389276
  63.4281742  54.3258169  28.9587919  62.2517774  53.8562020  29.7879064
  60.8032327  52.5440724  30.2978209  59.9664236  52.1162898  30.1162211
  60.7755973  52.7373167  31.2349000  67.1318762  52.5284789  24.8845410
  67.2806883  53.2120253  24.2312083  67.9385206  52.5089879  25.3994866
  69.8729072  43.2094026  37.7565814  69.0032381  43.5027592  37.4848402
  70.1088552  43.7934471  38.4773078  80.9496383  49.8346065  30.3597913
  81.7843274  50.2735869  30.5235473  81.0855512  49.3584718  29.5406158
  64.8871395  48.5549967  25.8906479  64.6417437  47.6512297  26.0886689
  65.0567310  48.5567117  24.9485957  72.5768105  39.4273643  35.2731234
  73.0950049  40.1634670  34.9477723  72.2223238  39.7337636  36.1077993
  64.1567043  44.2878324  23.3892640  63.4636288  44.3622679  22.7332676
  63.9118795  43.5238668  23.9114157  72.8280700  35.8473925  30.7932131
  73.1082453  35.1797115  31.4192557  73.6131306  36.0403021  30.2806795
  70.6314168  55.0232919  22.3557157  70.0588135  55.6423107  21.9027629
  71.2046962  55.5732281  22.8897079  74.7203937  41.3547143  34.7263107
  74.1253869  41.6352155  34.0309596  74.4353634  41.8441044  35.4979848
  73.8511428  55.3070070  23.4865740  74.7842101  55.2415631  23.6898615
  73.7634641  56.1426336  23.0280272  76.4799444  54.6235940  20.4469687
  76.4013076  54.2895803  21.3405445  77.3009111  55.1157708  20.4461159
  71.0160967  46.3593732  19.6973210  71.9620071  46.2299940  19.7661628
  70.6375211  45.6208394  20.1742638  79.3272124  44.2808723  33.7004289
  78.8111173  43.4967179  33.5134218  80.2112073  43.9527439  33.8650808
  76.9882851  38.0249738  29.6600102  76.7907672  37.7164826  30.5443434
  77.5982557  38.7511377  29.7898031  69.2003884  44.2843709  19.6328095
  68.2935339  43.9876821  19.7090809  69.4779865  43.9873527  18.7662381
  60.1181824  45.6050072  30.0827141  59.7984608  44.7515380  29.7901515
  59.5715252  45.8198650  30.8385109  63.8961732  48.3212513  33.7996648
  64.1147741  49.2529621  33.8184682  64.3087505  47.9620487  34.5851452
  70.8165949  38.8280598  25.7872336  70.0066678  38.4827683  26.1627582
  71.5050366  38.5188142  26.3759948  72.7456498  37.9058645  27.4096633
  73.2987536  38.3254098  28.0686656  72.9826584  36.9794393  27.4519589
  67.9702668  41.1430644  19.7740074  68.8321832  41.4685542  20.0335891
  68.1553012  40.3562140  19.2613140  59.9870084  49.2252983  32.0520263
  59.2933555  48.8106936  31.5390217  60.7343075  49.2673520  31.4553682
  76.1235305  40.0159170  26.9175297  75.5433974  40.6743974  26.5353350
  75.8571237  39.1936515  26.5062715  74.5738871  39.4164228  29.1196617
  75.0738650  39.5280762  28.3110936  75.2174479  39.1125281  29.7597426
  61.9006827  49.1571237  29.9286278  61.8777515  49.2558924  28.9768161
  62.2107463  50.0036388  30.2503444  74.9060183  42.1759261  25.9731645
  74.0186038  42.4608911  25.7551840  75.3214172  42.0153024  25.1258922
  78.2574719  42.2005782  29.6885985  79.0335109  42.6902234  29.9610601
  77.5322853  42.6263836  30.1457854  80.6947278  42.9133401  30.7459925
  81.2891768  42.6729137  30.0353234  80.7673861  42.1940531  31.3733462
  74.0503396  51.9403935  20.0679665  74.7539246  52.1453938  20.6837321
  73.3266045  52.5080697  20.3328749  74.8801207  47.6913797  26.1881936
  74.8236408  48.1482348  25.3489568  75.4329549  46.9304481  26.0104778
  78.6906012  43.4803528  27.0132055  78.4342947  43.0800164  27.8440263
  78.0658880  44.1947322  26.8882194  83.0018350  46.2199602  29.5203346
  82.4417908  46.2892791  30.2934909  82.3961854  46.0440586  28.8002843
  75.9590094  52.3786464  22.1178125  76.7935698  51.9467663  21.9355600
  75.7974437  52.2068478  23.0455020  75.6135986  48.8818578  23.4834465
  75.5584790  48.7162849  22.5422909  74.9882041  49.5894611  23.6396654
  60.4028501  44.1186642  37.3095887  61.0487364  43.6085596  37.7983112
  60.1945652  44.8555324  37.8839312  68.9232111  38.3826687  23.0619783
  68.9110781  39.3268527  23.2188054  69.8155533  38.1996832  22.7679244
  72.7384231  34.9769463  27.3165720  71.9716627  34.4227950  27.4622402
  73.1494936  35.0491332  28.1779872  64.7425992  41.2654259  41.4070901
  65.6057453  40.9091064  41.6174226  64.1691402  40.9268154  42.0946305
  76.7606077  65.4579125  23.8493317  77.5336953  64.9108112  23.7106193
  77.1131475  66.3223374  24.0607778  79.0972354  61.6171791  21.4811767
  79.3497875  61.0953312  20.7195230  78.1596914  61.4537936  21.5838451
  89.5424064  60.5582803  30.1919489  90.2749236  59.9882019  30.4257318
  88.7863420  60.1704403  30.6325994  78.8168643  63.5199897  23.6836142
  78.7004901  62.8444800  24.3517226  78.9270903  63.0332271  22.8668295
  80.8005671  58.0099944  22.3844180  80.9680073  58.8780180  22.7514651
  80.6102840  58.1727225  21.4605469  86.9578148  58.9899463  31.7307447
  86.0495025  58.9214871  31.4366208  86.9065744  59.4671408  32.5589273
  80.7794892  60.4657601  23.3690847  80.6594517  60.9114652  24.2076327
  80.0847480  60.8142919  22.8104385  88.8239794  57.1915901  33.5085321
  88.1814175  57.4848434  32.8625116  88.3194723  57.0768822  34.3138518
  83.8215933  57.1137110  32.4461041  82.9600412  57.4118364  32.7377779
  83.8478368  57.3307509  31.5142074  79.5746388  61.7802453  25.6624412
  80.2770432  62.2323497  26.1298339  79.2427017  61.1386272  26.2904305
  75.2686468  60.4030585  27.9225023  74.4717631  60.5149280  28.4408518
  75.0412060  60.7417238  27.0565913  81.7130010  56.9532270  27.8343084
  80.8571607  56.5639120  27.6548723  82.1256962  57.0324231  26.9742870
  79.4872043  54.5717343  31.2400826  80.3525040  54.3760151  30.8806715
  79.5549552  54.3427695  32.1670183  77.4203949  58.8324012  22.6313078
  76.5841261  59.1698698  22.9522353  77.2808719  58.6972992  21.6940215
  79.3957030  53.6760800  27.3392262  78.7421442  53.3609817  26.7148877
  79.3537504  53.0536540  28.0652085  80.5068234  63.9580095  19.2545554
  79.5995296  63.7269348  19.4536703  81.0039266  63.1617714  19.4419536
  82.6294770  60.1642733  31.6639910  81.7117331  60.3857680  31.5061598
  83.0454914  60.2389044  30.8051617  81.6856468  64.0592690  23.7769544
  80.7767687  63.7751722  23.8742014  81.7151552  64.4791768  22.9172851
  85.8608655  58.5991265  28.7761379  85.1231412  58.0868651  29.1071622
  86.1135428  58.1591647  27.9644656  85.9620282  51.3767517  29.3703149
  86.2679159  50.5164881  29.0829064  86.6872887  51.9685137  29.1702143
  72.2544638  61.7798204  27.7584747  72.0569038  61.1867564  27.0335813
  71.6991302  61.4750414  28.4760685  78.1733722  60.2898370  27.6369719
  77.3601587  60.5892540  28.0434911  78.6692716  59.8954059  28.3544201
  74.7490864  61.3062238  25.4425699  73.8188452  61.2446693  25.6595661
  74.8448336  60.7838190  24.6462340  74.6676413  57.8317050  28.0303940
  74.9283230  58.7462384  27.9213101  75.4893585  57.3641493  28.1800553
  85.5043783  64.4585815  20.7089681  84.8872954  63.7332643  20.6122733
  85.0360272  65.2195175  20.3656755  77.2942329  58.6771239  19.8310985
  76.4171796  58.5560040  19.4673231  77.7700082  57.8857317  19.5789873
  83.7902905  56.8392159  29.7207711  84.2871605  56.0862121  29.4008781
  83.0189887  56.8756476  29.1550920  80.3737874  58.9809542  29.4479395
  80.0035662  58.4280582  30.1360301  80.8696967  58.3767675  28.8954395
  72.0221023  60.2713094  25.2723890  72.3174464  59.3623773  25.2190944
  71.1209059  60.2500834  24.9504893  73.7508865  57.9527192  25.3963216
  73.4221571  57.0724571  25.2138322  74.1048235  57.8974861  26.2839605
  76.8650688  58.2400162  25.7638693  77.2046760  58.7686083  25.0417302
  77.3122808  58.5780568  26.5397260  80.2110600  53.7086525  33.6669084
  81.0336670  53.2347003  33.5447975  80.4548664  54.4877009  34.1667771
  78.8518835  56.7374783  23.9631986  79.5727197  57.1156036  23.4595703
  78.2284139  57.4563660  24.0666964  82.9949958  57.4419932  24.8990318
  83.2113572  58.3244570  24.5979147  82.5144025  57.0506146  24.1695960
  78.9982458  56.2722574  26.7929523  79.1198369  55.3439220  26.9920410
  78.7084500  56.2861260  25.8807838  81.8673648  53.9577484  29.9296243
  81.8895345  54.0216817  28.9748222  82.2841707  53.1181993  30.1236749
  75.7265150  63.8841884  25.8906479  75.4811192  62.9804214  26.0886689
  75.8961065  63.8859035  24.9485957  74.9960798  59.6170242  23.3892640
  74.3030042  59.6914597  22.7332676  74.7512549  58.8530585  23.9114157
  85.5597692  56.6839060  34.7263107  84.9647624  56.9644073  34.0309596
  85.2747389  57.1732961  35.4979848  81.8554721  61.6885650  19.6973210
  82.8013826  61.5591858  19.7661628  81.4768966  60.9500312  20.1742638
  90.1665879  59.6100640  33.7004289  89.6504927  58.8259097  33.5134218
  91.0505827  59.2819357  33.8650808  87.8276606  53.3541656  29.6600102
  87.6301427  53.0456744  30.5443434  88.4376311  54.0803295  29.7898031
  95.8347940  63.8805604  32.7952042  96.5651328  63.6190892  33.3559746
  95.2254885  63.1434326  32.8354110  93.9163237  62.0213466  33.3926494
  93.1896401  61.8869431  32.7842985  93.5010524  62.3290295  34.1983212
  80.0397638  59.6135626  19.6328095  79.1329094  59.3168739  19.7090809
  80.3173619  59.3165444  18.7662381  81.6559704  54.1572516  25.7872336
  80.8460432  53.8119601  26.1627582  82.3444121  53.8480060  26.3759948
  83.5850252  53.2350563  27.4096633  84.1381291  53.6546016  28.0686656
  83.8220339  52.3086311  27.4519589  78.8096423  56.4722561  19.7740074
  79.6715587  56.7977460  20.0335891  78.9946767  55.6854057  19.2613140
  86.9629059  55.3451088  26.9175297  86.3827728  56.0035892  26.5353350
  86.6964992  54.5228432  26.5062715  85.4132626  54.7456146  29.1196617
  85.9132404  54.8572680  28.3110936  86.0568234  54.4417198  29.7597426
  85.7453937  57.5051178  25.9731645  84.8579792  57.7900829  25.7551840
  86.1607926  57.3444942  25.1258922  89.0968473  57.5297699  29.6885985
  89.8728864  58.0194152  29.9610601  88.3716608  57.9555753  30.1457854
  91.5341032  58.2425318  30.7459925  92.1285523  58.0021054  30.0353234
  91.6067616  57.5232449  31.3733462  89.5299767  58.8095446  27.0132055
  89.2736701  58.4092082  27.8440263  88.9052635  59.5239240  26.8882194
  79.7625866  53.7118604  23.0619783  79.7504536  54.6560444  23.2188054
  80.6549288  53.5288750  22.7679244  83.5777985  50.3061381  27.3165720
  82.8110381  49.7519868  27.4622402  83.9888690  50.3783250  28.1779872
  93.6744204  83.6981905  23.4506183  93.0232184  84.2835986  23.0640197
  94.4688567  84.2288100  23.5101220  89.9366109  76.9463709  21.4811767
  90.1891630  76.4245230  20.7195230  88.9990668  76.7829854  21.5838451
  94.9809392  75.9499487  29.2886510  95.7672481  75.5318910  28.9376927
  95.2448096  76.8545579  29.4568159  95.1519469  81.3872337  23.9875167
  94.5165302  81.4606964  24.6996072  94.8216876  81.9765936  23.3094246
 100.3817819  75.8874720  30.1919489 101.1142991  75.3173937  30.4257318
  99.6257175  75.4996321  30.6325994  89.6562398  78.8491815  23.6836142
  89.5398656  78.1736718  24.3517226  89.7664658  78.3624189  22.8668295
  91.6188646  75.7949519  23.3690847  91.4988272  76.2406570  24.2076327
  90.9241235  76.1434837  22.8104385  89.3795539  88.5653161  27.0180978
  89.3019568  89.5160986  27.0969458  88.7757182  88.2199033  27.6755904
  97.3173713  76.2670992  24.1971181  98.2291569  76.4998379  24.0218878
  96.8083360  76.8508036  23.6346259  95.6014480  80.6895620  37.8332473
  96.0097836  80.2478030  37.0887106  94.8791742  80.1148247  38.0866666
  99.8032527  82.1851248  28.9429126  99.1183565  82.5650150  28.3926159
  99.8876376  82.7946575  29.6761074  98.1729286  82.7083163  33.7146827
  98.9946730  82.3063350  33.4329508  98.1691689  82.6051397  34.6662942
 106.2635279  79.0521911  30.0631798 105.5098988  78.4829309  29.9075803
 106.3982821  79.0184576  31.0102433  95.3783622  84.8261680  37.8968261
  95.3602097  85.6470561  37.4048530  96.3003542  84.7015755  38.1218402
  94.9676654  77.4374487  22.7757846  94.4523277  78.2079091  23.0146233
  94.6953962  76.7639623  23.3990908  92.5523765  72.2824187  27.8343084
  91.6965361  71.8931038  27.6548723  92.9650717  72.3616148  26.9742870
  99.9410928  80.1906841  24.7111020  99.1640371  79.8518001  24.2666182
 100.6202409  80.1959464  24.0365985  94.7562957  75.3101579  24.6017627
  94.4513093  75.6247728  25.4527770  95.7093399  75.3882999  24.6444960
  91.3461989  79.2872012  19.2545554  90.4389051  79.0561266  19.4536703
  91.8433021  78.4909632  19.4419536  94.2530068  87.9969520  22.1742240
  93.5791767  88.3001216  22.7827198  94.6395890  88.7998600  21.8247697
  94.2523572  76.8926066  26.7942590  94.9995391  77.4047464  26.4849712
  94.5215162  76.5710119  27.6546984  92.5250222  79.3884607  23.7769544
  91.6161442  79.1043640  23.8742014  92.5545306  79.8083686  22.9172851
  97.7569490  82.9991197  27.5460712  97.3031817  82.1582107  27.6025902
  97.1263457  83.6352595  27.8835492  96.7002409  73.9283183  28.7761379
  95.9625166  73.4160569  29.1071622  96.9529183  73.4883564  27.9644656
  96.2002429  84.8367693  28.4810530  96.4925403  85.3972751  27.7622896
  96.7101050  85.1296254  29.2363689  96.8014037  66.7059435  29.3703149
  97.1072913  65.8456798  29.0829064  97.5266642  67.2977055  29.1702143
  92.2226310  80.9293351  21.1157623  91.7845740  80.2129210  20.6563260
  92.9636751  81.1569466  20.5542714 100.3399425  79.2050548  27.1733941
 100.2017324  79.3952144  26.2455131  99.9835644  79.9669931  27.6301993
 100.3668805  81.2727075  32.1845213 100.8005311  81.1802364  33.0328267
 101.0800385  81.2484575  31.5465229 101.2284354  81.3150776  34.7178098
 101.4220244  82.2196586  34.9637373 101.1284972  80.8558195  35.5516683
  96.2899463  81.4657518  40.2918979  96.1384969  81.2368070  39.3749063
  96.2804142  82.4228120  40.3050324  92.4521283  88.1649192  24.3889320
  92.6273039  87.6937235  25.2034942  91.7654071  88.7914958  24.6170580
  96.3437538  79.7877733  20.7089681  95.7266708  79.0624561  20.6122733
  95.8754026  80.5487093  20.3656755  97.9991669  84.4976641  38.3695461
  97.9404216  83.8135861  37.7026044  98.4011188  85.2395631  37.9176087
  87.0182368  91.3138555  31.1629180  87.2578966  91.9457079  31.8408198
  86.1751565  90.9626595  31.4494539  98.0009077  82.4616225  36.6009441
  97.1135855  82.1242147  36.7235839  98.5707628  81.7299256  36.8378206
  91.3200010  86.3589447  27.0773505  90.5367532  86.9011127  27.1711730
  92.0192755  86.8763427  27.4767746 102.4826417  77.8724442  31.3626002
 102.4716294  78.7549158  30.9919935 101.6143797  77.5195993  31.1680539
  93.9908914  87.0204511  35.7228842  94.7036886  87.6551976  35.6504744
  93.4998942  87.1168377  34.9068844  95.7126441  80.9255764  27.2946134
  94.7782719  81.0457226  27.1250838  95.8903109  80.0228231  27.0306144
  99.0998992  76.7673083  27.8296168  99.5659444  77.6001075  27.7556471
  99.5506492  76.3018065  28.5341427  97.1675223  83.1116904  24.8282320
  97.4435067  82.9973499  25.7376194  96.2979722  82.7134389  24.7894493
  94.1371453  86.2871440  25.7330182  94.6659219  85.7763895  25.1200344
  94.3999672  85.9713971  26.5975715  87.4927200  87.3386557  28.4927958
  86.8237576  87.8232685  28.0091998  87.3540070  87.5855778  29.4071337
  96.4843343  84.1991558  40.9459271  97.0283247  84.8121516  40.4514226
  95.9030188  84.7571137  41.4626284  96.8335765  85.1221296  33.7053849
  95.8866100  85.0026647  33.6332176  97.1818538  84.2343794  33.7880110
  97.4416320  85.7402571  30.9923074  98.3662867  85.5345433  30.8547525
  97.2731623  85.4918972  31.9012415  93.8343712  72.7711850  24.8990318
  94.0507327  73.6536488  24.5979147  93.3537779  72.3798064  24.1695960
  97.2311636  86.2588239  26.3485165  97.4048514  85.6934661  25.5959018
  97.7240527  87.0589134  26.1664655 103.0851027  79.0224662  27.9675465
 103.5282173  78.2731987  27.5694588 102.2077538  79.0134798  27.5849197
  98.2186809  85.5755003  23.4482064  98.9137713  86.1961696  23.6669378
  98.5609959  84.7250354  23.7234442 100.1178232  83.0254709  24.9769394
 100.6429556  83.3641981  24.2518714 100.0300584  82.0901724  24.7932529
  91.8018892  89.0926692  29.3364648  91.3623883  88.6003071  30.0297504
  92.5527009  88.5499660  29.0956723  84.2811231  85.2838233  29.3389276
  85.1069251  84.9842005  28.9587919  83.9305283  84.5145855  29.7879064
  99.8072138  83.6587612  40.2820592  99.0167681  83.6411751  39.7425092
  99.5705492  84.1975906  41.0369629  99.9270013  80.5080079  37.5953321
  99.9768018  80.3430086  38.5368844  99.8183936  79.6407338  37.2051202
  97.2173775  76.4911007  38.9112628  98.1183638  76.3517471  38.6196625
  97.2921750  76.6565461  39.8510805 101.4288210  82.9277020  37.8395342
 101.1373018  83.2907001  38.6758803 100.8160341  82.2144028  37.6608675
 102.6283892  80.4929900  30.3597913 103.4630783  80.9319704  30.5235473
 102.7643021  80.0168553  29.5406158  99.6775398  78.0509635  36.3075400
 100.1529519  78.2437281  35.4994252  98.7540963  78.1068821  36.0618784
  92.3101677  85.6816755  22.3557157  91.7375644  86.3006942  21.9027629
  92.8834471  86.2316116  22.8897079  95.5298937  85.9653905  23.4865740
  96.4629610  85.8999467  23.6898615  95.4422150  86.8010172  23.0280272
  98.1586953  85.2819775  20.4469687  98.0800585  84.9479639  21.3405445
  98.9796620  85.7741543  20.4461159 100.8565145  78.1481515  33.6546006
 100.8241465  77.2097515  33.8405690 101.4665768  78.2265551  32.9211831
  92.6948476  77.0177567  19.6973210  93.6407580  76.8883776  19.7661628
  92.3162720  76.2792229  20.1742638 101.0059633  74.9392558  33.7004289
 100.4898682  74.1551015  33.5134218 101.8899582  74.6111275  33.8650808
  98.6670360  68.6833574  29.6600102  98.4695181  68.3748662  30.5443434
  99.2770066  69.4095212  29.7898031 106.6741694  79.2097521  32.7952042
 107.4045083  78.9482809  33.3559746 106.0648640  78.4726243  32.8354110
 104.7556992  77.3505384  33.3926494 104.0290155  77.2161349  32.7842985
 104.3404278  77.6582213  34.1983212  90.8791393  74.9427544  19.6328095
  89.9722848  74.6460657  19.7090809  91.1567374  74.6457362  18.7662381
  94.4244007  68.5642480  27.4096633  94.9775045  68.9837934  28.0686656
  94.6614093  67.6378228  27.4519589  97.8022814  70.6743006  26.9175297
  97.2221483  71.3327810  26.5353350  97.5358746  69.8520350  26.5062715
  96.2526380  70.0748063  29.1196617  96.7526158  70.1864598  28.3110936
  96.8961988  69.7709116  29.7597426  96.5847692  72.8343096  25.9731645
  95.6973547  73.1192747  25.7551840  97.0001681  72.6736859  25.1258922
  99.9362228  72.8589617  29.6885985 100.7122618  73.3486069  29.9610601
  99.2110362  73.2847671  30.1457854 102.3734787  73.5717236  30.7459925
 102.9679277  73.3312972  30.0353234 102.4461370  72.8524367  31.3733462
  84.5931942  87.4150847  31.0603090  84.4586410  86.6551248  30.4941088
  84.1764005  88.1391747  30.5931879  95.7290905  82.5987771  20.0679665
  96.4326755  82.8037773  20.6837321  95.0053554  83.1664532  20.3328749
  96.5588716  78.3497632  26.1881936  96.5023917  78.8066183  25.3489568
  97.1117058  77.5888316  26.0104778 100.3693521  74.1387364  27.0132055
 100.1130456  73.7383999  27.8440263  99.7446389  74.8531158  26.8882194
 104.6805859  76.8783437  29.5203346 104.1205417  76.9476626  30.2934909
 104.0749363  76.7024422  28.8002843  97.6377603  83.0370300  22.1178125
  98.4723207  82.6051498  21.9355600  97.4761946  82.8652313  23.0455020
  97.2923495  79.5402413  23.4834465  97.2372299  79.3746685  22.5422909
  96.6669550  80.2478446  23.6396654 106.2661878  93.5539951  32.2133302
 106.9040288  93.4346698  31.5096642 106.1482721  94.5020795  32.2721254
 103.0751584  93.5067379  32.1494827 102.7370096  93.3908444  31.2615362
 103.9441352  93.1058544  32.1295833  98.9338400  95.3602855  28.1391718
  98.3703265  95.2692792  27.3708006  98.8190795  94.5402760  28.6194210
 103.5571367  94.6602231  38.1081032 103.5460008  94.2655029  37.2361536
 103.7192006  93.9268303  38.7014804  96.4802832  96.8554047  30.9775938
  97.2724124  96.5144872  30.5622238  96.7199482  96.9649022  31.8978092
 104.5137958  99.0273823  23.4506183 103.8625938  99.6127904  23.0640197
 105.3082321  99.5580018  23.5101220  98.4393586  96.1162960  23.8493317
  99.2124462  95.5691947  23.7106193  98.7918984  96.9807210  24.0607778
 100.2778628  97.4439343  37.0560216  99.9868494  98.3484973  36.9406883
 100.9135613  97.4855870  37.7704286 101.2034835  94.8216191  33.6461576
 101.7998407  94.5972213  32.9318539 101.2609807  94.0800937  34.2487024
 100.7759863  92.2755626  21.4811767 101.0285384  91.7537148  20.7195230
  99.8384423  92.1121772  21.5838451 105.8203146  91.2791405  29.2886510
 106.6066235  90.8610828  28.9376927 106.0841851  92.1837497  29.4568159
 105.9913224  96.7164255  23.9875167 105.3559057  96.7898882  24.6996072
 105.6610630  97.3057854  23.3094246 111.2211573  91.2166638  30.1919489
 111.9536745  90.6465855  30.4257318 110.4650929  90.8288238  30.6325994
 100.4956152  94.1783732  23.6836142 100.3792410  93.5028636  24.3517226
 100.6058412  93.6916106  22.8668295 102.8387693  93.6393879  27.3882831
 102.4745900  93.1124500  28.0995753 103.6954809  93.2492349  27.2149317
 108.7436994  84.9288212  34.6514097 108.4120318  85.7983623  34.4275312
 108.1482607  84.6124496  35.3308128 102.4793180  88.6683779  22.3844180
 102.6467582  89.5364016  22.7514651 102.2890349  88.8311061  21.4605469
 105.2368513  97.1300758  34.0510010 104.9369236  98.0325797  33.9425817
 104.8919573  96.8632941  34.9031163  98.6880995  93.5814555  30.0846714
  97.7631491  93.4490769  30.2924406  98.9365408  94.3608774  30.5816657
 108.6365657  89.6483298  31.7307447 107.7282534  89.5798707  31.4366208
 108.5853253  90.1255243  32.5589273 102.4582401  91.1241437  23.3690847
 102.3382026  91.5698487  24.2076327 101.7634989  91.4726754  22.8104385
  96.0489806  93.2247828  30.9190504  96.1782187  93.4782307  31.8329915
  95.3687257  93.8175536  30.5995159 100.2189293 103.8945078  27.0180978
 100.1413323 104.8452903  27.0969458  99.6150937 103.5490951  27.6755904
 102.7106523  91.0672944  39.6742345 101.9339857  91.6266864  39.6645209
 103.3497086  91.5529727  40.1957215 110.5027303  87.8499737  33.5085321
 109.8601684  88.1432270  32.8625116 109.9982232  87.7352657  34.3138518
 108.1567467  91.5962910  24.1971181 109.0685323  91.8290297  24.0218878
 107.6477114  92.1799954  23.6346259 100.9652895  93.8758397  39.2360312
 101.7067579  94.4143441  38.9595135 100.2589881  94.5024686  39.3931863
 106.4408235  96.0187538  37.8332473 106.8491591  95.5769948  37.0887106
 105.7185496  95.4440165  38.0866666 102.7939305  90.9560144  35.2066030
 103.6400500  91.3799558  35.3500679 102.7337942  90.2993769  35.9004593
 106.7637049  96.5788728  31.5884762 106.1345912  96.7434442  30.8860830
 106.3762711  96.9930338  32.3595726 110.6426281  97.5143166  28.9429126
 109.9577319  97.8942067  28.3926159 110.7270131  98.1238493  29.6761074
 105.9438750  88.6164513  36.8647204 105.6999682  89.3706573  36.3281479
 106.2198681  88.9949860  37.6994451 107.8977213  95.1603125  35.5424469
 108.1094108  95.8034885  34.8658850 107.8506961  94.3265442  35.0746399
 105.5003442  87.7720946  32.4461041 104.6387921  88.0702199  32.7377779
 105.5265877  87.9891345  31.5142074 102.3165011  96.3163136  28.8534847
 102.7803357  96.5950839  28.0639470 102.0521809  95.4146581  28.6707938
  99.2089092  95.8634618  31.7914610  99.7790449  96.2921886  31.1532095
  99.7997204  95.5817203  32.4898796 101.2533897  92.4386289  25.6624412
 101.9557941  92.8907332  26.1298339 100.9214526  91.7970108  26.2904305
  99.7014259  91.0298045  40.0375622  99.0712919  91.7114326  40.2711018
  99.5950347  90.9181127  39.0928760  94.9959231  90.6969841  30.9641546
  94.2058285  90.9527370  30.4881656  95.4870479  91.5118179  31.0693586
 109.0123041  98.0375081  33.7146827 109.8340485  97.6355268  33.4329508
 109.0085444  97.9343315  34.6662942  96.9473977  91.0614421  27.9225023
  96.1505140  91.1733115  28.4408518  96.7199569  91.4001073  27.0565913
 102.7779644  97.5859124  35.8707537 102.8424077  98.0479531  36.7065709
 102.0690568  96.9556489  35.9989847  93.2796934  90.9500332  33.3956537
  93.5304973  91.8347342  33.6614113  93.8156483  90.7704933  32.6231628
 117.1029034  94.3813829  30.0631798 116.3492742  93.8121227  29.9075803
 117.2376575  94.3476494  31.0102433 102.4927662  99.2527231  25.7386517
 102.3573337 100.0978767  26.1671365 103.0337474  99.4546509  24.9752451
  98.9795002  85.3318811  42.4000873  98.5861947  84.7785010  43.0748517
  99.7961142  85.6429390  42.7907390  95.9457059  96.7702669  26.3114443
  96.4581580  97.5645920  26.4620007  96.5979772  96.0728960  26.2448044
  97.7551944  99.8868426  28.3937196  97.9318572 100.8086390  28.2058180
  98.5508778  99.5726845  28.8231576 101.8962963  86.7476690  39.9921129
 102.6372676  87.3483843  39.9125592 102.1280885  86.0054328  39.4339172
  97.0404301  91.9333058  38.2699359  96.9257816  91.0318315  38.5706458
  96.1848818  92.1796754  37.9184176 104.1196138  99.8750798  39.8686860
 103.6759993  99.0887176  39.5507764 104.7813352 100.0629948  39.2030750
  98.8783260 101.4046599  34.3947538  99.4290685 101.2763663  33.6224532
  98.0394735 101.7041488  34.0442431 106.2177376 100.1553598  37.8968261
 106.1995852 100.9762479  37.4048530 107.1397296 100.0307673  38.1218402
 102.6750431  97.6697727  38.7391769 103.2078767  96.9086015  38.5091077
 102.1464512  97.3771379  39.4815924 105.8420126  82.7757793  34.2685411
 105.4984395  83.6659435  34.1924522 106.2099088  82.5859451  33.4054996
  93.9105976  95.0991324  27.0874013  94.7481198  95.5088332  26.8707721
  94.0884244  94.1590766  27.0574207 105.8070408  92.7666404  22.7757846
 105.2917032  93.5371009  23.0146233 105.5347717  92.0931541  23.3990908
 103.3917519  87.6116105  27.8343084 102.5359116  87.2222956  27.6548723
 103.8044471  87.6908066  26.9742870 104.9216666  85.1462448  32.2334644
 104.4181462  85.1092584  31.4202449 105.2147273  86.0555191  32.2931301
 101.1659552  85.2301178  31.2400826 102.0312549  85.0343987  30.8806715
 101.2337061  85.0011530  32.1670183 110.7804682  95.5198759  24.7111020
 110.0034125  95.1809918  24.2666182 111.4596163  95.5251382  24.0365985
 105.5956711  90.6393496  24.6017627 105.2906847  90.9539646  25.4527770
 106.5487154  90.7174916  24.6444960 104.0403143  96.7983720  26.2510581
 103.5124505  96.0636479  25.9383819 103.5390646  97.5758396  26.0050550
 109.0195989  94.9932740  31.3677628 108.3619664  95.6832002  31.4557756
 109.8236388  95.3829172  31.7111614  98.7721871  87.4603386  28.6117193
  99.3465623  87.2378568  27.8790386  99.3592853  87.5292081  29.3645794
 107.8301448  93.3477113  29.4181569 108.3433330  93.9807105  29.9203279
 108.4802672  92.7478308  29.0524929  99.0991458  89.4907847  22.6313078
  98.2628770  89.8282534  22.9522353  98.9596228  89.3556827  21.6940215
 101.0744539  84.3344635  27.3392262 100.4208951  84.0193652  26.7148877
 101.0325013  83.7120375  28.0652085 102.1855743  94.6163930  19.2545554
 101.2782805  94.3853183  19.4536703 102.6826775  93.8201549  19.4419536
 105.0923822 103.3261437  22.1742240 104.4185521 103.6293134  22.7827198
 105.4789644 104.1290518  21.8247697 104.3082279  90.8226568  31.6639910
 103.3904840  91.0441515  31.5061598 104.7242423  90.8972879  30.8051617
 105.0917327  92.2217984  26.7942590 105.8389146  92.7339381  26.4849712
 105.3608916  91.9002037  27.6546984 103.3643977  94.7176525  23.7769544
 102.4555196  94.4335558  23.8742014 103.3939061  95.1375603  22.9172851
 108.5963244  98.3283114  27.5460712 108.1425571  97.4874024  27.6025902
 107.9657211  98.9644513  27.8835492 107.5396164  89.2575100  28.7761379
 106.8018921  88.7452487  29.1071622 107.7922937  88.8175482  27.9644656
 107.0396184 100.1659611  28.4810530 107.3319158 100.7264668  27.7622896
 107.5494804 100.4588172  29.2363689 107.6407791  82.0351352  29.3703149
 107.9466668  81.1748716  29.0829064 108.3660396  82.6268973  29.1702143
  93.9332147  92.4382039  27.7584747  93.7356547  91.8451400  27.0335813
  93.3778811  92.1334249  28.4760685 101.9128871  92.3305145  29.8779340
 101.9677481  91.3778982  29.8021816 101.1020073  92.4864585  30.3620638
 103.0620065  96.2585269  21.1157623 102.6239495  95.5421127  20.6563260
 103.8030506  96.4861383  20.5542714  99.8521231  90.9482205  27.6369719
  99.0389096  91.2476376  28.0434911 100.3480225  90.5537894  28.3544201
 102.0029809 100.9439962  29.5703983 101.9605988 101.1700808  28.6412515
 102.9192508 100.7103337  29.7189784 105.4495443  91.4124030  36.4684612
 105.8044830  91.6395503  37.3279078 106.0967574  91.7442406  35.8461868
 111.1793179  94.5342466  27.1733941 111.0411078  94.7244062  26.2455131
 110.8229398  95.2961848  27.6301993  99.3435306  88.5200561  33.2530954
  99.9834685  88.3789320  32.5553917  98.5112836  88.2335074  32.8769556
 111.2062559  96.6018993  32.1845213 111.6399066  96.5094282  33.0328267
 111.9194140  96.5776493  31.5465229 100.1195610  97.8202991  29.3665946
 100.9136208  97.3253311  29.1648521  99.4087302  97.2920854  29.0033652
 104.9390454 100.2021087  33.7178314 104.9927476 100.7712023  34.4856030
 104.0705235 100.3722972  33.3532351  96.4278373  91.9646073  25.4425699
  95.4975961  91.9030528  25.6595661  96.5235845  91.4422026  24.6462340
  96.3463922  88.4900886  28.0303940  96.6070739  89.4046219  27.9213101
  97.1681094  88.0225328  28.1800553  97.8188847  89.9038643  35.2002765
  98.4911901  89.6956005  34.5515414  96.9918634  89.7060729  34.7607997
 112.0678109  96.6442693  34.7178098 112.2613999  97.5488504  34.9637373
 111.9678727  96.1850112  35.5516683 103.7214419  86.5300584  37.2168426
 103.0742334  87.2290533  37.1232902 104.4915435  86.9636728  37.5844674
 107.1293217  96.7949436  40.2918979 106.9778724  96.5659988  39.3749063
 107.1197897  97.7520037  40.3050324 103.8978554  94.3681349  35.2765245
 104.8270614  94.5192508  35.1034213 103.4769584  94.4565370  34.4213892
 102.6966886  98.3932013  33.0463783 102.5577971  98.0250798  33.9189721
 101.9081482  98.9079653  32.8747741 103.2915037 103.4941110  24.3889320
 103.4666793 103.0229153  25.2034942 102.6047826 104.1206876  24.6170580
 104.2472101  97.7713616  30.4352621 103.9121933  97.7314386  31.3310271
 103.7476046  97.1058332  29.9623031  98.2216345  93.1781246  35.9605202
  98.0836143  92.4461485  36.5616741  99.1321268  93.0890146  35.6789390
 107.1831292  95.1169650  20.7089681 106.5660463  94.3916478  20.6122733
 106.7147781  95.8779010  20.3656755 100.8498645  92.8901205  35.4488882
 101.5598264  92.2494397  35.4075500 100.8067953  93.1414100  36.3715062
 108.8385424  99.8268559  38.3695461 108.7797970  99.1427779  37.7026044
 109.2404942 100.5687549  37.9176087  99.5627579  89.8766423  37.2684521
  99.0264936  89.4257162  37.9206117  98.9744288  90.0112332  36.5254985
  97.8576123 106.6430472  31.1629180  98.0972721 107.2748997  31.8408198
  97.0145319 106.2918512  31.4494539  98.9729838  89.3355075  19.8310985
  98.0959305  89.2143875  19.4673231  99.4487591  88.5441153  19.5789873
 108.8402831  97.7908142  36.6009441 107.9529610  97.4534064  36.7235839
 109.4101382  97.0591174  36.8378206  90.4931978  94.1232234  29.9252492
  91.1803018  93.8093964  29.3373507  90.3380107  95.0273599  29.6519743
  95.2966700  89.0122431  34.3537516  95.2124889  88.4048100  33.6187926
  94.4749407  89.5031449  34.3547012 102.3703985 102.4509595  33.5670684
 102.2974156 103.2564566  34.0789988 101.9281378 102.6501561  32.7418705
 102.1593764 101.6881365  27.0773505 101.3761286 102.2303045  27.1711730
 102.8586509 102.2055345  27.4767746 105.4690414  87.4975994  29.7207711
 105.9659114  86.7445957  29.4008781 104.6977396  87.5340311  29.1550920
 113.3220172  93.2016360  31.3626002 113.3110048  94.0841075  30.9919935
 112.4537551  92.8487911  31.1680539 104.8302668 102.3496429  35.7228842
 105.5430640 102.9843894  35.6504744 104.3392697 102.4460295  34.9068844
 106.5520195  96.2547682  27.2946134 105.6176474  96.3749144  27.1250838
 106.7296864  95.3520148  27.0306144 102.0525383  89.6393377  29.4479395
 101.6823171  89.0864418  30.1360301 102.5484476  89.0351511  28.8954395
 109.9392746  92.0965001  27.8296168 110.4053199  92.9292992  27.7556471
 110.3900247  91.6309982  28.5341427  99.8814582 100.0990872  36.5434413
 100.5824041 100.7327355  36.6963807  99.4109697 100.4405604  35.7830053
 108.0068978  98.4408822  24.8282320 108.2828821  98.3265417  25.7376194
 107.1373476  98.0426307  24.7894493 107.9109409  84.4645588  31.8687070
 106.9972489  84.6949815  32.0369277 108.3402511  84.5484032  32.7201102
 107.6815868  92.6535480  34.3686964 107.0287318  92.9011387  33.7139416
 108.0596248  91.8399618  34.0349441 104.6423042 102.6895173  28.4715134
 104.8245436 101.8716829  28.9342886 105.4656028 102.9062865  28.0340024
 104.9765207 101.6163358  25.7330182 105.5052973 101.1055813  25.1200344
 105.2393427 101.3005888  26.5975715 103.7303441  93.3955291  40.8553001
 103.0544078  93.2949420  41.5255376 104.5531075  93.2394505  41.3188998
  95.4782300  99.6327227  33.4765516  96.0635737  98.8870915  33.6093420
  95.2807138  99.9431184  34.3602180  98.3320955 102.6678475  28.4927958
  97.6631330 103.1524602  28.0091998  98.1933825 102.9147695  29.4071337
 102.4726224 104.7022218  35.0910617 103.0244532 104.8653840  35.8559702
 102.8132417 105.2926656  34.4190642  97.4490717  87.0497368  35.6932501
  97.5132043  87.9112199  35.2809899  97.3857837  86.4371370  34.9604860
  96.9242989  89.1220501  39.3405536  97.5515028  88.7397578  39.9543060
  96.0670908  88.9034703  39.7061228 107.3237098  99.5283476  40.9459271
 107.8677002 100.1413434  40.4514226 106.7423943 100.0863054  41.4626284
  93.7008532  90.9296930  25.2723890  93.9961973  90.0207608  25.2190944
  92.7996568  90.9084669  24.9504893 105.6094611 102.6504194  32.0774299
 105.4845750 101.8493934  31.5685244 106.2673702 103.1450387  31.5888269
  97.2302779  89.0052926  31.2551439  96.5089365  89.6188894  31.1158912
  98.0196035  89.5410691  31.1768085 107.6729519 100.4513214  33.7053849
 106.7259855 100.3318565  33.6332176 108.0212292  99.5635712  33.7880110
 100.0329093  86.3407353  37.5292091 100.5563494  86.5869649  38.2918400
  99.8141426  87.1727388  37.1095228  95.4296374  88.6111027  25.3963216
  95.1009080  87.7308406  25.2138322  95.7835744  88.5558696  26.2839605
 104.6775953 100.2465930  29.9058201 104.5300915  99.3182638  30.0865771
 105.5029446 100.2686021  29.4215276  98.5438197  88.8983997  25.7638693
  98.8834269  89.4269918  25.0417302  98.9910317  89.2364403  26.5397260
 108.2810074 101.0694489  30.9923074 109.2056622 100.8637350  30.8547525
 108.1125378 100.8210890  31.9012415 101.2381638  87.2821048  35.2141761
 100.8978458  86.4828861  35.6162441 100.5320644  87.5822759  34.6418595
 101.8898109  84.3670360  33.6669084 102.7124179  83.8930839  33.5447975
 102.1336173  85.1460844  34.1667771 100.5306344  87.3958619  23.9631986
 101.2514706  87.7739872  23.4595703  99.9071648  88.1147496  24.0666964
 104.6737467  88.1003768  24.8990318 104.8901081  88.9828406  24.5979147
 104.1931534  87.7089981  24.1695960  99.4136688  91.0589481  31.4761063
  99.2681269  91.3729784  32.3685344  98.9361892  91.6774381  30.9231962
 101.2733071  88.0492029  31.5241953 101.2594640  87.1533122  31.1874250
 101.9905499  88.0562693  32.1580239 103.1259202  88.4829369  33.5695080
 102.8676980  89.4046440  33.5679410 102.5944242  88.0859804  34.2595544
 108.0705391 101.5880156  26.3485165 108.2442268 101.0226579  25.5959018
 108.5634282 102.3881051  26.1664655  93.8882350  93.5994825  34.4148724
  93.3435818  94.3754633  34.5468998  94.7661700  93.9465630  34.2567846
 100.6769967  86.9306409  26.7929523 100.7985878  86.0023055  26.9920410
 100.3872009  86.9445095  25.8807838 103.5461157  84.6161320  29.9296243
 103.5682854  84.6800653  28.9748222 103.9629216  83.7765828  30.1236749
 113.9244782  94.3516579  27.9675465 114.3675928  93.6023904  27.5694588
 113.0471292  94.3426716  27.5849197 109.0580563 100.9046921  23.4482064
 109.7531468 101.5253613  23.6669378 109.4003713 100.0542272  23.7234442
  94.6748372  92.7264722  37.3078881  93.9330108  92.8747357  37.8943511
  94.3541117  92.9872987  36.4445630 110.9571986  98.3546626  24.9769394
 111.4823310  98.6933899  24.2518714 110.8694339  97.4193642  24.7932529
 102.6192035 102.2680700  37.1059271 102.9279161 102.0229847  37.9781971
 103.4167517 102.4727338  36.6178141 102.6412647 104.4218610  29.3364648
 102.2017637 103.9294988  30.0297504 103.3920764 103.8791577  29.0956723
  95.1204986 100.6130150  29.3389276  95.9463006 100.3133922  28.9587919
  94.7699038  99.8437773  29.7879064 100.0886519  99.9656619  31.4086949
  99.4666528  99.3027324  31.1089177 100.7591386  99.9917750  30.7260597
  93.3213591  98.5316477  30.2978209  92.4845499  98.1038651  30.1162211
  93.2937236  98.7248920  31.2349000 100.1611047  88.4438407  41.0019455
 100.2099202  89.3200529  40.6197225 100.7033561  87.9015800  40.4291099
 110.6465892  98.9879530  40.2820592 109.8561436  98.9703669  39.7425092
 110.4099247  99.5267824  41.0369629 110.7663767  95.8371996  37.5953321
 110.8161772  95.6722004  38.5368844 110.6577691  94.9699255  37.2051202
  99.6500026  98.5160542  24.8845410  99.7988146  99.1996006  24.2312083
 100.4566469  98.4965632  25.3994866 108.0567530  91.8202924  38.9112628
 108.9577392  91.6809389  38.6196625 108.1315504  91.9857379  39.8510805
 102.3910335  89.1969779  37.7565814 101.5213644  89.4903345  37.4848402
 102.6269815  89.7810224  38.4773078 112.2681964  98.2568938  37.8395342
 111.9766772  98.6198918  38.6758803 111.6554095  97.5435946  37.6608675
 113.4677646  95.8221818  30.3597913 114.3024538  96.2611622  30.5235473
 113.6036775  95.3460471  29.5406158 110.5169152  93.3801552  36.3075400
 110.9923274  93.5729199  35.4994252 109.5934718  93.4360738  36.0618784
  97.4052659  94.5425720  25.8906479  97.1598701  93.6388050  26.0886689
  97.5748573  94.5442870  24.9485957 105.0949369  85.4149396  35.2731234
 105.6131313  86.1510423  34.9477723 104.7404502  85.7213389  36.1077993
  96.6748306  90.2754077  23.3892640  95.9817551  90.3498432  22.7332676
  96.4300058  89.5114421  23.9114157 105.3461963  81.8349678  30.7932131
 105.6263717  81.1672868  31.4192557 106.1312570  82.0278774  30.2806795
 103.1495431 101.0108672  22.3557157 102.5769399 101.6298860  21.9027629
 103.7228225 101.5608034  22.8897079 109.2170821  90.2567312  34.5403706
 110.1688244  90.3565410  34.5615930 109.0474272  89.4645581  35.0501790
 107.2385201  87.3422896  34.7263107 106.6435133  87.6227908  34.0309596
 106.9534898  87.8316797  35.4979848 106.3692691 101.2945823  23.4865740
 107.3023364 101.2291384  23.6898615 106.2815904 102.1302089  23.0280272
 108.9980708 100.6111693  20.4469687 108.9194339 100.2771556  21.3405445
 109.8190375 101.1033461  20.4461159 111.6958899  93.4773432  33.6546006
 111.6635219  92.5389433  33.8405690 112.3059523  93.5557469  32.9211831
 103.5342230  92.3469485  19.6973210 104.4801335  92.2175693  19.7661628
 103.1556475  91.6084147  20.1742638 111.8453388  90.2684476  33.7004289
 111.3292436  89.4842932  33.5134218 112.7293336  89.9403192  33.8650808
 109.5064115  84.0125491  29.6600102 109.3088936  83.7040579  30.5443434
 110.1163820  84.7387130  29.7898031 117.5135449  94.5389439  32.7952042
 118.2438837  94.2774727  33.3559746 116.9042394  93.8018161  32.8354110
 115.5950746  92.6797302  33.3926494 114.8683910  92.5453267  32.7842985
 115.1798033  92.9874130  34.1983212 103.4180923  96.3987231  41.1573867
 104.3383932  96.5765830  41.3513913 103.3830506  95.4543277  41.0053566
 101.7185147  90.2719462  19.6328095 100.8116603  89.9752574  19.7090809
 101.9961128  89.9749280  18.7662381  92.6363088  91.5925825  30.0827141
  92.3165872  90.7391133  29.7901515  92.0896516  91.8074403  30.8385109
  96.4142995  94.3088266  33.7996648  96.6329005  95.2405374  33.8184682
  96.8268769  93.9496240  34.5851452 103.3347213  84.8156351  25.7872336
 102.5247941  84.4703436  26.1627582 104.0231630  84.5063895  26.3759948
 105.2637761  83.8934398  27.4096633 105.8168800  84.3129851  28.0686656
 105.5007848  82.9670146  27.4519589 101.2870860  89.8821472  43.1899397
 101.1867587  90.8315829  43.1211488 101.0692402  89.5539711  42.3175467
 100.4883932  87.1306397  19.7740074 101.3503096  87.4561295  20.0335891
 100.6734276  86.3437893  19.2613140  92.5051348  95.2128736  32.0520263
  91.8114819  94.7982689  31.5390217  93.2524339  95.2549273  31.4553682
 108.6416568  86.0034923  26.9175297 108.0615237  86.6619727  26.5353350
 108.3752501  85.1812268  26.5062715 107.0920135  85.4039981  29.1196617
 107.5919913  85.5156515  28.3110936 107.7355743  85.1001034  29.7597426
 101.1502130  93.3118611  42.0064458 100.6669212  94.1118971  42.2128347
 101.2363069  93.3226555  41.0531902  94.4188090  95.1446990  29.9286278
  94.3958778  95.2434677  28.9768161  94.7288727  95.9912141  30.2503444
  97.0775468  97.2023145  34.0432892  98.0318721  97.1707088  33.9762824
  96.8787992  96.7413769  34.8583118  97.6674850  95.7724261  36.6103690
  98.4867739  96.2668340  36.6338527  97.9411658  94.8556229  36.5821257
 107.4241446  88.1635014  25.9731645 106.5367301  88.4484664  25.7551840
 107.8395435  88.0028777  25.1258922 110.7755982  88.1881535  29.6885985
 111.5516373  88.6777987  29.9610601 110.0504117  88.6139589  30.1457854
 113.2128541  88.9009154  30.7459925 113.8073032  88.6604890  30.0353234
 113.2855125  88.1816284  31.3733462  95.4325697 102.7442765  31.0603090
  95.2980165 101.9843166  30.4941088  95.0157759 103.4683665  30.5931879
 106.5684660  97.9279688  20.0679665 107.2720510  98.1329691  20.6837321
 105.8447309  98.4956450  20.3328749 107.3982470  93.6789550  26.1881936
 107.3417671  94.1358101  25.3489568 107.9510812  92.9180234  26.0104778
 111.2087276  89.4679281  27.0132055 110.9524210  89.0675917  27.8440263
 110.5840144  90.1823075  26.8882194 115.5199614  92.2075355  29.5203346
 114.9599172  92.2768544  30.2934909 114.9143117  92.0316339  28.8002843
  98.5894823 103.6412082  31.2721533  98.4727207 104.5857514  31.1700223
  97.7687269 103.3385643  31.6607332 108.4771357  98.3662217  22.1178125
 109.3116961  97.9343416  21.9355600 108.3155700  98.1944231  23.0455020
 108.1317249  94.8694331  23.4834465 108.0766053  94.7038602  22.5422909
 107.5063305  95.5770364  23.6396654 105.4463157  97.1743243  42.8088028
 106.3154316  97.3483895  42.4474662 104.9669908  97.9937659  42.6863757
 101.4413375  84.3702440  23.0619783 101.4292045  85.3144280  23.2188054
 102.3336797  84.1872585  22.7679244  99.6149337 104.2940344  34.4877461
 100.5176583 104.3263954  34.8043956  99.3886707 103.3640795  34.5023797
 101.3702939 103.0471330  31.1487540 100.4198570 103.0473192  31.0351912
 101.6735425 102.3004065  30.6323574 105.2565494  80.9645216  27.3165720
 104.4897890  80.4103703  27.4622402 105.6676199  81.0367085  28.1779872
  97.2607255  87.2530012  41.4070901  98.1238717  86.8966817  41.6174226
  96.6872666  86.9143907  42.0946305 117.1055632 108.8831869  32.2133302
 117.7434042 108.7638616  31.5096642 116.9876475 109.8312713  32.2721254
 113.9145339 108.8359297  32.1494827 113.5763850 108.7200361  31.2615362
 114.7835107 108.4350462  32.1295833 109.7732154 110.6894773  28.1391718
 109.2097019 110.5984710  27.3708006 109.6584549 109.8694678  28.6194210
 114.3965122 109.9894148  38.1081032 114.3853762 109.5946947  37.2361536
 114.5585761 109.2560221  38.7014804 107.3196586 112.1845965  30.9775938
 108.1117878 111.8436789  30.5622238 107.5593236 112.2940940  31.8978092
 111.1172383 112.7731260  37.0560216 110.8262249 113.6776891  36.9406883
 111.7529367 112.8147788  37.7704286 112.0428590 110.1508109  33.6461576
 112.6392162 109.9264131  32.9318539 112.1003561 109.4092854  34.2487024
 116.6596901 106.6083322  29.2886510 117.4459990 106.1902746  28.9376927
 116.9235605 107.5129415  29.4568159 122.0605328 106.5458556  30.1919489
 122.7930500 105.9757772  30.4257318 121.3044684 106.1580156  30.6325994
 113.6781448 108.9685797  27.3882831 113.3139655 108.4416418  28.0995753
 114.5348563 108.5784266  27.2149317 119.5830748 100.2580130  34.6514097
 119.2514073 101.1275541  34.4275312 118.9876362  99.9416414  35.3308128
 113.3186935 103.9975697  22.3844180 113.4861337 104.8655933  22.7514651
 113.1284104 104.1602979  21.4605469 116.0762268 112.4592676  34.0510010
 115.7762991 113.3617715  33.9425817 115.7313327 112.1924859  34.9031163
 109.5274749 108.9106473  30.0846714 108.6025246 108.7782687  30.2924406
 109.7759162 109.6900692  30.5816657 119.4759412 104.9775216  31.7307447
 118.5676289 104.9090624  31.4366208 119.4247007 105.4547161  32.5589273
 113.2976155 106.4533354  23.3690847 113.1775781 106.8990405  24.2076327
 112.6028744 106.8018672  22.8104385 106.8883560 108.5539746  30.9190504
 107.0175941 108.8074225  31.8329915 106.2081012 109.1467454  30.5995159
 113.5500277 106.3964862  39.6742345 112.7733611 106.9558782  39.6645209
 114.1890840 106.8821644  40.1957215 121.3421058 103.1791654  33.5085321
 120.6995438 103.4724187  32.8625116 120.8375986 103.0644575  34.3138518
 111.8046650 109.2050315  39.2360312 112.5461334 109.7435359  38.9595135
 111.0983635 109.8316604  39.3931863 117.2801989 111.3479455  37.8332473
 117.6885345 110.9061866  37.0887106 116.5579251 110.7732083  38.0866666
 113.6333059 106.2852062  35.2066030 114.4794254 106.7091476  35.3500679
 113.5731697 105.6285686  35.9004593 117.6030804 111.9080646  31.5884762
 116.9739666 112.0726360  30.8860830 117.2156466 112.3222256  32.3595726
 116.7832505 103.9456430  36.8647204 116.5393437 104.6998491  36.3281479
 117.0592435 104.3241778  37.6994451 118.7370967 110.4895043  35.5424469
 118.9487863 111.1326803  34.8658850 118.6900716 109.6557359  35.0746399
 116.3397196 103.1012863  32.4461041 115.4781675 103.3994117  32.7377779
 116.3659631 103.3183262  31.5142074 113.1558766 111.6455054  28.8534847
 113.6197111 111.9242757  28.0639470 112.8915564 110.7438499  28.6707938
 110.0482847 111.1926536  31.7914610 110.6184204 111.6213804  31.1532095
 110.6390959 110.9109120  32.4898796 112.0927652 107.7678206  25.6624412
 112.7951695 108.2199250  26.1298339 111.7608280 107.1262025  26.2904305
 110.5408013 106.3589963  40.0375622 109.9106674 107.0406244  40.2711018
 110.4344101 106.2473045  39.0928760 105.8352986 106.0261759  30.9641546
 105.0452040 106.2819288  30.4881656 106.3264233 106.8410097  31.0693586
 119.8516795 113.3666998  33.7146827 120.6734239 112.9647186  33.4329508
 119.8479198 113.2635232  34.6662942 107.7867731 106.3906338  27.9225023
 106.9898894 106.5025033  28.4408518 107.5593323 106.7292991  27.0565913
 113.6173399 112.9151042  35.8707537 113.6817831 113.3771449  36.7065709
 112.9084323 112.2848406  35.9989847 104.1190689 106.2792250  33.3956537
 104.3698727 107.1639259  33.6614113 104.6550237 106.0996851  32.6231628
 109.8188756 100.6610729  42.4000873 109.4255702 100.1076927  43.0748517
 110.6354896 100.9721307  42.7907390 106.7850814 112.0994587  26.3114443
 107.2975334 112.8937837  26.4620007 107.4373527 111.4020878  26.2448044
 108.5945699 115.2160343  28.3937196 108.7712327 116.1378308  28.2058180
 109.3902532 114.9018763  28.8231576 112.7356717 102.0768608  39.9921129
 113.4766430 102.6775761  39.9125592 112.9674640 101.3346246  39.4339172
 107.8798055 107.2624975  38.2699359 107.7651570 106.3610232  38.5706458
 107.0242573 107.5088672  37.9184176 114.9589893 115.2042716  39.8686860
 114.5153747 114.4179094  39.5507764 115.6207106 115.3921866  39.2030750
 109.7177014 116.7338517  34.3947538 110.2684439 116.6055580  33.6224532
 108.8788490 117.0333406  34.0442431 117.0571131 115.4845515  37.8968261
 117.0389606 116.3054397  37.4048530 117.9791051 115.3599591  38.1218402
 113.5144185 112.9989645  38.7391769 114.0472522 112.2377933  38.5091077
 112.9858266 112.7063297  39.4815924 116.6813880  98.1049711  34.2685411
 116.3378149  98.9951353  34.1924522 117.0492843  97.9151369  33.4054996
 104.7499731 110.4283241  27.0874013 105.5874953 110.8380250  26.8707721
 104.9277998 109.4882684  27.0574207 114.2311274 102.9408023  27.8343084
 113.3752870 102.5514873  27.6548723 114.6438226 103.0199984  26.9742870
 115.7610420 100.4754366  32.2334644 115.2575216 100.4384501  31.4202449
 116.0541027 101.3847109  32.2931301 112.0053306 100.5593096  31.2400826
 112.8706303 100.3635904  30.8806715 112.0730815 100.3303448  32.1670183
 116.4350466 105.9685414  24.6017627 116.1300601 106.2831563  25.4527770
 117.3880908 106.0466834  24.6444960 119.8589744 110.3224658  31.3677628
 119.2013418 111.0123919  31.4557756 120.6630143 110.7121090  31.7111614
 109.6115625 102.7895304  28.6117193 110.1859377 102.5670485  27.8790386
 110.1986608 102.8583998  29.3645794 118.6695203 108.6769031  29.4181569
 119.1827084 109.3099022  29.9203279 119.3196426 108.0770226  29.0524929
 109.9385212 104.8199765  22.6313078 109.1022525 105.1574451  22.9522353
 109.7989982 104.6848745  21.6940215 111.9138293  99.6636553  27.3392262
 111.2602705  99.3485570  26.7148877 111.8718767  99.0412293  28.0652085
 115.1476033 106.1518486  31.6639910 114.2298595 106.3733433  31.5061598
 115.5636177 106.2264797  30.8051617 115.9311081 107.5509902  26.7942590
 116.6782900 108.0631299  26.4849712 116.2002671 107.2293955  27.6546984
 118.3789918 104.5867018  28.7761379 117.6412675 104.0744404  29.1071622
 118.6316692 104.1467400  27.9644656 118.4801546  97.3643270  29.3703149
 118.7860422  96.5040634  29.0829064 119.2054150  97.9560890  29.1702143
 104.7725902 107.7673957  27.7584747 104.5750302 107.1743317  27.0335813
 104.2172566 107.4626167  28.4760685 112.7522625 107.6597063  29.8779340
 112.8071235 106.7070900  29.8021816 111.9413827 107.8156502  30.3620638
 110.6914985 106.2774123  27.6369719 109.8782851 106.5768293  28.0434911
 111.1873980 105.8829812  28.3544201 112.8423563 116.2731880  29.5703983
 112.7999742 116.4992726  28.6412515 113.7586262 116.0395254  29.7189784
 116.2889197 106.7415947  36.4684612 116.6438585 106.9687421  37.3279078
 116.9361328 107.0734324  35.8461868 110.1829060 103.8492478  33.2530954
 110.8228439 103.7081238  32.5553917 109.3506591 103.5626992  32.8769556
 122.0456314 111.9310910  32.1845213 122.4792820 111.8386199  33.0328267
 122.7587894 111.9068411  31.5465229 110.9589364 113.1494909  29.3665946
 111.7529962 112.6545229  29.1648521 110.2481056 112.6212772  29.0033652
 115.7784208 115.5313004  33.7178314 115.8321231 116.1003941  34.4856030
 114.9098990 115.7014889  33.3532351 107.2672127 107.2937991  25.4425699
 106.3369716 107.2322446  25.6595661 107.3629599 106.7713943  24.6462340
 107.1857677 103.8192803  28.0303940 107.4464494 104.7338137  27.9213101
 108.0074849 103.3517246  28.1800553 108.6582602 105.2330561  35.2002765
 109.3305655 105.0247923  34.5515414 107.8312388 105.0352647  34.7607997
 122.9071863 111.9734611  34.7178098 123.1007753 112.8780421  34.9637373
 122.8072481 111.5142030  35.5516683 114.5608174 101.8592502  37.2168426
 113.9136089 102.5582451  37.1232902 115.3309189 102.2928645  37.5844674
 117.9686972 112.1241354  40.2918979 117.8172478 111.8951905  39.3749063
 117.9591651 113.0811955  40.3050324 114.7372308 109.6973266  35.2765245
 115.6664368 109.8484426  35.1034213 114.3163338 109.7857287  34.4213892
 113.5360640 113.7223931  33.0463783 113.3971726 113.3542715  33.9189721
 112.7475236 114.2371570  32.8747741 115.0865855 113.1005534  30.4352621
 114.7515688 113.0606304  31.3310271 114.5869801 112.4350249  29.9623031
 109.0610099 108.5073164  35.9605202 108.9229897 107.7753402  36.5616741
 109.9715023 108.4182064  35.6789390 111.6892400 108.2193123  35.4488882
 112.3992018 107.5786315  35.4075500 111.6461708 108.4706018  36.3715062
 119.6779178 115.1560476  38.3695461 119.6191725 114.4719696  37.7026044
 120.0798697 115.8979466  37.9176087 110.4021334 105.2058341  37.2684521
 109.8658691 104.7549079  37.9206117 109.8138042 105.3404250  36.5254985
 108.6969877 121.9722390  31.1629180 108.9366475 122.6040914  31.8408198
 107.8539074 121.6210430  31.4494539 119.6796586 113.1200060  36.6009441
 118.7923364 112.7825982  36.7235839 120.2495137 112.3883091  36.8378206
 101.3325733 109.4524152  29.9252492 102.0196773 109.1385882  29.3373507
 101.1773862 110.3565517  29.6519743 106.1360455 104.3414348  34.3537516
 106.0518644 103.7340018  33.6187926 105.3143161 104.8323367  34.3547012
 113.2097739 117.7801513  33.5670684 113.1367911 118.5856484  34.0789988
 112.7675132 117.9793478  32.7418705 116.3084169 102.8267912  29.7207711
 116.8052868 102.0737874  29.4008781 115.5371150 102.8632229  29.1550920
 124.1613926 108.5308278  31.3626002 124.1503802 109.4132993  30.9919935
 123.2931306 108.1779828  31.1680539 115.6696423 117.6788347  35.7228842
 116.3824395 118.3135811  35.6504744 115.1786451 117.7752213  34.9068844
 117.3913950 111.5839599  27.2946134 116.4570228 111.7041062  27.1250838
 117.5690618 110.6812066  27.0306144 112.8919138 104.9685295  29.4479395
 112.5216925 104.4156335  30.1360301 113.3878230 104.3643428  28.8954395
 120.7786501 107.4256919  27.8296168 121.2446953 108.2584910  27.7556471
 121.2294001 106.9601900  28.5341427 110.7208336 115.4282790  36.5434413
 111.4217796 116.0619273  36.6963807 110.2503451 115.7697522  35.7830053
 118.7503164  99.7937505  31.8687070 117.8366243 100.0241732  32.0369277
 119.1796265  99.8775950  32.7201102 118.5209622 107.9827397  34.3686964
 117.8681072 108.2303305  33.7139416 118.8990002 107.1691536  34.0349441
 114.5697195 108.7247209  40.8553001 113.8937832 108.6241338  41.5255376
 115.3924829 108.5686422  41.3188998 106.3176054 114.9619145  33.4765516
 106.9029491 114.2162833  33.6093420 106.1200893 115.2723102  34.3602180
 109.1714709 117.9970392  28.4927958 108.5025085 118.4816520  28.0091998
 109.0327579 118.2439613  29.4071337 100.9093709 107.5324745  32.1969959
 100.9477808 106.9988336  32.9907077 100.4034002 107.0059951  31.5780936
 113.3119978 120.0314136  35.0910617 113.8638286 120.1945757  35.8559702
 113.6526171 120.6218574  34.4190642 108.2884471 102.3789286  35.6932501
 108.3525798 103.2404117  35.2809899 108.2251592 101.7663287  34.9604860
 107.7636744 104.4512418  39.3405536 108.3908783 104.0689496  39.9543060
 106.9064663 104.2326620  39.7061228 118.1630852 114.8575393  40.9459271
 118.7070756 115.4705352  40.4514226 117.5817697 115.4154972  41.4626284
 104.5402287 106.2588847  25.2723890 104.8355728 105.3499526  25.2190944
 103.6390322 106.2376587  24.9504893 116.4488365 117.9796111  32.0774299
 116.3239505 117.1785851  31.5685244 117.1067456 118.4742305  31.5888269
 108.0696534 104.3344844  31.2551439 107.3483119 104.9480812  31.1158912
 108.8589789 104.8702609  31.1768085 118.5123274 115.7805132  33.7053849
 117.5653609 115.6610483  33.6332176 118.8606047 114.8927630  33.7880110
 110.8722847 101.6699271  37.5292091 111.3957249 101.9161567  38.2918400
 110.6535180 102.5019305  37.1095228 106.2690128 103.9402945  25.3963216
 105.9402834 103.0600324  25.2138322 106.6229499 103.8850614  26.2839605
 115.5169707 115.5757848  29.9058201 115.3694669 114.6474555  30.0865771
 116.3423201 115.5977939  29.4215276 109.3831951 104.2275915  25.7638693
 109.7228024 104.7561836  25.0417302 109.8304072 104.5656321  26.5397260
 112.0775392 102.6112966  35.2141761 111.7372212 101.8120779  35.6162441
 111.3714398 102.9114676  34.6418595 112.7291864  99.6962278  33.6669084
 113.5517933  99.2222756  33.5447975 112.9729927 100.4752762  34.1667771
 111.3700098 102.7250536  23.9631986 112.0908461 103.1031789  23.4595703
 110.7465403 103.4439413  24.0666964 115.5131221 103.4295685  24.8990318
 115.7294836 104.3120323  24.5979147 115.0325288 103.0381899  24.1695960
 110.2530443 106.3881399  31.4761063 110.1075023 106.7021702  32.3685344
 109.7755646 107.0066299  30.9231962 112.1126826 103.3783947  31.5241953
 112.0988394 102.4825040  31.1874250 112.8299254 103.3854610  32.1580239
 113.9652956 103.8121287  33.5695080 113.7070734 104.7338358  33.5679410
 113.4337997 103.4151721  34.2595544 104.7276105 108.9286743  34.4148724
 104.1829573 109.7046551  34.5468998 105.6055455 109.2757548  34.2567846
 111.5163722 102.2598327  26.7929523 111.6379633 101.3314973  26.9920410
 111.2265764 102.2737013  25.8807838 114.3854912  99.9453237  29.9296243
 114.4076609 100.0092570  28.9748222 114.8022971  99.1057746  30.1236749
 105.5142127 108.0556639  37.3078881 104.7723863 108.2039275  37.8943511
 105.1934871 108.3164905  36.4445630 113.4585789 117.5972618  37.1059271
 113.7672916 117.3521764  37.9781971 114.2561271 117.8019256  36.6178141
 105.9598740 115.9422068  29.3389276 106.7856760 115.6425840  28.9587919
 105.6092792 115.1729690  29.7879064 110.9280274 115.2948536  31.4086949
 110.3060283 114.6319241  31.1089177 111.5985140 115.3209668  30.7260597
 104.1607345 113.8608395  30.2978209 103.3239254 113.4330569  30.1162211
 104.1330991 114.0540838  31.2349000 111.0004801 103.7730324  41.0019455
 111.0492957 104.6492447  40.6197225 111.5427315 103.2307717  40.4291099
 121.4859647 114.3171448  40.2820592 120.6955190 114.2995586  39.7425092
 121.2493001 114.8559741  41.0369629 121.6057522 111.1663914  37.5953321
 121.6555527 111.0013921  38.5368844 121.4971445 110.2991173  37.2051202
 118.8961284 107.1494842  38.9112628 119.7971147 107.0101307  38.6196625
 118.9709259 107.3149297  39.8510805 113.2304089 104.5261697  37.7565814
 112.3607399 104.8195263  37.4848402 113.4663570 105.1102142  38.4773078
 123.1075719 113.5860855  37.8395342 122.8160527 113.9490836  38.6758803
 122.4947850 112.8727864  37.6608675 124.3071401 111.1513735  30.3597913
 125.1418292 111.5903539  30.5235473 124.4430530 110.6752388  29.5406158
 121.3562907 108.7093470  36.3075400 121.8317028 108.9021116  35.4994252
 120.4328472 108.7652656  36.0618784 108.2446413 109.8717637  25.8906479
 107.9992455 108.9679967  26.0886689 108.4142328 109.8734788  24.9485957
 115.9343123 100.7441314  35.2731234 116.4525067 101.4802341  34.9477723
 115.5798256 101.0505307  36.1077993 107.5142061 105.6045995  23.3892640
 106.8211306 105.6790350  22.7332676 107.2693813 104.8406338  23.9114157
 116.1855717  97.1641596  30.7932131 116.4657471  96.4964785  31.4192557
 116.9706324  97.3570692  30.2806795 120.0564576 105.5859230  34.5403706
 121.0081999 105.6857328  34.5615930 119.8868026 104.7937499  35.0501790
 118.0778955 102.6714813  34.7263107 117.4828887 102.9519826  34.0309596
 117.7928652 103.1608714  35.4979848 122.5352654 108.8065350  33.6546006
 122.5028974 107.8681351  33.8405690 123.1453277 108.8849387  32.9211831
 122.6847142 105.5976393  33.7004289 122.1686191 104.8134850  33.5134218
 123.5687091 105.2695110  33.8650808 120.3457869  99.3417409  29.6600102
 120.1482690  99.0332497  30.5443434 120.9557575 100.0679048  29.7898031
 128.3529203 109.8681357  32.7952042 129.0832592 109.6066645  33.3559746
 127.7436149 109.1310079  32.8354110 126.4344501 108.0089219  33.3926494
 125.7077664 107.8745184  32.7842985 126.0191787 108.3166048  34.1983212
 114.2574677 111.7279149  41.1573867 115.1777686 111.9057748  41.3513913
 114.2224260 110.7835194  41.0053566 103.4756842 106.9217743  30.0827141
 103.1559626 106.0683051  29.7901515 102.9290270 107.1366321  30.8385109
 107.2536750 109.6380184  33.7996648 107.4722759 110.5697291  33.8184682
 107.6662523 109.2788158  34.5851452 114.1740967 100.1448269  25.7872336
 113.3641696  99.7995354  26.1627582 114.8625384  99.8355813  26.3759948
 116.1031516  99.2226316  27.4096633 116.6562554  99.6421769  28.0686656
 116.3401602  98.2962064  27.4519589 112.1264615 105.2113389  43.1899397
 112.0261342 106.1607746  43.1211488 111.9086157 104.8831628  42.3175467
 111.3277686 102.4598314  19.7740074 112.1896850 102.7853213  20.0335891
 111.5128030 101.6729810  19.2613140 103.3445102 110.5420654  32.0520263
 102.6508573 110.1274607  31.5390217 104.0918093 110.5841191  31.4553682
 119.4810323 101.3326841  26.9175297 118.9008992 101.9911645  26.5353350
 119.2146255 100.5104185  26.5062715 117.9313889 100.7331899  29.1196617
 118.4313667 100.8448433  28.3110936 118.5749497 100.4292951  29.7597426
 111.9895885 108.6410528  42.0064458 111.5062967 109.4410888  42.2128347
 112.0756824 108.6518473  41.0531902 105.2581845 110.4738908  29.9286278
 105.2352533 110.5726595  28.9768161 105.5682481 111.3204059  30.2503444
 107.9169222 112.5315063  34.0432892 108.8712476 112.4999005  33.9762824
 107.7181746 112.0705687  34.8583118 108.5068605 111.1016179  36.6103690
 109.3261494 111.5960258  36.6338527 108.7805412 110.1848147  36.5821257
 118.2635201 103.4926931  25.9731645 117.3761056 103.7776582  25.7551840
 118.6789190 103.3320695  25.1258922 121.6149737 103.5173452  29.6885985
 122.3910127 104.0069905  29.9610601 120.8897871 103.9431506  30.1457854
 124.0522296 104.2301071  30.7459925 124.6466786 103.9896807  30.0353234
 124.1248879 103.5108202  31.3733462 106.2719451 118.0734682  31.0603090
 106.1373919 117.3135083  30.4941088 105.8551513 118.7975582  30.5931879
 122.0481030 104.7971199  27.0132055 121.7917965 104.3967835  27.8440263
 121.4233898 105.5114993  26.8882194 126.3593368 107.5367272  29.5203346
 125.7992926 107.6060462  30.2934909 125.7536872 107.3608257  28.8002843
 109.4288577 118.9703999  31.2721533 109.3120961 119.9149432  31.1700223
 108.6081023 118.6677561  31.6607332 103.7603519 105.4354313  37.3095887
 104.4062382 104.9253267  37.7983112 103.5520670 106.1722994  37.8839312
 116.2856911 112.5035160  42.8088028 117.1548071 112.6775813  42.4474662
 115.8063662 113.3229577  42.6863757 112.2807129  99.6994357  23.0619783
 112.2685799 100.6436197  23.2188054 113.1730551  99.5164503  22.7679244
 110.4543091 119.6232261  34.4877461 111.3570338 119.6555872  34.8043956
 110.2280461 118.6932712  34.5023797 112.2096693 118.3763248  31.1487540
 111.2592324 118.3765109  31.0351912 112.5129179 117.6295982  30.6323574
 116.0959249  96.2937134  27.3165720 115.3291645  95.7395621  27.4622402
 116.5069954  96.3659003  28.1779872 108.1001010 102.5821930  41.4070901
 108.9632471 102.2258735  41.6174226 107.5266420 102.2435825  42.0946305
 124.3894032 121.7256779  39.6742345 123.6127366 122.2850699  39.6645209
 125.0284595 122.2113562  40.1957215 122.6440404 124.5342233  39.2360312
 123.3855088 125.0727277  38.9595135 121.9377390 125.1608521  39.3931863
 127.6226259 119.2748348  36.8647204 127.3787191 120.0290409  36.3281479
 127.8986190 119.6533696  37.6994451 121.3801768 121.6881881  40.0375622
 120.7500428 122.3698162  40.2711018 121.2737856 121.5764962  39.0928760
 114.9584443 121.6084167  33.3956537 115.2092482 122.4931177  33.6614113
 115.4943992 121.4288769  32.6231628 120.6582511 115.9902647  42.4000873
 120.2649456 115.4368845  43.0748517 121.4748651 116.3013225  42.7907390
 123.5750472 117.4060526  39.9921129 124.3160185 118.0067679  39.9125592
 123.8068394 116.6638163  39.4339172 118.7191810 122.5916893  38.2699359
 118.6045325 121.6902150  38.5706458 117.8636327 122.8380590  37.9184176
 127.5207635 113.4341629  34.2685411 127.1771904 114.3243270  34.1924522
 127.8886597 113.2443286  33.4054996 119.4976356 120.5622478  35.2002765
 120.1699410 120.3539840  34.5515414 118.6706143 120.3644564  34.7607997
 125.4001928 117.1884419  37.2168426 124.7529843 117.8874369  37.1232902
 126.1702944 117.6220563  37.5844674 119.9003854 123.8365081  35.9605202
 119.7623652 123.1045320  36.5616741 120.8108777 123.7473981  35.6789390
 121.2415088 120.5350258  37.2684521 120.7052445 120.0840997  37.9206117
 120.6531797 120.6696167  36.5254985 116.9754209 119.6706266  34.3537516
 116.8912398 119.0631936  33.6187926 116.1536916 120.1615284  34.3547012
 125.4090950 124.0539126  40.8553001 124.7331587 123.9533256  41.5255376
 126.2318584 123.8978340  41.3188998 111.7487463 122.8616663  32.1969959
 111.7871563 122.3280254  32.9907077 111.2427756 122.3351868  31.5780936
 119.1278226 117.7081203  35.6932501 119.1919552 118.5696034  35.2809899
 119.0645346 117.0955205  34.9604860 118.6030498 119.7804336  39.3405536
 119.2302537 119.3981413  39.9543060 117.7458417 119.5618538  39.7061228
 121.7116602 116.9991188  37.5292091 122.2351003 117.2453485  38.2918400
 121.4928935 117.8311223  37.1095228 122.9169147 117.9404883  35.2141761
 122.5765967 117.1412696  35.6162441 122.2108153 118.2406594  34.6418595
 123.5685618 115.0254196  33.6669084 124.3911688 114.5514674  33.5447975
 123.8123682 115.8044679  34.1667771 115.5669859 124.2578661  34.4148724
 115.0223327 125.0338469  34.5468998 116.4449209 124.6049465  34.2567846
 116.3535881 123.3848557  37.3078881 115.6117617 123.5331192  37.8943511
 116.0328625 123.6456823  36.4445630 121.8398556 119.1022242  41.0019455
 121.8886711 119.9784365  40.6197225 122.3821070 118.5599635  40.4291099
 124.0697844 119.8553614  37.7565814 123.2001153 120.1487180  37.4848402
 124.3057324 120.4394059  38.4773078 126.7736878 116.0733231  35.2731234
 127.2918822 116.8094258  34.9477723 126.4192011 116.3797225  36.1077993
 125.0968432 127.0571067  41.1573867 126.0171441 127.2349666  41.3513913
 125.0618015 126.1127112  41.0053566 122.9658369 120.5405307  43.1899397
 122.8655096 121.4899664  43.1211488 122.7479911 120.2123546  42.3175467
 122.8289639 123.9702446  42.0064458 122.3456721 124.7702806  42.2128347
 122.9150578 123.9810391  41.0531902 114.5997273 120.7646231  37.3095887
 115.2456137 120.2545184  37.7983112 114.3914424 121.5014912  37.8839312
 127.1250665 127.8327078  42.8088028 127.9941825 128.0067730  42.4474662
 126.6457417 128.6521495  42.6863757 118.9394764 117.9113848  41.4070901
 119.8026226 117.5550652  41.6174226 118.3660175 117.5727742  42.0946305
  60.1996350  10.3496683  24.8326339  60.1884991   9.9549481  23.9606843
  60.3616990   9.6162755  25.4260111  56.9203611  13.1333794  23.7805523
  56.6293477  14.0379425  23.6652189  57.5560596  13.1750322  24.4949593
  59.3531506   6.7567396  26.3987651  58.5764840   7.3161316  26.3890516
  59.9922069   7.2424179  26.9202521  57.6077878   9.5652849  25.9605618
  58.3492563  10.1037893  25.6840442  56.9014864  10.1919138  26.1177170
  63.0833218  11.7081990  24.5577780  63.4916574  11.2664400  23.8132412
  62.3610480  11.1334617  24.8111973  65.6548024  13.7269532  20.4392133
  66.4765468  13.3249720  20.1574815  65.6510427  13.6237767  21.3908249
  60.7621122  15.5645250  26.5932166  60.3184976  14.7781628  26.2753071
  61.4238335  15.7524400  25.9276057  62.8602360  15.8448050  24.6213568
  62.8420835  16.6656931  24.1293837  63.7822280  15.7202125  24.8463709
  59.3175414  13.3592179  25.4637076  59.8503751  12.5980467  25.2336384
  58.7889495  13.0665831  26.2061230  68.7103092  12.3337145  21.4423405
  68.9038982  13.2382956  21.6882680  68.6103710  11.8744564  22.2761990
  63.7718201  12.4843888  27.0164286  63.6203707  12.2554440  26.0994369
  63.7622880  13.4414489  27.0295631  65.4810407  15.5163010  25.0940768
  65.4222953  14.8322231  24.4271351  65.8829926  16.2582000  24.6421394
  65.4827815  13.4802594  23.3254747  64.5954593  13.1428516  23.4481146
  66.0526366  12.7485626  23.5623513  61.4727651  18.0390881  22.4474149
  62.1855624  18.6738346  22.3750051  60.9817680  18.1354747  21.6314151
  56.5239565  15.7885324  23.2679720  57.2249024  16.4221807  23.4209114
  56.0534680  16.1300056  22.5075359  60.3728424   9.0849743  27.5798307
  59.6969061   8.9843872  28.2500683  61.1956058   8.9288956  28.0434305
  59.1151207  20.3916670  21.8155923  59.6669515  20.5548292  22.5805009
  59.4557400  20.9821108  21.1435948  63.9662081  15.2177928  27.6704578
  64.5101985  15.8307886  27.1759533  63.3848926  15.7757506  28.1871591
  64.3154503  16.1407666  20.4299156  63.3684838  16.0213017  20.3577482
  64.6637276  15.2530164  20.5125417  59.2617018  17.9575152  23.8304578
  59.5704145  17.7124299  24.7027277  60.0592500  18.1621790  23.3423448
  67.2890876  14.6773982  27.0065899  66.4986419  14.6598121  26.4670398
  67.0524230  15.2162275  27.7614936  67.4088751  11.5266448  24.3198628
  67.4586756  11.3616456  25.2614150  67.3002674  10.6593707  23.9296508
  64.6992513   7.5097376  25.6357934  65.6002376   7.3703841  25.3441932
  64.7740487   7.6751831  26.5756112  68.9106947  13.9463390  24.5640649
  68.6191756  14.3093370  25.4004110  68.2979079  13.2330398  24.3853981
  67.1594136   9.0696004  23.0320707  67.6348257   9.2623651  22.2239558
  66.2359701   9.1255190  22.7864091  74.1560432  10.2283891  19.5197349
  74.8863821   9.9669179  20.0805052  73.5467378   9.4912613  19.5599417
  60.0605906  12.0881683  27.8819173  60.9808915  12.2660282  28.0759220
  60.0255489  11.1437729  27.7298873  57.9295844   5.5715924  29.9144703
  57.8292571   6.5210281  29.8456795  57.7117386   5.2434162  29.0420774
  57.7927114   9.0013062  28.7309765  57.3094195   9.8013423  28.9373654
  57.8788053   9.0121007  27.7777209  62.0888140  12.8637695  29.5333334
  62.9579299  13.0378347  29.1719969  61.6094891  13.6832111  29.4109064
  56.2574320  19.9834796  21.2122768  57.1601567  20.0158406  21.5289263
  56.0311690  19.0535246  21.2269104  73.7480616  24.5726320  18.9378609
  74.3859025  24.4533068  18.2341949  73.6301458  25.5207164  18.9966561
  70.5570322  24.5253749  18.8740134  70.2188833  24.4094813  17.9860668
  71.4260090  24.1244914  18.8541140  66.4157138  26.3789225  14.8637024
  65.8522003  26.2879162  14.0953312  66.3009533  25.5589129  15.3439517
  71.0390105  25.6788600  24.8326339  71.0278746  25.2841399  23.9606843
  71.2010744  24.9454673  25.4260111  63.9621569  27.8740417  17.7021245
  64.7542861  27.5331241  17.2867544  64.2018220  27.9835392  18.6223398
  71.9956696  30.0460193  10.1751489  71.3444676  30.6314273   9.7885503
  72.7901059  30.5766388  10.2346527  67.7597366  28.4625712  23.7805523
  67.4687232  29.3671343  23.6652189  68.3954350  28.5042240  24.4949593
  68.6853573  25.8402561  20.3706883  69.2817145  25.6158583  19.6563846
  68.7428544  25.0987306  20.9732331  73.3021884  22.2977774  16.0131817
  74.0884973  21.8797197  15.6622234  73.5660588  23.2023867  16.1813465
  73.4731961  27.7350625  10.7120474  72.8377794  27.8085251  11.4241378
  73.1429368  28.3244223  10.0339553  78.7030311  22.2353008  16.9164795
  79.4355483  21.6652224  17.1502625  77.9469667  21.8474608  17.3571301
  70.3206431  24.6580249  14.1128138  69.9564638  24.1310870  14.8241059
  71.1773547  24.2678718  13.9394623  76.2255731  15.9474582  21.3759404
  75.8939056  16.8169993  21.1520619  75.6301345  15.6310866  22.0553434
  72.7187251  28.1487128  20.7755317  72.4187974  29.0512166  20.6671124
  72.3738311  27.8819311  21.6276470  66.1699732  24.6000924  16.8092021
  65.2450229  24.4677139  17.0169713  66.4184146  25.3795144  17.3061964
  76.1184395  20.6669668  18.4552754  75.2101272  20.5985076  18.1611515
  76.0671991  21.1441613  19.2834580  63.5308544  24.2434198  17.6435810
  63.6600925  24.4968677  18.5575222  62.8505995  24.8361906  17.3240465
  67.7008031  34.9131448  13.7426284  67.6232061  35.8639273  13.8214765
  67.0969674  34.5677320  14.4001211  70.1925261  22.0859313  26.3987651
  69.4158595  22.6453234  26.3890516  70.8315824  22.5716096  26.9202521
  77.9846041  18.8686106  20.2330628  77.3420421  19.1618639  19.5870423
  77.4800970  18.7539027  21.0383825  75.6386205  22.6149279  10.9216487
  76.5504061  22.8476666  10.7464185  75.1295852  23.1986324  10.3591566
  68.4471633  24.8944767  25.9605618  69.1886317  25.4329811  25.6840442
  67.7408618  25.5211056  26.1177170  73.9226973  27.0373907  24.5577780
  74.3310329  26.5956318  23.8132412  73.2004234  26.4626535  24.8111973
  70.2758043  21.9746514  21.9311337  71.1219238  22.3985928  22.0745986
  70.2156680  21.3180138  22.6249900  74.2455787  27.5975098  18.3130069
  73.6164650  27.7620812  17.6106137  73.8581449  28.0116707  19.0841033
  78.1245019  28.5329536  15.6674432  77.4396057  28.9128437  15.1171466
  78.2088868  29.1424862  16.4006380  73.4257488  19.6350882  23.5892510
  73.1818420  20.3892943  23.0526786  73.7017418  20.0136230  24.4239757
  75.3795951  26.1789495  22.2669776  75.5912846  26.8221255  21.5904157
  75.3325699  25.3451811  21.7991706  72.9822180  18.7907315  19.1706348
  72.1206659  19.0888569  19.4623086  73.0084614  19.0077714  18.2387381
  69.7983749  27.3349506  15.5780154  70.2622095  27.6137209  14.7884776
  69.5340547  26.4332951  15.3953244  66.6907830  26.8820987  18.5159917
  67.2609187  27.3108256  17.8777402  67.2815942  26.6003572  19.2144103
  67.1832997  22.0484415  26.7620928  66.5531657  22.7300696  26.9956325
  67.0769085  21.9367497  25.8174067  62.4777969  21.7156211  17.6886852
  61.6877023  21.9713739  17.2126963  62.9689216  22.5304549  17.7938893
  76.4941779  29.0561450  20.4392133  77.3159222  28.6541637  20.1574815
  76.4904182  28.9529684  21.3908249  70.2598382  28.6045493  22.5952844
  70.3242815  29.0665901  23.4311016  69.5509306  27.9742858  22.7235154
  60.7615672  21.9686701  20.1201843  61.0123710  22.8533711  20.3859419
  61.2975220  21.7891303  19.3476935  84.5847772  25.4000199  16.7877105
  83.8311480  24.8307597  16.6321109  84.7195313  25.3662863  17.7347739
  69.9746400  30.2713601  12.4631824  69.8392075  31.1165137  12.8916672
  70.5156212  30.4732879  11.6997758  66.4613739  16.3505181  29.1246179
  66.0680685  15.7971379  29.7993824  67.2779880  16.6615759  29.5152697
  63.4275797  27.7889039  13.0359749  63.9400318  28.5832289  13.1865314
  64.0798510  27.0915329  12.9693351  65.2370682  30.9054795  15.1182502
  65.4137310  31.8272760  14.9303486  66.0327515  30.5913214  15.5476882
  69.3781700  17.7663060  26.7166436  70.1191414  18.3670213  26.6370898
  69.6099623  17.0240698  26.1584478  64.5223038  22.9519427  24.9944666
  64.4076554  22.0504684  25.2951765  63.6667556  23.1983124  24.6429482
  71.6014876  30.8937167  26.5932166  71.1578730  30.1073546  26.2753071
  72.2632090  31.0816318  25.9276057  66.3601997  32.4232969  21.1192845
  66.9109422  32.2950032  20.3469839  65.5213473  32.7227858  20.7687738
  73.6996114  31.1739967  24.6213568  73.6814590  31.9948848  24.1293837
  74.6216034  31.0494043  24.8463709  70.1569168  28.6884097  25.4637076
  70.6897505  27.9272385  25.2336384  69.6283249  28.3957749  26.2061230
  73.3238863  13.7944163  20.9930718  72.9803133  14.6845804  20.9169828
  73.6917826  13.6045820  20.1300303  72.4035404  16.1648818  18.9579951
  71.9000199  16.1278953  18.1447756  72.6966011  17.0741561  19.0176608
  68.6478290  16.2487548  17.9646133  69.5131286  16.0530356  17.6052022
  68.7155798  16.0197899  18.8915489  78.2623420  26.5385129  11.4356326
  77.4852863  26.1996288  10.9911488  78.9414901  26.5437752  10.7611291
  71.5221881  27.8170089  12.9755888  70.9943243  27.0822849  12.6629125
  71.0209384  28.5944766  12.7295856  76.5014727  26.0119110  18.0922934
  75.8438402  26.7018371  18.1803063  77.3055126  26.4015542  18.4356921
  75.3120186  24.3663483  16.1426876  75.8252068  24.9993474  16.6448586
  75.9621410  23.7664678  15.7770236  72.5742560  34.3447807   8.8987547
  71.9004259  34.6479504   9.5072505  72.9608382  35.1476887   8.5493004
  71.7901017  21.8412938  18.3885216  70.8723578  22.0627885  18.2306905
  72.2061160  21.9159249  17.5296924  72.5736064  23.2404354  13.5187897
  73.3207883  23.7525751  13.2095019  72.8427654  22.9188406  14.3792290
  76.0781982  29.3469484  14.2706019  75.6244309  28.5060394  14.3271209
  75.4475949  29.9830882  14.6080799  75.0214902  20.2761470  15.5006686
  74.2837658  19.7638856  15.8316929  75.2741675  19.8361852  14.6889963
  74.5214921  31.1845981  15.2055837  74.8137896  31.7451038  14.4868202
  75.0313542  31.4774542  15.9608996  69.3947609  23.3491515  16.6024646
  69.4496218  22.3965351  16.5267123  68.5838811  23.5050954  17.0865945
  67.3339969  21.9668575  14.3615025  66.5207834  22.2662745  14.7680217
  67.8298963  21.5724264  15.0789507  69.4848547  31.9626332  16.2949290
  69.4424725  32.1887178  15.3657822  70.4011245  31.7289706  16.4435091
  72.9314180  22.4310399  23.1929919  73.2863568  22.6581872  24.0524385
  73.5786312  22.7628776  22.5707174  78.6611917  25.5528835  13.8979248
  78.5229816  25.7430431  12.9700437  78.3048136  26.3148218  14.3547299
  66.8254043  19.5386930  19.9776260  67.4653423  19.3975689  19.2799223
  65.9931574  19.2521444  19.6014862  78.6881297  27.6205362  18.9090520
  79.1217804  27.5280651  19.7573574  79.4012878  27.5962863  18.2710536
  67.6014347  28.8389361  16.0911253  68.3954946  28.3439681  15.8893828
  66.8906040  28.3107224  15.7278958  72.4209192  31.2207456  20.4423620
  72.4746214  31.7898393  21.2101336  71.5523973  31.3909341  20.0777657
  65.3007585  20.9225012  21.9248072  65.9730639  20.7142375  21.2760720
  64.4737372  20.7247098  21.4853304  79.5496846  27.6629063  21.4423405
  79.7432737  28.5674873  21.6882680  79.4497465  27.2036482  22.2761990
  71.2033157  17.5486953  23.9413732  70.5561072  18.2476903  23.8478209
  71.9734173  17.9823097  24.3089981  74.6111955  27.8135806  27.0164286
  74.4597462  27.5846357  26.0994369  74.6016635  28.7706407  27.0295631
  71.3797292  25.3867718  22.0010552  72.3089352  25.5378878  21.8279519
  70.9588322  25.4751739  21.1459199  70.1785623  29.4118383  19.7709090
  70.0396709  29.0437167  20.6435028  69.3900220  29.9266022  19.5993048
  70.7733775  34.5127479  11.1134626  70.9485531  34.0415522  11.9280249
  70.0866563  35.1393245  11.3415887  71.7290838  28.7899985  17.1597928
  71.3940671  28.7500755  18.0555577  71.2294784  28.1244701  16.6868338
  65.7035082  24.1967615  22.6850509  65.5654880  23.4647854  23.2862048
  66.6140006  24.1076516  22.4034696  68.3317383  23.9087575  22.1734188
  69.0417002  23.2680767  22.1320807  68.2886691  24.1600470  23.0960369
  76.3204162  30.8454928  25.0940768  76.2616708  30.1614148  24.4271351
  76.7223680  31.5873918  24.6421394  67.0446317  20.8952793  23.9929828
  66.5083674  20.4443531  24.6451424  66.4563025  21.0298701  23.2500292
  65.3394861  37.6616842  17.8874486  65.5791459  38.2935366  18.5653505
  64.4964057  37.3104882  18.1739846  76.3221569  28.8094512  23.3254747
  75.4348348  28.4720434  23.4481146  76.8920120  28.0777543  23.5623513
  57.9750716  25.1418604  16.6497799  58.6621756  24.8280334  16.0618814
  57.8198845  26.0459968  16.3765050  62.7785438  20.0308800  21.0782822
  62.6943627  19.4234470  20.3433232  61.9568145  20.5217819  21.0792319
  69.8522722  33.4695964  20.2915990  69.7792894  34.2750936  20.8035295
  69.4100116  33.6687930  19.4664012  69.6412502  32.7067734  13.8018812
  68.8580024  33.2489415  13.8957036  70.3405247  33.2241714  14.2013053
  72.9509152  18.5162364  16.4453017  73.4477852  17.7632326  16.1254088
  72.1796134  18.5526681  15.8796227  80.8038910  24.2202729  18.0871309
  80.7928786  25.1027445  17.7165242  79.9356289  23.8674280  17.8925846
  72.3121406  33.3682798  22.4474149  73.0249378  34.0030263  22.3750051
  71.8211435  33.4646664  21.6314151  74.0338933  27.2734051  14.0191441
  73.0995212  27.3935514  13.8496145  74.2115601  26.3706518  13.7551451
  69.5344121  20.6579747  16.1724702  69.1641908  20.1050787  16.8605608
  70.0303213  20.0537880  15.6199702  77.4211484  23.1151370  14.5541475
  77.8871936  23.9479362  14.4801778  77.8718985  22.6496352  15.2586733
  67.3633319  31.1177242  23.2679720  68.0642779  31.7513725  23.4209114
  66.8928434  31.4591973  22.5075359  75.4887715  29.4595192  11.5527627
  75.7647559  29.3451786  12.4621501  74.6192214  29.0612677  11.5139800
  75.3928147  15.4831957  18.5932376  74.4791227  15.7136184  18.7614583
  75.8221248  15.5670401  19.4446409  75.1634605  23.6721849  21.0932270
  74.5106056  23.9197757  20.4384723  75.5414985  22.8585988  20.7594748
  72.1241779  33.7081543  15.1960441  72.3064174  32.8903198  15.6588193
  72.9474765  33.9249235  14.7585331  72.4583945  32.6349728  12.4575489
  72.9871711  32.1242182  11.8445651  72.7212164  32.3192258  13.3221022
  71.2122178  24.4141660  27.5798307  70.5362815  24.3135790  28.2500683
  72.0349812  24.2580874  28.0434305  62.9601038  30.6513597  20.2010823
  63.5454474  29.9057285  20.3338727  62.7625876  30.9617554  21.0847486
  65.8139693  33.6864844  15.2173265  65.1450068  34.1710972  14.7337305
  65.6752562  33.9334065  16.1316643  57.5518692  23.2219197  18.9215266
  57.5902792  22.6882788  19.7152384  57.0458985  22.6954403  18.3026243
  69.9544961  35.7208588  21.8155923  70.5063269  35.8840209  22.5805009
  70.2951155  36.3113026  21.1435948  64.9309455  18.0683738  22.4177808
  64.9950781  18.9298569  22.0055206  64.8676575  17.4557739  21.6850167
  64.4061727  20.1406870  26.0650842  65.0333766  19.7583948  26.6788367
  63.5489646  19.9221072  26.4306535  74.8055836  30.5469845  27.6704578
  75.3495740  31.1599804  27.1759533  74.2242681  31.1049424  28.1871591
  73.0913349  33.6690563  18.8019605  72.9664488  32.8680303  18.2930551
  73.7492440  34.1636757  18.3133575  64.7121517  20.0239296  17.9796746
  63.9908103  20.6375264  17.8404219  65.5014773  20.5597061  17.9013392
  75.1548257  31.4699583  20.4299156  74.2078593  31.3504935  20.3577482
  75.5031030  30.5822082  20.5125417  67.5147830  17.3593722  24.2537397
  68.0382232  17.6056019  25.0163707  67.2960164  18.1913757  23.8340535
  72.1594690  31.2652300  16.6303508  72.0119653  30.3369007  16.8111078
  72.9848184  31.2872390  16.1460583  75.7628812  32.0880858  17.7168381
  76.6875360  31.8823720  17.5792832  75.5944116  31.8397260  18.6257722
  68.7200375  18.3007418  21.9387068  68.3797196  17.5015231  22.3407748
  68.0139382  18.6009128  21.3663901  69.3716847  15.3856730  20.3914391
  70.1942917  14.9117208  20.2693281  69.6154911  16.1647214  20.8913077
  66.8955426  22.0775851  18.2006370  66.7500007  22.3916154  19.0930651
  66.4180630  22.6960751  17.6477268  68.7551809  19.0678399  18.2487259
  68.7413378  18.1719492  17.9119557  69.4724237  19.0749062  18.8825545
  70.6077940  19.5015739  20.2940387  70.3495717  20.4232809  20.2924717
  70.0762980  19.1046173  20.9840851  75.5524128  32.6066526  13.0730472
  75.7261006  32.0412948  12.3204324  76.0453020  33.4067421  12.8909962
  61.3701088  24.6181195  21.1394031  60.8254556  25.3941003  21.2714305
  62.2480438  24.9651999  20.9813152  81.4063520  25.3702949  14.6920772
  81.8494666  24.6210274  14.2939895  80.5290030  25.3613085  14.3094504
  76.5399301  31.9233290  10.1727370  77.2350205  32.5439983  10.3914685
  76.8822451  31.0728641  10.4479748  62.1567110  23.7451091  24.0324188
  61.4148846  23.8933727  24.6188818  61.8359854  24.0059357  23.1690937
  78.4390724  29.3732996  11.7014701  78.9642048  29.7120269  10.9764021
  78.3513077  28.4380011  11.5177836  70.1010773  33.2867069  23.8304578
  70.4097899  33.0416216  24.7027277  70.8986255  33.4913708  23.3423448
  70.1231385  35.4404979  16.0609954  69.6836375  34.9481358  16.7542811
  70.8739502  34.8977947  15.8202029  62.6023724  31.6316520  16.0634582
  63.4281744  31.3320292  15.6833226  62.2517776  30.8624142  16.5124371
  67.5705257  30.9842988  18.1332256  66.9485266  30.3213693  17.8334484
  68.2410124  31.0104120  17.4505904  60.8032329  29.5502846  17.0223516
  59.9664237  29.1225021  16.8407517  60.7755974  29.7435290  17.9594307
  67.6429784  19.4624776  27.7264762  67.6917940  20.3386899  27.3442532
  68.1852299  18.9202169  27.1536405  78.1284630  30.0065899  27.0065899
  77.3380174  29.9890038  26.4670398  77.8917985  30.5454193  27.7614936
  78.2482505  26.8558366  24.3198628  78.2980510  26.6908373  25.2614150
  78.1396428  25.9885625  23.9296508  67.1318764  29.5346912  11.6090716
  67.2806884  30.2182376  10.9557389  67.9385207  29.5152002  12.1240172
  75.5386267  22.8389294  25.6357934  76.4396130  22.6995759  25.3441932
  75.6134242  23.0043749  26.5756112  69.8729073  20.2156149  24.4811121
  69.0032382  20.5089715  24.2093709  70.1088553  20.7996594  25.2018384
  79.7500702  29.2755307  24.5640649  79.4585510  29.6385288  25.4004110
  79.1372833  28.5622316  24.3853981  80.9496384  26.8408187  17.0843219
  81.7843276  27.2797991  17.2480780  81.0855513  26.3646840  16.2651465
  77.9987890  24.3987922  23.0320707  78.4742012  24.5915568  22.2239558
  77.0753456  24.4547108  22.7864091  72.5768107  16.4335766  21.9976541
  73.0950050  17.1696792  21.6723030  72.2223239  16.7399759  22.8323300
  72.8280701  12.8536048  17.5177438  73.1082455  12.1859237  18.1437864
  73.6131308  13.0465144  17.0052101  70.6314169  32.0295042   9.0802464
  70.0588136  32.6485229   8.6272936  71.2046963  32.5794404   9.6142386
  76.6989559  21.2753682  21.2649013  77.6506982  21.3751780  21.2861237
  76.5293010  20.4831951  21.7747097  74.7203939  18.3609265  21.4508414
  74.1253871  18.6414278  20.7554902  74.4353635  18.8503166  22.2225155
  73.8511429  32.3132192  10.2111046  74.7842102  32.2477754  10.4143922
  73.7634642  33.1488459   9.7525579  76.4799446  31.6298062   7.1714994
  76.4013077  31.2957926   8.0650752  77.3009113  32.1219830   7.1706466
  79.1777637  24.4959802  20.3791312  79.1453957  23.5575802  20.5650996
  79.7878261  24.5743838  19.6457137  79.3272125  21.2870845  20.4249596
  78.8111174  20.5029302  20.2379524  80.2112074  20.9589562  20.5896115
  76.9882852  15.0311861  16.3845408  76.7907673  14.7226949  17.2688740
  77.5982558  15.7573500  16.5143338  84.9954187  25.5575809  19.5197349
  85.7257575  25.2961097  20.0805052  84.3861132  24.8204531  19.5599417
  83.0769484  23.6983671  20.1171800  82.3502647  23.5639636  19.5088292
  82.6616771  24.0060500  20.9228518  70.8999660  27.4173601  27.8819173
  71.8202670  27.5952200  28.0759220  70.8649243  26.4729646  27.7298873
  63.8961733  25.3274636  20.5241955  64.1147743  26.2591743  20.5429988
  64.3087507  24.9682610  21.3096758  68.7689598  20.9007841  29.9144703
  68.6686325  21.8502198  29.8456795  68.5511140  20.5726080  29.0420774
  59.9870085  26.2315106  18.7765570  59.2933557  25.8169059  18.2635524
  60.7343076  26.2735643  18.1798988  74.5738872  16.4226350  15.8441924
  75.0738651  16.5342885  15.0356243  75.2174480  16.1187403  16.4842733
  68.6320868  24.3304980  28.7309765  68.1487950  25.1305340  28.9373654
  68.7181807  24.3412925  27.7777209  61.9006828  26.1633360  16.6531584
  61.8777516  26.2621047  15.7013468  62.2107464  27.0098511  16.9748751
  64.5594206  28.2209515  20.7678199  65.5137459  28.1893457  20.7008130
  64.3606729  27.7600139  21.5828425  65.1493588  26.7910631  23.3348997
  65.9686477  27.2854710  23.3583834  65.4230396  25.8742599  23.3066564
  78.2574720  19.2067904  16.4131291  79.0335110  19.6964357  16.6855908
  77.5322854  19.6325958  16.8703161  80.6947279  19.9195523  17.4705232
  81.2891770  19.6791259  16.7598540  80.7673863  19.2002654  18.0978768
  62.9144435  33.7629134  17.7848397  62.7798902  33.0029535  17.2186395
  62.4976497  34.4870034  17.3177186  74.8801208  24.6975919  12.9127242
  74.8236409  25.1544471  12.0734875  75.4329550  23.9366604  12.7350085
  78.6906014  20.4865651  13.7377362  78.4342948  20.0862287  14.5685569
  78.0658882  21.2009445  13.6127501  83.0018352  23.2261724  16.2448653
  82.4417910  23.2954914  17.0180215  82.3961855  23.0502709  15.5248149
  66.0713560  34.6598451  17.9966839  65.9545945  35.6043884  17.8945530
  65.2506007  34.3572013  18.3852639  75.9590095  29.3848587   8.8423432
  76.7935699  28.9529786   8.6600907  75.7974438  29.2130601   9.7700327
  75.6135987  25.8880700  10.2079771  75.5584791  25.7224972   9.2668216
  74.9882042  26.5956733  10.3641961  60.4028502  21.1248765  24.0341194
  61.0487366  20.6147719  24.5228419  60.1945653  21.8617446  24.6084619
  72.9281894  28.1929612  29.5333334  73.7973054  28.3670264  29.1719969
  72.4488646  29.0124029  29.4109064  67.0968075  35.3126713  21.2122768
  67.9995321  35.3450323  21.5289263  66.8705445  34.3827164  21.2269104
  68.8521677  34.0657700  17.8732846  67.9017308  34.0659561  17.7597219
  69.1554163  33.3190434  17.3568881  64.7425993  18.2716382  28.1316208
  65.6057455  17.9153187  28.3419532  64.1691404  17.9330277  28.8191612
  84.5874370  39.9018238  18.9378609  85.2252780  39.7824986  18.2341949
  84.4695213  40.8499082  18.9966561  81.3964076  39.8545666  18.8740134
  81.0582588  39.7386731  17.9860668  82.2653844  39.4536831  18.8541140
  77.2550892  41.7081143  14.8637024  76.6915757  41.6171080  14.0953312
  77.1403287  40.8881047  15.3439517  81.8783859  41.0080518  24.8326339
  81.8672500  40.6133316  23.9606843  82.0404499  40.2746591  25.4260111
  74.8015324  43.2032334  17.7021245  75.5936616  42.8623159  17.2867544
  75.0411974  43.3127309  18.6223398  82.8350451  45.3752110  10.1751489
  82.1838430  45.9606191   9.7885503  83.6294814  45.9058305  10.2346527
  76.7606078  42.4641248  10.5738624  77.5336954  41.9170235  10.4351500
  77.1131477  43.3285497  10.7853085  78.5991120  43.7917630  23.7805523
  78.3080986  44.6963261  23.6652189  79.2348105  43.8334157  24.4949593
  79.5247327  41.1694478  20.3706883  80.1210900  40.9450501  19.6563846
  79.5822299  40.4279224  20.9732331  79.0972356  38.6233914   8.2057074
  79.3497876  38.1015435   7.4440537  78.1596915  38.4600059   8.3083757
  84.1415639  37.6269692  16.0131817  84.9278728  37.2089115  15.6622234
  84.4054343  38.5315784  16.1813465  84.3125716  43.0642542  10.7120474
  83.6771549  43.1377169  11.4241378  83.9823122  43.6536141  10.0339553
  89.5424066  37.5644925  16.9164795  90.2749238  36.9944142  17.1502625
  88.7863421  37.1766526  17.3571301  78.8168644  40.5262020  10.4081449
  78.7004903  39.8506923  11.0762533  78.9270904  40.0394394   9.5913602
  81.1600185  39.9872167  14.1128138  80.7958393  39.4602788  14.8241059
  82.0167301  39.5970636  13.9394623  87.0649486  31.2766499  21.3759404
  86.7332811  32.1461910  21.1520619  86.4695099  30.9602783  22.0553434
  80.8005672  35.0162066   9.1089486  80.9680075  35.8842303   9.4759957
  80.6102841  35.1789348   8.1850776  83.5581006  43.4779045  20.7755317
  83.2581729  44.3804084  20.6671124  83.2132065  43.2111229  21.6276470
  77.0093487  39.9292842  16.8092021  76.0843983  39.7969056  17.0169713
  77.2577900  40.7087061  17.3061964  86.9578149  35.9961585  18.4552754
  86.0495027  35.9276994  18.1611515  86.9065745  36.4733530  19.2834580
  80.7794893  37.4719724  10.0936153  80.6594518  37.9176775  10.9321633
  80.0847482  37.8205042   9.5349691  74.3702298  39.5726116  17.6435810
  74.4994679  39.8260595  18.5575222  73.6899749  40.1653824  17.3240465
  78.5401785  50.2423366  13.7426284  78.4625815  51.1931191  13.8214765
  77.9363429  49.8969238  14.4001211  81.0319015  37.4151231  26.3987651
  80.2552349  37.9745151  26.3890516  81.6709578  37.9008014  26.9202521
  88.8239796  34.1978024  20.2330628  88.1814176  34.4910557  19.5870423
  88.3194724  34.0830944  21.0383825  86.4779959  37.9441197  10.9216487
  87.3897815  38.1768584  10.7464185  85.9689606  38.5278241  10.3591566
  79.2865387  40.2236684  25.9605618  80.0280072  40.7621728  25.6840442
  78.5802373  40.8502973  26.1177170  84.7620727  42.3665825  24.5577780
  85.1704083  41.9248235  23.8132412  84.0397989  41.7918452  24.8111973
  81.1151797  37.3038432  21.9311337  81.9612992  37.7277845  22.0745986
  81.0550435  36.6472056  22.6249900  85.0849542  42.9267016  18.3130069
  84.4558404  43.0912730  17.6106137  84.6975204  43.3408625  19.0841033
  88.9638774  43.8621453  15.6674432  88.2789812  44.2420355  15.1171466
  89.0482623  44.4716780  16.4006380  84.2651242  34.9642800  23.5892510
  84.0212174  35.7184861  23.0526786  84.5411173  35.3428148  24.4239757
  86.2189705  41.5081412  22.2669776  86.4306600  42.1513172  21.5904157
  86.1719453  40.6743729  21.7991706  83.8215934  34.1199233  19.1706348
  82.9600413  34.4180487  19.4623086  83.8478369  34.3369632  18.2387381
  80.6377504  42.6641424  15.5780154  81.1015849  42.9429127  14.7884776
  80.3734302  41.7624868  15.3953244  77.5301585  42.2112905  18.5159917
  78.1002942  42.6400174  17.8777402  78.1209696  41.9295490  19.2144103
  79.5746390  38.7864576  12.3869719  80.2770433  39.2385620  12.8543645
  79.2427018  38.1448395  13.0149612  78.0226751  37.3776333  26.7620928
  77.3925412  38.0592613  26.9956325  77.9162839  37.2659414  25.8174067
  73.3171724  37.0448129  17.6886852  72.5270778  37.3005657  17.2126963
  73.8082971  37.8596467  17.7938893  87.3335533  44.3853368  20.4392133
  88.1552977  43.9833555  20.1574815  87.3297936  44.2821602  21.3908249
  75.2686469  37.4092708  14.6470329  74.4717632  37.5211402  15.1653825
  75.0412061  37.7479360  13.7811220  81.0992137  43.9337411  22.5952844
  81.1636569  44.3957818  23.4311016  80.3903060  43.3034776  22.7235154
  71.6009427  37.2978619  20.1201843  71.8517465  38.1825629  20.3859419
  72.1368975  37.1183221  19.3476935  95.4241526  40.7292116  16.7877105
  94.6705235  40.1599514  16.6321109  95.5589067  40.6954781  17.7347739
  80.8140154  45.6005519  12.4631824  80.6785829  46.4457054  12.8916672
  81.3549967  45.8024796  11.6997758  77.3007494  31.6797098  29.1246179
  76.9074439  31.1263297  29.7993824  78.1173634  31.9907677  29.5152697
  74.2669552  43.1180957  13.0359749  74.7794072  43.9124207  13.1865314
  74.9192264  42.4207247  12.9693351  76.0764436  46.2346713  15.1182502
  76.2531065  47.1564678  14.9303486  76.8721270  45.9205132  15.5476882
  80.2175455  33.0954978  26.7166436  80.9585168  33.6962131  26.6370898
  80.4493378  32.3532615  26.1584478  75.3616793  38.2811345  24.9944666
  75.2470308  37.3796602  25.2951765  74.5061311  38.5275042  24.6429482
  82.4408631  46.2229085  26.5932166  81.9972485  45.4365464  26.2753071
  83.1025844  46.4108236  25.9276057  77.1995752  47.7524887  21.1192845
  77.7503177  47.6241950  20.3469839  76.3607228  48.0519776  20.7687738
  84.5389869  46.5031885  24.6213568  84.5208344  47.3240766  24.1293837
  85.4609789  46.3785960  24.8463709  80.9962923  44.0176015  25.4637076
  81.5291260  43.2564303  25.2336384  80.4677004  43.7249666  26.2061230
  84.1632618  29.1236080  20.9930718  83.8196887  30.0137722  20.9169828
  84.5311580  28.9337738  20.1300303  72.2318468  41.4469611  13.8119320
  73.0693690  41.8566619  13.5953027  72.4096736  40.5069053  13.7819514
  84.1282901  39.1144692   9.5003153  83.6129524  39.8849296   9.7391540
  83.8560209  38.4409828  10.1236214  81.7130012  33.9594392  14.5588391
  80.8571608  33.5701243  14.3794030  82.1256963  34.0386353  13.6988177
  83.2429158  31.4940736  18.9579951  82.7393954  31.4570871  18.1447756
  83.5359765  32.4033478  19.0176608  79.4872044  31.5779465  17.9646133
  80.3525041  31.3822274  17.6052022  79.5549553  31.3489817  18.8915489
  89.1017175  41.8677046  11.4356326  88.3246617  41.5288206  10.9911488
  89.7808656  41.8729669  10.7611291  83.9169204  36.9871784  11.3262934
  83.6119339  37.3017933  12.1773077  84.8699646  37.0653204  11.3690267
  82.3615636  43.1462007  12.9755888  81.8336997  42.4114767  12.6629125
  81.8603138  43.9236683  12.7295856  87.3408482  41.3411027  18.0922934
  86.6832156  42.0310289  18.1803063  88.1448881  41.7307459  18.4356921
  77.0934363  33.8081673  15.3362499  77.6678115  33.5856855  14.6035692
  77.6805346  33.8770368  16.0891101  86.1513940  39.6955400  16.1426876
  86.6645822  40.3285392  16.6448586  86.8015164  39.0956596  15.7770236
  77.4203950  35.8386134   9.3558385  76.5841263  36.1760821   9.6767659
  77.2808720  35.7035114   8.4185522  79.3957031  30.6822922  14.0637569
  78.7421443  30.3671939  13.4394184  79.3537505  30.0598663  14.7897392
  80.5068236  40.9642217   5.9790861  79.5995297  40.7331471   6.1782010
  81.0039268  40.1679837   6.1664842  83.4136315  49.6739724   8.8987547
  82.7398013  49.9771421   9.5072505  83.8002137  50.4768805   8.5493004
  82.6294771  37.1704856  18.3885216  81.7117333  37.3919803  18.2306905
  83.0454915  37.2451166  17.5296924  83.4129819  38.5696271  13.5187897
  84.1601638  39.0817669  13.2095019  83.6821409  38.2480324  14.3792290
  81.6856469  41.0654812  10.5014851  80.7767688  40.7813845  10.5987321
  81.7151553  41.4853891   9.6418158  86.9175737  44.6761402  14.2706019
  86.4638064  43.8352312  14.3271209  86.2869703  45.3122800  14.6080799
  85.8608656  35.6053388  15.5006686  85.1231413  35.0930774  15.8316929
  86.1135430  35.1653769  14.6889963  85.3608676  46.5137898  15.2055837
  85.6531650  47.0742955  14.4868202  85.8707296  46.8066459  15.9608996
  85.9620283  28.3829640  16.0948455  86.2679160  27.5227003  15.8074370
  86.6872888  28.9747260  15.8947449  72.2544640  38.7860326  14.4830053
  72.0569039  38.1929687  13.7581120  71.6991304  38.4812536  15.2005992
  80.2341363  38.6783433  16.6024646  80.2889973  37.7257269  16.5267123
  79.4232565  38.8342872  17.0865945  81.3832557  42.6063556   7.8402930
  80.9451987  41.8899415   7.3808567  82.1242998  42.8339671   7.2788021
  78.1733723  37.2960492  14.3615025  77.3601589  37.5954663  14.7680217
  78.6692717  36.9016181  15.0789507  80.3242301  47.2918249  16.2949290
  80.2818480  47.5179096  15.3657822  81.2405000  47.0581624  16.4435091
  83.7707935  37.7602317  23.1929919  84.1257323  37.9873790  24.0524385
  84.4180066  38.0920694  22.5707174  89.5005672  40.8820753  13.8979248
  89.3623570  41.0722349  12.9700437  89.1441891  41.6440136  14.3547299
  77.6647798  34.8678848  19.9776260  78.3047177  34.7267607  19.2799223
  76.8325328  34.5813361  19.6014862  89.5275051  42.9497280  18.9090520
  89.9611558  42.8572569  19.7573574  90.2406632  42.9254780  18.2710536
  78.4408102  44.1681278  16.0911253  79.2348700  43.6731599  15.8893828
  77.7299794  43.6399142  15.7278958  83.2602946  46.5499374  20.4423620
  83.3139969  47.1190310  21.2101336  82.3917728  46.7201259  20.0777657
  74.7490865  38.3124360  12.1671005  73.8188453  38.2508816  12.3840967
  74.8448337  37.7900313  11.3707647  74.6676414  34.8379173  14.7549247
  74.9283232  35.7524506  14.6458407  75.4893587  34.3703616  14.9045860
  76.1401340  36.2516930  21.9248072  76.8124393  36.0434292  21.2760720
  75.3131126  36.0539016  21.4853304  90.3890601  42.9920981  21.4423405
  90.5826491  43.8966791  21.6882680  90.2891219  42.5328400  22.2761990
  82.0426912  32.8778871  23.9413732  81.3954827  33.5768821  23.8478209
  82.8127927  33.3115015  24.3089981  85.4505710  43.1427723  27.0164286
  85.2991216  42.9138275  26.0994369  85.4410389  44.0998325  27.0295631
  82.2191046  40.7159636  22.0010552  83.1483106  40.8670796  21.8279519
  81.7982076  40.8043657  21.1459199  81.0179378  44.7410300  19.7709090
  80.8790463  44.3729085  20.6435028  80.2293974  45.2557940  19.5993048
  81.6127530  49.8419397  11.1134626  81.7879285  49.3707440  11.9280249
  80.9260318  50.4685163  11.3415887  82.5684593  44.1191903  17.1597928
  82.2334426  44.0792673  18.0555577  82.0688539  43.4536619  16.6868338
  76.5428837  39.5259533  22.6850509  76.4048635  38.7939772  23.2862048
  77.4533760  39.4368433  22.4034696  85.5043785  41.4647937   7.4334987
  84.8872955  40.7394766   7.3368040  85.0360273  42.2257298   7.0902061
  79.1711138  39.2379492  22.1734188  79.8810756  38.5972685  22.1320807
  79.1280446  39.4892387  23.0960369  87.1597916  46.1746846  25.0940768
  87.1010462  45.4906066  24.4271351  87.5617435  46.9165836  24.6421394
  77.8840072  36.2244710  23.9929828  77.3477429  35.7735449  24.6451424
  77.2956780  36.3590619  23.2500292  76.1788615  52.9908760  17.8874486
  76.4185213  53.6227284  18.5653505  75.3357812  52.6396800  18.1739846
  77.2942330  35.6833362   6.5556291  76.4171797  35.5622163   6.1918538
  77.7700084  34.8919440   6.3035180  87.1615324  44.1386430  23.3254747
  86.2742102  43.8012352  23.4481146  87.7313875  43.4069461  23.5623513
  68.8144471  40.4710521  16.6497799  69.5015510  40.1572252  16.0618814
  68.6592599  41.3751886  16.3765050  73.6179193  35.3600718  21.0782822
  73.5337382  34.7526388  20.3433232  72.7961899  35.8509736  21.0792319
  80.6916477  48.7987882  20.2915990  80.6186648  49.6042854  20.8035295
  80.2493870  48.9979848  19.4664012  80.4806257  48.0359652  13.8018812
  79.6973778  48.5781332  13.8957036  81.1799002  48.5533632  14.2013053
  83.7902907  33.8454282  16.4453017  84.2871606  33.0924244  16.1254088
  83.0189888  33.8818598  15.8796227  91.6432664  39.5494647  18.0871309
  91.6322540  40.4319363  17.7165242  90.7750043  39.1966198  17.8925846
  83.1515160  48.6974716  22.4474149  83.8643133  49.3322181  22.3750051
  82.6605189  48.7938582  21.6314151  84.8732687  42.6025969  14.0191441
  83.9388966  42.7227431  13.8496145  85.0509356  41.6998436  13.7551451
  80.3737875  35.9871665  16.1724702  80.0035663  35.4342705  16.8605608
  80.8696968  35.3829798  15.6199702  88.2605239  38.4443288  14.5541475
  88.7265691  39.2771280  14.4801778  88.7112739  37.9788270  15.2586733
  78.2027074  46.4469160  23.2679720  78.9036533  47.0805643  23.4209114
  77.7322189  46.7883891  22.5075359  86.3281470  44.7887109  11.5527627
  86.6041314  44.6743704  12.4621501  85.4585969  44.3904594  11.5139800
  86.2321901  30.8123875  18.5932376  85.3184981  31.0428102  18.7614583
  86.6615003  30.8962319  19.4446409  86.0028360  39.0013767  21.0932270
  85.3499810  39.2489674  20.4384723  86.3808740  38.1877905  20.7594748
  82.9635534  49.0373460  15.1960441  83.1457928  48.2195116  15.6588193
  83.7868520  49.2541152  14.7585331  83.2977699  47.9641645  12.4575489
  83.8265466  47.4534100  11.8445651  83.5605919  47.6484176  13.3221022
  82.0515933  39.7433578  27.5798307  81.3756570  39.6427707  28.2500683
  82.8743567  39.5872792  28.0434305  73.7994792  45.9805515  20.2010823
  74.3848229  45.2349203  20.3338727  73.6019630  46.2909471  21.0847486
  76.6533447  49.0156762  15.2173265  75.9843822  49.5002890  14.7337305
  76.5146317  49.2625982  16.1316643  68.3912447  38.5511115  18.9215266
  68.4296546  38.0174706  19.7152384  67.8852740  38.0246320  18.3026243
  80.7938716  51.0500506  21.8155923  81.3457024  51.2132127  22.5805009
  81.1344909  51.6404943  21.1435948  75.7703209  33.3975655  22.4177808
  75.8344536  34.2590486  22.0055206  75.7070329  32.7849657  21.6850167
  75.2455482  35.4698788  26.0650842  75.8727520  35.0875865  26.6788367
  74.3883400  35.2512990  26.4306535  85.6449590  45.8761763  27.6704578
  86.1889494  46.4891721  27.1759533  85.0636435  46.4341341  28.1871591
  72.0221024  37.2775217  11.9969197  72.3174465  36.3685895  11.9436251
  71.1209060  37.2562956  11.6750199  83.9307103  48.9982481  18.8019605
  83.8058243  48.1972221  18.2930551  84.5886194  49.4928674  18.3133575
  75.5515271  35.3531214  17.9796746  74.8301857  35.9667181  17.8404219
  76.3408527  35.8888978  17.9013392  85.9942011  46.7991501  20.4299156
  85.0472347  46.6796852  20.3577482  86.3424785  45.9113999  20.5125417
  78.3541585  32.6885640  24.2537397  78.8775987  32.9347937  25.0163707
  78.1353918  33.5205675  23.8340535  73.7508866  34.9589315  12.1208522
  73.4221572  34.0786694  11.9383628  74.1048237  34.9036983  13.0084912
  82.9988445  46.5944217  16.6303508  82.8513407  45.6660925  16.8111078
  83.8241938  46.6164308  16.1460583  76.8650689  35.2462284  12.4884000
  77.2046762  35.7748206  11.7662608  77.3122810  35.5842691  13.2642566
  86.6022567  47.4172776  17.7168381  87.5269114  47.2115637  17.5792832
  86.4337870  47.1689177  18.6257722  79.5594130  33.6299335  21.9387068
  79.2190950  32.8307148  22.3407748  78.8533136  33.9301046  21.3663901
  80.2110602  30.7148648  20.3914391  81.0336671  30.2409126  20.2693281
  80.4548665  31.4939131  20.8913077  78.8518836  33.7436906  10.6877293
  79.5727199  34.1218159  10.1841010  78.2284140  34.4625783  10.7912271
  82.9949959  34.4482055  11.6235625  83.2113573  35.3306693  11.3224453
  82.5144026  34.0568268  10.8941267  77.7349180  37.4067768  18.2006370
  77.5893761  37.7208071  19.0930651  77.2574384  38.0252669  17.6477268
  79.5945563  34.3970316  18.2487259  79.5807132  33.5011410  17.9119557
  80.3117991  34.4040980  18.8825545  81.4471694  34.8307656  20.2940387
  81.1889472  35.7524727  20.2924717  80.9156734  34.4338091  20.9840851
  86.3917883  47.9358444  13.0730472  86.5654760  47.3704866  12.3204324
  86.8846774  48.7359338  12.8909962  72.2094843  39.9473113  21.1394031
  71.6648311  40.7232921  21.2714305  73.0874193  40.2943917  20.9813152
  78.9982459  33.2784697  13.5174829  79.1198370  32.3501343  13.7165717
  78.7084502  33.2923382  12.6053145  81.8673650  30.9639607  16.6541549
  81.8895347  31.0278940  15.6993529  82.2841709  30.1244116  16.8482055
  92.2457274  40.6994866  14.6920772  92.6888420  39.9502192  14.2939895
  91.3683784  40.6905003  14.3094504  87.3793055  47.2525208  10.1727370
  88.0743960  47.8731901  10.3914685  87.7216205  46.4020559  10.4479748
  72.9960865  39.0743009  24.0324188  72.2542601  39.2225644  24.6188818
  72.6753609  39.3351275  23.1690937  89.2784478  44.7024913  11.7014701
  89.8035803  45.0412186  10.9764021  89.1906831  43.7671929  11.5177836
  80.9404527  48.6158987  23.8304578  81.2491654  48.3708134  24.7027277
  81.7380009  48.8205626  23.3423448  80.9625139  50.7696897  16.0609954
  80.5230129  50.2773275  16.7542811  81.7133256  50.2269864  15.8202029
  73.4417478  46.9608438  16.0634582  74.2675498  46.6612209  15.6833226
  73.0911530  46.1916060  16.5124371  78.4099011  46.3134906  18.1332256
  77.7879021  45.6505611  17.8334484  79.0803878  46.3396038  17.4505904
  71.6426083  44.8794764  17.0223516  70.8057992  44.4516938  16.8407517
  71.6149729  45.0727207  17.9594307  78.4823539  34.7916694  27.7264762
  78.5311694  35.6678817  27.3442532  79.0246053  34.2494087  27.1536405
  88.9678385  45.3357817  27.0065899  88.1773928  45.3181956  26.4670398
  88.7311739  45.8746111  27.7614936  89.0876260  42.1850283  24.3198628
  89.1374264  42.0200291  25.2614150  88.9790183  41.3177543  23.9296508
  77.9712518  44.8638829  11.6090716  78.1200639  45.5474294  10.9557389
  78.7778962  44.8443919  12.1240172  86.3780022  38.1681212  25.6357934
  87.2789885  38.0287676  25.3441932  86.4527996  38.3335666  26.5756112
  80.7122827  35.5448066  24.4811121  79.8426137  35.8381632  24.2093709
  80.9482308  36.1288511  25.2018384  90.5894456  44.6047225  24.5640649
  90.2979265  44.9677206  25.4004110  89.9766588  43.8914233  24.3853981
  91.7890139  42.1700105  17.0843219  92.6237030  42.6089909  17.2480780
  91.9249268  41.6938758  16.2651465  88.8381645  39.7279840  23.0320707
  89.3135766  39.9207486  22.2239558  87.9147210  39.7839025  22.7864091
  75.7265151  40.8904007  12.6151785  75.4811193  39.9866337  12.8131995
  75.8961066  40.8921157  11.6731263  83.4161861  31.7627683  21.9976541
  83.9343805  32.4988710  21.6723030  83.0616994  32.0691676  22.8323300
  74.9960799  36.6232364  10.1137947  74.3030044  36.6976719   9.4577983
  74.7512551  35.8592708  10.6359464  83.6674455  28.1827966  17.5177438
  83.9476209  27.5151155  18.1437864  84.4525062  28.3757061  17.0052101
  81.4707924  47.3586960   9.0802464  80.8981891  47.9777147   8.6272936
  82.0440717  47.9086321   9.6142386  87.5383314  36.6045600  21.2649013
  88.4900737  36.7043697  21.2861237  87.3686764  35.8123868  21.7747097
  85.5597693  33.6901183  21.4508414  84.9647625  33.9706196  20.7554902
  85.2747390  34.1795084  22.2225155  84.6905184  47.6424110  10.2111046
  85.6235857  47.5769671  10.4143922  84.6028396  48.4780377   9.7525579
  87.3193200  46.9589980   7.1714994  87.2406832  46.6249844   8.0650752
  88.1402867  47.4511748   7.1706466  90.0171391  39.8251719  20.3791312
  89.9847712  38.8867720  20.5650996  90.6272015  39.9035756  19.6457137
  81.8554722  38.6947772   6.4218516  82.8013827  38.5653980   6.4906934
  81.4768967  37.9562434   6.8987945  90.1665880  36.6162763  20.4249596
  89.6504929  35.8321219  20.2379524  91.0505828  36.2881479  20.5896115
  87.8276607  30.3603778  16.3845408  87.6301428  30.0518867  17.2688740
  88.4376312  31.0865417  16.5143338  95.8347941  40.8867726  19.5197349
  96.5651330  40.6253014  20.0805052  95.2254887  40.1496448  19.5599417
  93.9163238  39.0275589  20.1171800  93.1896402  38.8931554  19.5088292
  93.5010525  39.3352417  20.9228518  81.7393415  42.7465519  27.8819173
  82.6596424  42.9244118  28.0759220  81.7042998  41.8021564  27.7298873
  80.0397639  36.6197749   6.3573402  79.1329095  36.3230861   6.4336115
  80.3173620  36.3227567   5.4907688  70.9575580  37.9404112  16.8072448
  70.6378364  37.0869420  16.5146822  70.4109008  38.1552690  17.5630415
  74.7355487  40.6566553  20.5241955  74.9541497  41.5883661  20.5429988
  75.1481261  40.2974528  21.3096758  81.6559705  31.1634638  12.5117643
  80.8460433  30.8181723  12.8872889  82.3444122  30.8542182  13.1005254
  83.5850253  30.2412685  14.1341940  84.1381292  30.6608139  14.7931963
  83.8220340  29.3148433  14.1764896  79.6083353  36.2299759  29.9144703
  79.5080080  37.1794116  29.8456795  79.3904895  35.9017998  29.0420774
  78.8096424  33.4784684   6.4985381  79.6715588  33.8039582   6.7581198
  78.9946768  32.6916180   5.9858447  70.8263840  41.5607024  18.7765570
  70.1327311  41.1460976  18.2635524  71.5736831  41.6027560  18.1798988
  86.9629061  32.3513210  13.6420604  86.3827730  33.0098014  13.2598656
  86.6964993  31.5290555  13.2308021  85.4132627  31.7518268  15.8441924
  85.9132405  31.8634803  15.0356243  86.0568235  31.4479321  16.4842733
  79.4714623  39.6596898  28.7309765  78.9881704  40.4597258  28.9373654
  79.5575562  39.6704843  27.7777209  72.7400582  41.4925277  16.6531584
  72.7171270  41.5912965  15.7013468  73.0501219  42.3390428  16.9748751
  75.3987960  43.5501432  20.7678199  76.3531214  43.5185375  20.7008130
  75.2000484  43.0892056  21.5828425  75.9887342  42.1202549  23.3348997
  76.8080231  42.6146627  23.3583834  76.2624150  41.2034517  23.3066564
  85.7453939  34.5113301  12.6976952  84.8579794  34.7962951  12.4797147
  86.1607928  34.3507064  11.8504229  89.0968475  34.5359822  16.4131291
  89.8728865  35.0256274  16.6855908  88.3716609  34.9617876  16.8703161
  91.5341033  35.2487441  17.4705232  92.1285524  35.0083177  16.7598540
  91.6067617  34.5294572  18.0978768  73.7538189  49.0921052  17.7848397
  73.6192657  48.3321453  17.2186395  73.3370251  49.8161952  17.3177186
  84.8897152  44.2757976   6.7924972  85.5933002  44.4807978   7.4082628
  84.1659801  44.8434737   7.0574056  85.7194962  40.0267837  12.9127242
  85.6630164  40.4836388  12.0734875  86.2723305  39.2658521  12.7350085
  89.5299768  35.8157569  13.7377362  89.2736702  35.4154204  14.5685569
  88.9052636  36.5301363  13.6127501  93.8412106  38.5553642  16.2448653
  93.2811664  38.6246831  17.0180215  93.2355609  38.3794627  15.5248149
  76.9107315  49.9890369  17.9966839  76.7939699  50.9335801  17.8945530
  76.0899761  49.6863931  18.3852639  86.7983849  44.7140505   8.8423432
  87.6329453  44.2821703   8.6600907  86.6368192  44.5422518   9.7700327
  86.4529742  41.2172618  10.2079771  86.3978545  41.0516889   9.2668216
  85.8275797  41.9248651  10.3641961  71.2422257  36.4540682  24.0341194
  71.8881120  35.9439636  24.5228419  71.0339408  37.1909364  24.6084619
  83.7675649  43.5221530  29.5333334  84.6366808  43.6962182  29.1719969
  83.2882400  44.3415947  29.4109064  79.7625867  30.7180727   9.7865090
  79.7504537  31.6622567   9.9433361  80.6549289  30.5350872   9.4924551
  77.9361829  50.6418631  21.2122768  78.8389076  50.6742241  21.5289263
  77.7099199  49.7119082  21.2269104  79.6915431  49.3949617  17.8732846
  78.7411062  49.3951479  17.7597219  79.9947917  48.6482352  17.3568881
  83.5777987  27.3123504  14.0411027  82.8110382  26.7581990  14.1867709
  83.9888691  27.3845372  14.9025178  75.5819748  33.6008299  28.1316208
  76.4451209  33.2445104  28.3419532  75.0085158  33.2622194  28.8191612
  95.4268125  55.2310156  18.9378609  96.0646534  55.1116903  18.2341949
  95.3088967  56.1791000  18.9966561  92.2357831  55.1837584  18.8740134
  91.8976342  55.0678649  17.9860668  93.1047599  54.7828749  18.8541140
  88.0944646  57.0373060  14.8637024  87.5309512  56.9462997  14.0953312
  87.9797042  56.2172965  15.3439517  92.7177614  56.3372436  24.8326339
  92.7066255  55.9425234  23.9606843  92.8798253  55.6038508  25.4260111
  85.6409078  58.5324252  17.7021245  86.4330370  58.1915077  17.2867544
  85.8805729  58.6419227  18.6223398  93.6744205  60.7044028  10.1751489
  93.0232185  61.2898108   9.7885503  94.4688568  61.2350223  10.2346527
  87.5999832  57.7933165  10.5738624  88.3730708  57.2462152  10.4351500
  87.9525231  58.6577415  10.7853085  89.4384875  59.1209547  23.7805523
  89.1474741  60.0255178  23.6652189  90.0741859  59.1626075  24.4949593
  90.3641082  56.4986396  20.3706883  90.9604654  56.2742418  19.6563846
  90.4216053  55.7571141  20.9732331  89.9366110  53.9525831   8.2057074
  90.1891631  53.4307353   7.4440537  88.9990669  53.7891977   8.3083757
  94.9809393  52.9561610  16.0131817  95.7672482  52.5381033  15.6622234
  95.2448097  53.8607702  16.1813465  95.1519470  58.3934460  10.7120474
  94.5165303  58.4669086  11.4241378  94.8216877  58.9828059  10.0339553
 100.3817820  52.8936843  16.9164795 101.1142992  52.3236060  17.1502625
  99.6257176  52.5058443  17.3571301  89.6562399  55.8553937  10.4081449
  89.5398657  55.1798841  11.0762533  89.7664659  55.3686311   9.5913602
  91.9993940  55.3164084  14.1128138  91.6352147  54.7894705  14.8241059
  92.8561056  54.9262553  13.9394623  97.9043240  46.6058417  21.3759404
  97.5726565  47.4753828  21.1520619  97.3088854  46.2894701  22.0553434
  91.6399427  50.3453984   9.1089486  91.8073829  51.2134220   9.4759957
  91.4496596  50.5081266   8.1850776  94.3974760  58.8070963  20.7755317
  94.0975483  59.7096002  20.6671124  94.0525820  58.5403146  21.6276470
  87.8487241  55.2584760  16.8092021  86.9237738  55.1260974  17.0169713
  88.0971655  56.0378979  17.3061964  97.7971904  51.3253503  18.4552754
  96.8888781  51.2568912  18.1611515  97.7459500  51.8025448  19.2834580
  91.6188648  52.8011642  10.0936153  91.4988273  53.2468692  10.9321633
  90.9241236  53.1496959   9.5349691  85.2096053  54.9018033  17.6435810
  85.3388434  55.1552512  18.5575222  84.5293504  55.4945741  17.3240465
  89.3795540  65.5715283  13.7426284  89.3019570  66.5223108  13.8214765
  88.7757183  65.2261156  14.4001211  91.8712770  52.7443149  26.3987651
  91.0946104  53.3037069  26.3890516  92.5103333  53.2299932  26.9202521
  99.6633550  49.5269942  20.2330628  99.0207930  49.8202475  19.5870423
  99.1588479  49.4122862  21.0383825  97.3173714  53.2733115  10.9216487
  98.2291570  53.5060501  10.7464185  96.8083361  53.8570159  10.3591566
  90.1259142  55.5528602  25.9605618  90.8673826  56.0913646  25.6840442
  89.4196127  56.1794891  26.1177170  95.6014482  57.6957743  24.5577780
  96.0097838  57.2540153  23.8132412  94.8791743  57.1210370  24.8111973
  91.9545552  52.6330349  21.9311337  92.8006747  53.0569763  22.0745986
  91.8944189  51.9763974  22.6249900  95.9243296  58.2558933  18.3130069
  95.2952159  58.4204647  17.6106137  95.5368958  58.6700543  19.0841033
  99.8032528  59.1913371  15.6674432  99.1183566  59.5712272  15.1171466
  99.8876377  59.8008698  16.4006380  95.1044997  50.2934718  23.5892510
  94.8605929  51.0476778  23.0526786  95.3804927  50.6720065  24.4239757
  97.0583460  56.8373330  22.2669776  97.2700355  57.4805090  21.5904157
  97.0113208  56.0035647  21.7991706  94.6609689  49.4491151  19.1706348
  93.7994168  49.7472404  19.4623086  94.6872123  49.6661550  18.2387381
  91.4771258  57.9933341  15.5780154  91.9409604  58.2721044  14.7884776
  91.2128056  57.0916786  15.3953244  88.3695339  57.5404823  18.5159917
  88.9396696  57.9692091  17.8777402  88.9603451  57.2587408  19.2144103
  90.4140144  54.1156494  12.3869719  91.1164187  54.5677537  12.8543645
  90.0820773  53.4740313  13.0149612  88.8620506  52.7068250  26.7620928
  88.2319166  53.3884531  26.9956325  88.7556594  52.5951332  25.8174067
  84.1565478  52.3740046  17.6886852  83.3664532  52.6297575  17.2126963
  84.6476725  53.1888384  17.7938893  98.1729288  59.7145285  20.4392133
  98.9946731  59.3125473  20.1574815  98.1691690  59.6113520  21.3908249
  86.1080223  52.7384626  14.6470329  85.3111387  52.8503320  15.1653825
  85.8805816  53.0771278  13.7811220  91.9385891  59.2629329  22.5952844
  92.0030324  59.7249736  23.4311016  91.2296815  58.6326694  22.7235154
  82.4403181  52.6270537  20.1201843  82.6911219  53.5117547  20.3859419
  82.9762729  52.4475138  19.3476935 106.2635281  56.0584034  16.7877105
 105.5098989  55.4891432  16.6321109 106.3982822  56.0246698  17.7347739
  91.6533909  60.9297436  12.4631824  91.5179584  61.7748972  12.8916672
  92.1943721  61.1316714  11.6997758  85.1063306  58.4472874  13.0359749
  85.6187827  59.2416125  13.1865314  85.7586019  57.7499165  12.9693351
  86.9158191  61.5638631  15.1182502  87.0924819  62.4856595  14.9303486
  87.7115024  61.2497050  15.5476882  91.0569209  48.4246895  26.7166436
  91.7978923  49.0254048  26.6370898  91.2887132  47.6824533  26.1584478
  86.2010547  53.6103262  24.9944666  86.0864062  52.7088520  25.2951765
  85.3455065  53.8566959  24.6429482  93.2802385  61.5521003  26.5932166
  92.8366239  60.7657381  26.2753071  93.9419599  61.7400153  25.9276057
  88.0389506  63.0816804  21.1192845  88.5896931  62.9533868  20.3469839
  87.2000982  63.3811693  20.7687738  95.3783623  61.8323803  24.6213568
  95.3602099  62.6532684  24.1293837  96.3003543  61.7077878  24.8463709
  91.8356677  59.3467932  25.4637076  92.3685014  58.5856220  25.2336384
  91.3070758  59.0541584  26.2061230  95.0026372  44.4527998  20.9930718
  94.6590642  45.3429640  20.9169828  95.3705335  44.2629656  20.1300303
  83.0712223  56.7761529  13.8119320  83.9087445  57.1858537  13.5953027
  83.2490491  55.8360971  13.7819514  94.9676655  54.4436609   9.5003153
  94.4523278  55.2141214   9.7391540  94.6953963  53.7701745  10.1236214
  92.5523766  49.2886310  14.5588391  91.6965362  48.8993160  14.3794030
  92.9650718  49.3678271  13.6988177  94.0822913  46.8232653  18.9579951
  93.5787708  46.7862788  18.1447756  94.3753520  47.7325396  19.0176608
  90.3265799  46.9071383  17.9646133  91.1918795  46.7114192  17.6052022
  90.3943307  46.6781735  18.8915489  99.9410929  57.1968964  11.4356326
  99.1640372  56.8580123  10.9911488 100.6202410  57.2021587  10.7611291
  94.7562958  52.3163701  11.3262934  94.4513094  52.6309851  12.1773077
  95.7093400  52.3945121  11.3690267  93.2009390  58.4753925  12.9755888
  92.6730752  57.7406684  12.6629125  92.6996893  59.2528601  12.7295856
  98.1802236  56.6702945  18.0922934  97.5225910  57.3602207  18.1803063
  98.9842635  57.0599377  18.4356921  87.9328118  49.1373591  15.3362499
  88.5071870  48.9148772  14.6035692  88.5199100  49.2062285  16.0891101
  96.9907695  55.0247318  16.1426876  97.5039577  55.6577310  16.6448586
  97.6408919  54.4248513  15.7770236  88.2597705  51.1678052   9.3558385
  87.4235017  51.5052739   9.6767659  88.1202474  51.0327032   8.4185522
  90.2350785  46.0114840  14.0637569  89.5815198  45.6963857  13.4394184
  90.1931259  45.3890580  14.7897392  91.3461990  56.2934135   5.9790861
  90.4389052  56.0623388   6.1782010  91.8433022  55.4971754   6.1664842
  94.2530069  65.0031642   8.8987547  93.5791768  65.3063339   9.5072505
  94.6395891  65.8060722   8.5493004  93.4688526  52.4996773  18.3885216
  92.5511087  52.7211720  18.2306905  93.8848669  52.5743084  17.5296924
  94.2523573  53.8988189  13.5187897  94.9995392  54.4109586  13.2095019
  94.5215163  53.5772242  14.3792290  92.5250224  56.3946730  10.5014851
  91.6161443  56.1105763  10.5987321  92.5545307  56.8145808   9.6418158
  97.7569491  60.0053319  14.2706019  97.3031818  59.1644229  14.3271209
  97.1263458  60.6414718  14.6080799  96.7002411  50.9345305  15.5006686
  95.9625167  50.4222692  15.8316929  96.9529184  50.4945687  14.6889963
  96.2002430  61.8429816  15.2055837  96.4925405  62.4034873  14.4868202
  96.7101051  62.1358377  15.9608996  96.8014038  43.7121557  16.0948455
  97.1072915  42.8518921  15.8074370  97.5266643  44.3039178  15.8947449
  83.0938394  54.1152244  14.4830053  82.8962794  53.5221605  13.7581120
  82.5385058  53.8104454  15.2005992  91.0735118  54.0075350  16.6024646
  91.1283727  53.0549187  16.5267123  90.2626320  54.1634790  17.0865945
  92.2226311  57.9355473   7.8402930  91.7845741  57.2191332   7.3808567
  92.9636752  58.1631588   7.2788021  89.0127478  52.6252410  14.3615025
  88.1995343  52.9246581  14.7680217  89.5086472  52.2308099  15.0789507
  91.1636055  62.6210167  16.2949290  91.1212234  62.8471013  15.3657822
  92.0798754  62.3873542  16.4435091  94.6101689  53.0894235  23.1929919
  94.9651077  53.3165708  24.0524385  95.2573821  53.4212611  22.5707174
 100.3399426  56.2112671  13.8979248 100.2017325  56.4014266  12.9700437
  99.9835645  56.9732053  14.3547299  88.5041552  50.1970766  19.9776260
  89.1440932  50.0559525  19.2799223  87.6719083  49.9105279  19.6014862
 100.3668806  58.2789198  18.9090520 100.8005313  58.1864487  19.7573574
 101.0800387  58.2546698  18.2710536  89.2801856  59.4973196  16.0911253
  90.0742455  59.0023516  15.8893828  88.5693549  58.9691059  15.7278958
  94.0996701  61.8791292  20.4423620  94.1533723  62.4482228  21.2101336
  93.2311482  62.0493177  20.0777657  85.5884620  53.6416278  12.1671005
  84.6582208  53.5800733  12.3840967  85.6842092  53.1192231  11.3707647
  85.5070169  50.1671091  14.7549247  85.7676986  51.0816424  14.6458407
  86.3287341  49.6995533  14.9045860  86.9795094  51.5808848  21.9248072
  87.6518148  51.3726210  21.2760720  86.1524881  51.3830934  21.4853304
 101.2284355  58.3212898  21.4423405 101.4220245  59.2258709  21.6882680
 101.1284974  57.8620317  22.2761990  92.8820666  48.2070789  23.9413732
  92.2348581  48.9060738  23.8478209  93.6521682  48.6406933  24.3089981
  96.2899464  58.4719641  27.0164286  96.1384970  58.2430193  26.0994369
  96.2804144  59.4290242  27.0295631  93.0584800  56.0451554  22.0010552
  93.9876860  56.1962713  21.8279519  92.6375831  56.1335574  21.1459199
  91.8573132  60.0702218  19.7709090  91.7184218  59.7021002  20.6435028
  91.0687728  60.5849858  19.5993048  92.4521284  65.1711315  11.1134626
  92.6273040  64.6999358  11.9280249  91.7654072  65.7977081  11.3415887
  93.4078347  59.4483821  17.1597928  93.0728180  59.4084591  18.0555577
  92.9082293  58.7828537  16.6868338  87.3822591  54.8551451  22.6850509
  87.2442389  54.1231690  23.2862048  88.2927515  54.7660351  22.4034696
  96.3437539  56.7939855   7.4334987  95.7266710  56.0686683   7.3368040
  95.8754028  57.5549215   7.0902061  90.0104892  54.5671410  22.1734188
  90.7204511  53.9264602  22.1320807  89.9674200  54.8184305  23.0960369
  97.9991671  61.5038763  25.0940768  97.9404217  60.8197984  24.4271351
  98.4011189  62.2457753  24.6421394  88.7233826  51.5536628  23.9929828
  88.1871183  51.1027366  24.6451424  88.1350534  51.6882537  23.2500292
  87.0182370  68.3200677  17.8874486  87.2578968  68.9519201  18.5653505
  86.1751566  67.9688717  18.1739846  88.1336085  51.0125279   6.5556291
  87.2565551  50.8914080   6.1918538  88.6093838  50.2211358   6.3035180
  98.0009078  59.4678347  23.3254747  97.1135857  59.1304269  23.4481146
  98.5707629  58.7361379  23.5623513  79.6538225  55.8002439  16.6497799
  80.3409265  55.4864169  16.0618814  79.4986354  56.7043804  16.3765050
  84.4572947  50.6892636  21.0782822  84.3731136  50.0818305  20.3433232
  83.6355654  51.1801654  21.0792319  91.5310231  64.1279800  20.2915990
  91.4580403  64.9334771  20.8035295  91.0887624  64.3271766  19.4664012
  91.3200011  63.3651570  13.8018812  90.5367533  63.9073250  13.8957036
  92.0192756  63.8825549  14.2013053  94.6296661  49.1746199  16.4453017
  95.1265361  48.4216162  16.1254088  93.8583643  49.2110516  15.8796227
 102.4826419  54.8786565  18.0871309 102.4716295  55.7611280  17.7165242
 101.6143798  54.5258116  17.8925846  93.9908915  64.0266634  22.4474149
  94.7036887  64.6614099  22.3750051  93.4998944  64.1230500  21.6314151
  95.7126442  57.9317886  14.0191441  94.7782721  58.0519349  13.8496145
  95.8903110  57.0290353  13.7551451  91.2131630  51.3163582  16.1724702
  90.8429417  50.7634623  16.8605608  91.7090722  50.7121716  15.6199702
  99.0998993  53.7735206  14.5541475  99.5659445  54.6063197  14.4801778
  99.5506494  53.3080187  15.2586733  89.0420828  61.7761077  23.2679720
  89.7430288  62.4097560  23.4209114  88.5715943  62.1175809  22.5075359
  97.1675224  60.1179027  11.5527627  97.4435068  60.0035622  12.4621501
  96.2979723  59.7196512  11.5139800  97.0715656  46.1415793  18.5932376
  96.1578736  46.3720020  18.7614583  97.5008757  46.2254237  19.4446409
  96.8422114  54.3305685  21.0932270  96.1893565  54.5781592  20.4384723
  97.2202494  53.5169823  20.7594748  93.8029288  64.3665378  15.1960441
  93.9851683  63.5487034  15.6588193  94.6262274  64.5833070  14.7585331
  94.1371454  63.2933563  12.4575489  94.6659220  62.7826018  11.8445651
  94.3999673  62.9776093  13.3221022  92.8909687  55.0725496  27.5798307
  92.2150324  54.9719625  28.2500683  93.7137321  54.9164710  28.0434305
  84.6388547  61.3097432  20.2010823  85.2241983  60.5641120  20.3338727
  84.4413385  61.6201389  21.0847486  87.4927202  64.3448680  15.2173265
  86.8237577  64.8294807  14.7337305  87.3540071  64.5917900  16.1316643
  79.2306201  53.8803033  18.9215266  79.2690301  53.3466623  19.7152384
  78.7246494  53.3538238  18.3026243  86.6096964  48.7267573  22.4177808
  86.6738290  49.5882404  22.0055206  86.5464084  48.1141575  21.6850167
  86.0849236  50.7990706  26.0650842  86.7121275  50.4167783  26.6788367
  85.2277155  50.5804907  26.4306535  96.4843345  61.2053681  27.6704578
  97.0283249  61.8183639  27.1759533  95.9030189  61.7633259  28.1871591
  82.8614779  52.6067135  11.9969197  83.1568220  51.6977813  11.9436251
  81.9602815  52.5854874  11.6750199  94.7700858  64.3274399  18.8019605
  94.6451997  63.5264139  18.2930551  95.4279949  64.8220592  18.3133575
  86.3909026  50.6823131  17.9796746  85.6695612  51.2959099  17.8404219
  87.1802282  51.2180896  17.9013392  96.8335766  62.1283419  20.4299156
  95.8866102  62.0088770  20.3577482  97.1818539  61.2405917  20.5125417
  89.1935339  48.0177558  24.2537397  89.7169741  48.2639854  25.0163707
  88.9747673  48.8497593  23.8340535  84.5902620  50.2881232  12.1208522
  84.2615327  49.4078611  11.9383628  84.9441991  50.2328901  13.0084912
  93.8382199  61.9236135  16.6303508  93.6907162  60.9952842  16.8111078
  94.6635693  61.9456226  16.1460583  87.7044444  50.5754202  12.4884000
  88.0440516  51.1040123  11.7662608  88.1516564  50.9134608  13.2642566
  97.4416321  62.7464694  17.7168381  98.3662869  62.5407555  17.5792832
  97.2731624  62.4981095  18.6257722  90.3987884  48.9591253  21.9387068
  90.0584705  48.1599066  22.3407748  89.6926891  49.2592964  21.3663901
  91.0504356  46.0440565  20.3914391  91.8730426  45.5701043  20.2693281
  91.2942420  46.8231049  20.8913077  89.6912591  49.0728824  10.6877293
  90.4120953  49.4510077  10.1841010  89.0677895  49.7917701  10.7912271
  93.8343714  49.7773973  11.6235625  94.0507328  50.6598611  11.3224453
  93.3537781  49.3860186  10.8941267  88.5742935  52.7359686  18.2006370
  88.4287516  53.0499989  19.0930651  88.0968139  53.3544586  17.6477268
  90.4339318  49.7262234  18.2487259  90.4200887  48.8303327  17.9119557
  91.1511746  49.7332898  18.8825545  92.2865449  50.1599574  20.2940387
  92.0283226  51.0816645  20.2924717  91.7550489  49.7630009  20.9840851
  97.2311637  63.2650361  13.0730472  97.4048515  62.6996784  12.3204324
  97.7240529  64.0651256  12.8909962  83.0488597  55.2765030  21.1394031
  82.5042065  56.0524838  21.2714305  83.9267947  55.6235835  20.9813152
  89.8376214  48.6076614  13.5174829  89.9592125  47.6793260  13.7165717
  89.5478256  48.6215300  12.6053145  92.7067404  46.2931525  16.6541549
  92.7289101  46.3570858  15.6993529  93.1235463  45.4536033  16.8482055
 103.0851028  56.0286784  14.6920772 103.5282175  55.2794109  14.2939895
 102.2077539  56.0196921  14.3094504  98.2186810  62.5817126  10.1727370
  98.9137714  63.2023818  10.3914685  98.5609960  61.7312477  10.4479748
  83.8354619  54.4034927  24.0324188  83.0936355  54.5517562  24.6188818
  83.5147363  54.6643192  23.1690937 100.1178233  60.0316831  11.7014701
 100.6429557  60.3704104  10.9764021 100.0300585  59.0963846  11.5177836
  91.8018894  66.0988814  16.0609954  91.3623884  65.6065193  16.7542811
  92.5527011  65.5561782  15.8202029  84.2811233  62.2900355  16.0634582
  85.1069253  61.9904127  15.6833226  83.9305285  61.5207978  16.5124371
  89.2492766  61.6426824  18.1332256  88.6272775  60.9797529  17.8334484
  89.9197633  61.6687955  17.4505904  82.4819838  60.2086682  17.0223516
  81.6451746  59.7808856  16.8407517  82.4543483  60.4019125  17.9594307
  89.3217293  50.1208612  27.7264762  89.3705449  50.9970734  27.3442532
  89.8639808  49.5786005  27.1536405  99.8072139  60.6649735  27.0065899
  99.0167683  60.6473874  26.4670398  99.5705494  61.2038028  27.7614936
  99.9270014  57.5142201  24.3198628  99.9768019  57.3492209  25.2614150
  99.8183937  56.6469460  23.9296508  88.8106273  60.1930747  11.6090716
  88.9594393  60.8766211  10.9557389  89.6172716  60.1735837  12.1240172
  97.2173776  53.4973129  25.6357934  98.1183639  53.3579594  25.3441932
  97.2921751  53.6627584  26.5756112  91.5516582  50.8739984  24.4811121
  90.6819891  51.1673550  24.2093709  91.7876062  51.4580429  25.2018384
 101.4288211  59.9339143  24.5640649 101.1373019  60.2969123  25.4004110
 100.8160342  59.2206151  24.3853981 102.6283893  57.4992022  17.0843219
 103.4630785  57.9381827  17.2480780 102.7643022  57.0230676  16.2651465
  99.6775399  55.0571757  23.0320707 100.1529521  55.2499404  22.2239558
  98.7540964  55.1130943  22.7864091  86.5658906  56.2195925  12.6151785
  86.3204948  55.3158254  12.8131995  86.7354820  56.2213075  11.6731263
  94.2555616  47.0919601  21.9976541  94.7737559  47.8280628  21.6723030
  93.9010748  47.3983594  22.8323300  85.8354553  51.9524282  10.1137947
  85.1423798  52.0268637   9.4577983  85.5906305  51.1884626  10.6359464
  94.5068210  43.5119883  17.5177438  94.7869964  42.8443072  18.1437864
  95.2918817  43.7048979  17.0052101  92.3101678  62.6878877   9.0802464
  91.7375645  63.3069064   8.6272936  92.8834472  63.2378239   9.6142386
  98.3777068  51.9337517  21.2649013  99.3294491  52.0335615  21.2861237
  98.2080519  51.1415786  21.7747097  96.3991448  49.0193101  21.4508414
  95.8041380  49.2998113  20.7554902  96.1141144  49.5087002  22.2225155
  95.5298938  62.9716027  10.2111046  96.4629611  62.9061589  10.4143922
  95.4422151  63.8072294   9.7525579  98.1586955  62.2881898   7.1714994
  98.0800586  61.9541761   8.0650752  98.9796622  62.7803666   7.1706466
 100.8565146  55.1543637  20.3791312 100.8241466  54.2159638  20.5650996
 101.4665770  55.2327674  19.6457137  92.6948477  54.0239690   6.4218516
  93.6407581  53.8945898   6.4906934  92.3162722  53.2854352   6.8987945
 101.0059634  51.9454681  20.4249596 100.4898683  51.1613137  20.2379524
 101.8899583  51.6173397  20.5896115  98.6670361  45.6895696  16.3845408
  98.4695182  45.3810784  17.2688740  99.2770067  46.4157335  16.5143338
 106.6741696  56.2159644  19.5197349 107.4045084  55.9544932  20.0805052
 106.0648641  55.4788366  19.5599417 104.7556993  54.3567507  20.1171800
 104.0290156  54.2223471  19.5088292 104.3404280  54.6644335  20.9228518
  92.5787169  58.0757436  27.8819173  93.4990179  58.2536035  28.0759220
  92.5436752  57.1313482  27.7298873  90.8791394  51.9489666   6.3573402
  89.9722849  51.6522779   6.4336115  91.1567375  51.6519485   5.4907688
  81.7969334  53.2696030  16.8072448  81.4772119  52.4161338  16.5146822
  81.2502762  53.4844608  17.5630415  85.5749242  55.9858471  20.5241955
  85.7935252  56.9175579  20.5429988  85.9875016  55.6266445  21.3096758
  92.4953460  46.4926556  12.5117643  91.6854188  46.1473641  12.8872889
  93.1837877  46.1834100  13.1005254  94.4244008  45.5704603  14.1341940
  94.9775047  45.9900056  14.7931963  94.6614094  44.6440351  14.1764896
  90.4477107  51.5591677  29.9144703  90.3473834  52.5086034  29.8456795
  90.2298649  51.2309916  29.0420774  89.6490179  48.8076602   6.4985381
  90.5109343  49.1331500   6.7581198  89.8340523  48.0208098   5.9858447
  81.6657594  56.8898941  18.7765570  80.9721066  56.4752894  18.2635524
  82.4130585  56.9319478  18.1798988  97.8022815  47.6805128  13.6420604
  97.2221484  48.3389932  13.2598656  97.5358748  46.8582473  13.2308021
  96.2526381  47.0810186  15.8441924  96.7526160  47.1926720  15.0356243
  96.8961989  46.7771239  16.4842733  90.3108377  54.9888815  28.7309765
  89.8275459  55.7889176  28.9373654  90.3969316  54.9996760  27.7777209
  83.5794337  56.8217195  16.6531584  83.5565025  56.9204882  15.7013468
  83.8894973  57.6682346  16.9748751  86.2381715  58.8793350  20.7678199
  87.1924968  58.8477292  20.7008130  86.0394238  58.4183974  21.5828425
  86.8281097  57.4494466  23.3348997  87.6473986  57.9438545  23.3583834
  87.1017905  56.5326434  23.3066564  96.5847693  49.8405219  12.6976952
  95.6973548  50.1254869  12.4797147  97.0001682  49.6798982  11.8504229
  99.9362229  49.8651739  16.4131291 100.7122619  50.3548192  16.6855908
  99.2110363  50.2909794  16.8703161 102.3734788  50.5779359  17.4705232
 102.9679279  50.3375095  16.7598540 102.4461372  49.8586489  18.0978768
  84.5931943  64.4212970  17.7848397  84.4586411  63.6613371  17.2186395
  84.1764006  65.1453870  17.3177186  95.7290907  59.6049893   6.7924972
  96.4326757  59.8099896   7.4082628  95.0053555  60.1726655   7.0574056
  96.5588717  55.3559754  12.9127242  96.5023918  55.8128306  12.0734875
  97.1117059  54.5950439  12.7350085 100.3693523  51.1449486  13.7377362
 100.1130457  50.7446122  14.5685569  99.7446391  51.8593280  13.6127501
 104.6805861  53.8845560  16.2448653 104.1205419  53.9538749  17.0180215
 104.0749364  53.7086544  15.5248149  87.7501069  65.3182287  17.9966839
  87.6333454  66.2627719  17.8945530  86.9293516  65.0155848  18.3852639
  97.6377604  60.0432422   8.8423432  98.4723208  59.6113621   8.6600907
  97.4761947  59.8714436   9.7700327  97.2923496  56.5464536  10.2079771
  97.2372300  56.3808807   9.2668216  96.6669551  57.2540569  10.3641961
  82.0816011  51.7832600  24.0341194  82.7274875  51.2731554  24.5228419
  81.8733162  52.5201282  24.6084619  94.6069403  58.8513448  29.5333334
  95.4760563  59.0254100  29.1719969  94.1276155  59.6707864  29.4109064
  90.6019622  46.0472645   9.7865090  90.5898291  46.9914485   9.9433361
  91.4943043  45.8642790   9.4924551  90.5309186  64.7241535  17.8732846
  89.5804817  64.7243397  17.7597219  90.8341672  63.9774270  17.3568881
  94.4171741  42.6415421  14.0411027  93.6504137  42.0873908  14.1867709
  94.8282446  42.7137290  14.9025178  86.4213502  48.9300217  28.1316208
  87.2844964  48.5737022  28.3419532  85.8478913  48.5914112  28.8191612
 106.2661879  70.5602074  18.9378609 106.9040289  70.4408821  18.2341949
 106.1482722  71.5082917  18.9966561 103.0751585  70.5129502  18.8740134
 102.7370097  70.3970566  17.9860668 103.9441353  70.1120667  18.8541140
  98.9338401  72.3664978  14.8637024  98.3703266  72.2754915  14.0953312
  98.8190796  71.5464882  15.3439517 103.5571368  71.6664353  24.8326339
 103.5460009  71.2717152  23.9606843 103.7192008  70.9330426  25.4260111
  96.4802833  73.8616170  17.7021245  97.2724125  73.5206994  17.2867544
  96.7199483  73.9711145  18.6223398 104.5137960  76.0335946  10.1751489
 103.8625939  76.6190026   9.7885503 105.3082322  76.5642141  10.2346527
  98.4393587  73.1225083  10.5738624  99.2124463  72.5754070  10.4351500
  98.7918986  73.9869332  10.7853085 100.2778629  74.4501465  23.7805523
  99.9868495  75.3547096  23.6652189 100.9135614  74.4917993  24.4949593
 101.2034836  71.8278314  20.3706883 101.7998409  71.6034336  19.6563846
 101.2609808  71.0863059  20.9732331 100.7759865  69.2817749   8.2057074
 101.0285385  68.7599270   7.4440537  99.8384424  69.1183894   8.3083757
 105.8203147  68.2853527  16.0131817 106.6066237  67.8672951  15.6622234
 106.0841852  69.1899620  16.1813465 105.9913225  73.7226378  10.7120474
 105.3559058  73.7961004  11.4241378 105.6610631  74.3119976  10.0339553
 111.2211575  68.2228761  16.9164795 111.9536747  67.6527977  17.1502625
 110.4650930  67.8350361  17.3571301 100.4956153  71.1845855  10.4081449
 100.3792412  70.5090758  11.0762533 100.6058413  70.6978229   9.5913602
 102.8387694  70.6456002  14.1128138 102.4745902  70.1186623  14.8241059
 103.6954810  70.2554471  13.9394623 108.7436995  61.9350335  21.3759404
 108.4120320  62.8045746  21.1520619 108.1482608  61.6186619  22.0553434
 102.4793181  65.6745902   9.1089486 102.6467584  66.5426138   9.4759957
 102.2890350  65.8373183   8.1850776 105.2368514  74.1362881  20.7755317
 104.9369238  75.0387919  20.6671124 104.8919574  73.8695064  21.6276470
  98.6880996  70.5876677  16.8092021  97.7631492  70.4552892  17.0169713
  98.9365409  71.3670897  17.3061964 108.6365658  66.6545421  18.4552754
 107.7282536  66.5860829  18.1611515 108.5853254  67.1317366  19.2834580
 102.4582402  68.1303559  10.0936153 102.3382027  68.5760610  10.9321633
 101.7634991  68.4788877   9.5349691  96.0489807  70.2309951  17.6435810
  96.1782188  70.4844430  18.5575222  95.3687258  70.8237659  17.3240465
 100.2189294  80.9007201  13.7426284 100.1413324  81.8515026  13.8214765
  99.6150938  80.5553073  14.4001211 102.7106524  68.0735066  26.3987651
 101.9339858  68.6328987  26.3890516 103.3497087  68.5591849  26.9202521
 110.5027305  64.8561859  20.2330628 109.8601685  65.1494392  19.5870423
 109.9982233  64.7414780  21.0383825 108.1567468  68.6025032  10.9216487
 109.0685324  68.8352419  10.7464185 107.6477115  69.1862077  10.3591566
 100.9652896  70.8820520  25.9605618 101.7067581  71.4205564  25.6840442
 100.2589882  71.5086809  26.1177170 106.4408236  73.0249660  24.5577780
 106.8491592  72.5832071  23.8132412 105.7185498  72.4502288  24.8111973
 102.7939306  67.9622267  21.9311337 103.6400501  68.3861681  22.0745986
 102.7337944  67.3055891  22.6249900 106.7637051  73.5850851  18.3130069
 106.1345913  73.7496565  17.6106137 106.3762713  73.9992460  19.0841033
 110.6426283  74.5205289  15.6674432 109.9577321  74.9004190  15.1171466
 110.7270132  75.1300615  16.4006380 105.9438751  65.6226635  23.5892510
 105.6999683  66.3768696  23.0526786 106.2198682  66.0011983  24.4239757
 107.8977214  72.1665248  22.2669776 108.1094109  72.8097008  21.5904157
 107.8506962  71.3327564  21.7991706 105.5003443  64.7783068  19.1706348
 104.6387922  65.0764322  19.4623086 105.5265878  64.9953467  18.2387381
 102.3165013  73.3225259  15.5780154 102.7803358  73.6012962  14.7884776
 102.0521811  72.4208704  15.3953244  99.2089094  72.8696741  18.5159917
  99.7790451  73.2984009  17.8777402  99.7997205  72.5879325  19.2144103
 101.2533899  69.4448411  12.3869719 101.9557942  69.8969455  12.8543645
 100.9214527  68.8032230  13.0149612  99.7014260  68.0360168  26.7620928
  99.0712921  68.7176449  26.9956325  99.5950348  67.9243250  25.8174067
  94.9959233  67.7031964  17.6886852  94.2058287  67.9589493  17.2126963
  95.4870480  68.5180302  17.7938893 109.0123042  75.0437203  20.4392133
 109.8340486  74.6417390  20.1574815 109.0085445  74.9405437  21.3908249
  96.9473978  68.0676543  14.6470329  96.1505141  68.1795237  15.1653825
  96.7199570  68.4063195  13.7811220 102.7779646  74.5921246  22.5952844
 102.8424078  75.0541654  23.4311016 102.0690569  73.9618611  22.7235154
  93.2796936  67.9562454  20.1201843  93.5304974  68.8409464  20.3859419
  93.8156484  67.7767056  19.3476935 117.1029035  71.3875952  16.7877105
 116.3492744  70.8183350  16.6321109 117.2376576  71.3538616  17.7347739
 102.4927663  76.2589354  12.4631824 102.3573338  77.1040890  12.8916672
 103.0337476  76.4608632  11.6997758  98.9795003  62.3380934  29.1246179
  98.5861948  61.7847132  29.7993824  99.7961143  62.6491512  29.5152697
  95.9457061  73.7764792  13.0359749  96.4581581  74.5708042  13.1865314
  96.5979773  73.0791082  12.9693351  97.7551945  76.8930548  15.1182502
  97.9318574  77.8148513  14.9303486  98.5508779  76.5788967  15.5476882
 101.8962964  63.7538813  26.7166436 102.6372677  64.3545966  26.6370898
 102.1280887  63.0116451  26.1584478  97.0404302  68.9395180  24.9944666
  96.9257817  68.0380437  25.2951765  96.1848820  69.1858877  24.6429482
 104.1196140  76.8812920  26.5932166 103.6759994  76.0949299  26.2753071
 104.7813353  77.0692071  25.9276057  98.8783261  78.4108722  21.1192845
  99.4290686  78.2825785  20.3469839  98.0394737  78.7103611  20.7687738
 106.2177378  77.1615720  24.6213568 106.1995853  77.9824601  24.1293837
 107.1397298  77.0369796  24.8463709 102.6750432  74.6759850  25.4637076
 103.2078769  73.9148138  25.2336384 102.1464513  74.3833502  26.2061230
 105.8420127  59.7819916  20.9930718 105.4984396  60.6721558  20.9169828
 106.2099089  59.5921573  20.1300303  93.9105977  72.1053446  13.8119320
  94.7481199  72.5150455  13.5953027  94.0884245  71.1652888  13.7819514
 105.8070410  69.7728527   9.5003153 105.2917033  70.5433132   9.7391540
 105.5347718  69.0993663  10.1236214 103.3917521  64.6178228  14.5588391
 102.5359117  64.2285078  14.3794030 103.8044472  64.6970189  13.6988177
 104.9216667  62.1524571  18.9579951 104.4181463  62.1154706  18.1447756
 105.2147274  63.0617314  19.0176608 101.1659553  62.2363301  17.9646133
 102.0312550  62.0406109  17.6052022 101.2337062  62.0073652  18.8915489
 110.7804684  72.5260882  11.4356326 110.0034126  72.1872041  10.9911488
 111.4596165  72.5313505  10.7611291 105.5956713  67.6455619  11.3262934
 105.2906848  67.9601768  12.1773077 106.5487155  67.7237039  11.3690267
 104.0403145  73.8045842  12.9755888 103.5124506  73.0698602  12.6629125
 103.5390647  74.5820519  12.7295856 109.0195991  71.9994863  18.0922934
 108.3619665  72.6894124  18.1803063 109.8236390  72.3891295  18.4356921
  98.7721872  64.4665509  15.3362499  99.3465624  64.2440690  14.6035692
  99.3592855  64.5354203  16.0891101 107.8301449  70.3539236  16.1426876
 108.3433331  70.9869227  16.6448586 108.4802673  69.7540431  15.7770236
  99.0991459  66.4969970   9.3558385  98.2628771  66.8344656   9.6767659
  98.9596229  66.3618949   8.4185522 101.0744540  61.3406758  14.0637569
 100.4208952  61.0255775  13.4394184 101.0325014  60.7182498  14.7897392
 102.1855745  71.6226053   5.9790861 101.2782806  71.3915306   6.1782010
 102.6826777  70.8263672   6.1664842 105.0923824  80.3323560   8.8987547
 104.4185522  80.6355257   9.5072505 105.4789646  81.1352640   8.5493004
 104.3082280  67.8288691  18.3885216 103.3904842  68.0503638  18.2306905
 104.7242424  67.9035002  17.5296924 105.0917328  69.2280107  13.5187897
 105.8389147  69.7401504  13.2095019 105.3608918  68.9064159  14.3792290
 103.3643978  71.7238647  10.5014851 102.4555197  71.4397680  10.5987321
 103.3939062  72.1437726   9.6418158 108.5963246  75.3345237  14.2706019
 108.1425573  74.4936147  14.3271209 107.9657212  75.9706635  14.6080799
 107.5396165  66.2637223  15.5006686 106.8018922  65.7514609  15.8316929
 107.7922939  65.8237605  14.6889963 107.0396185  77.1721734  15.2055837
 107.3319159  77.7326791  14.4868202 107.5494805  77.4650295  15.9608996
 107.6407792  59.0413475  16.0948455 107.9466669  58.1810838  15.8074370
 108.3660397  59.6331095  15.8947449  93.9332149  69.4444162  14.4830053
  93.7356548  68.8513522  13.7581120  93.3778813  69.1396372  15.2005992
 101.9128872  69.3367268  16.6024646 101.9677482  68.3841104  16.5267123
 101.1020074  69.4926707  17.0865945 103.0620066  73.2647391   7.8402930
 102.6239496  72.5483250   7.3808567 103.8030507  73.4923506   7.2788021
  99.8521232  67.9544328  14.3615025  99.0389098  68.2538498  14.7680217
 100.3480226  67.5600017  15.0789507 102.0029810  77.9502085  16.2949290
 101.9605989  78.1762931  15.3657822 102.9192509  77.7165459  16.4435091
 105.4495444  68.4186152  23.1929919 105.8044832  68.6457625  24.0524385
 106.0967575  68.7504529  22.5707174 111.1793181  71.5404588  13.8979248
 111.0411079  71.7306184  12.9700437 110.8229400  72.3023971  14.3547299
  99.3435307  65.5262683  19.9776260  99.9834686  65.3851442  19.2799223
  98.5112837  65.2397197  19.6014862 111.2062560  73.6081115  18.9090520
 111.6399067  73.5156404  19.7573574 111.9194141  73.5838616  18.2710536
 100.1195611  74.8265114  16.0911253 100.9136209  74.3315434  15.8893828
  99.4087303  74.2982977  15.7278958 104.9390455  77.2083209  20.4423620
 104.9927478  77.7774146  21.2101336 104.0705237  77.3785094  20.0777657
  96.4278374  68.9708196  12.1671005  95.4975962  68.9092651  12.3840967
  96.5235846  68.4484148  11.3707647  96.3463923  65.4963008  14.7549247
  96.6070741  66.4108342  14.6458407  97.1681096  65.0287451  14.9045860
  97.8188849  66.9100766  21.9248072  98.4911902  66.7018128  21.2760720
  96.9918635  66.7122852  21.4853304 112.0678110  73.6504816  21.4423405
 112.2614000  74.5550626  21.6882680 111.9678728  73.1912235  22.2761990
 103.7214421  63.5362706  23.9413732 103.0742336  64.2352656  23.8478209
 104.4915436  63.9698850  24.3089981 107.1293219  73.8011559  27.0164286
 106.9778725  73.5722110  26.0994369 107.1197898  74.7582160  27.0295631
 103.8978555  71.3743471  22.0010552 104.8270615  71.5254631  21.8279519
 103.4769585  71.4627492  21.1459199 102.6966887  75.3994136  19.7709090
 102.5577972  75.0312920  20.6435028 101.9081483  75.9141775  19.5993048
 103.2915039  80.5003232  11.1134626 103.4666794  80.0291275  11.9280249
 102.6047827  81.1268998  11.3415887 104.2472102  74.7775738  17.1597928
 103.9121935  74.7376508  18.0555577 103.7476048  74.1120454  16.6868338
  98.2216346  70.1843368  22.6850509  98.0836144  69.4523607  23.2862048
  99.1321269  70.0952269  22.4034696 107.1831294  72.1231773   7.4334987
 106.5660464  71.3978601   7.3368040 106.7147782  72.8841133   7.0902061
 100.8498647  69.8963328  22.1734188 101.5598265  69.2556520  22.1320807
 100.8067955  70.1476223  23.0960369 108.8385425  76.8330681  25.0940768
 108.7797971  76.1489901  24.4271351 109.2404944  77.5749671  24.6421394
  99.5627581  66.8828546  23.9929828  99.0264938  66.4319284  24.6451424
  98.9744289  67.0174455  23.2500292  97.8576124  83.6492595  17.8874486
  98.0972722  84.2811119  18.5653505  97.0145320  83.2980635  18.1739846
  98.9729839  66.3417197   6.5556291  98.0959306  66.2205998   6.1918538
  99.4487593  65.5503275   6.3035180 108.8402832  74.7970265  23.3254747
 107.9529611  74.4596187  23.4481146 109.4101384  74.0653296  23.5623513
  90.4931980  71.1294357  16.6497799  91.1803019  70.8156087  16.0618814
  90.3380108  72.0335721  16.3765050  95.2966702  66.0184553  21.0782822
  95.2124890  65.4110223  20.3433232  94.4749408  66.5093572  21.0792319
 102.3703986  79.4571717  20.2915990 102.2974157  80.2626689  20.8035295
 101.9281379  79.6563683  19.4664012 102.1593765  78.6943487  13.8018812
 101.3761287  79.2365168  13.8957036 102.8586511  79.2117467  14.2013053
 105.4690416  64.5038117  16.4453017 105.9659115  63.7508079  16.1254088
 104.6977397  64.5402434  15.8796227 113.3220173  70.2078482  18.0871309
 113.3110049  71.0903198  17.7165242 112.4537552  69.8550033  17.8925846
 104.8302669  79.3558551  22.4474149 105.5430642  79.9906016  22.3750051
 104.3392698  79.4522417  21.6314151 106.5520196  73.2609804  14.0191441
 105.6176475  73.3811267  13.8496145 106.7296865  72.3582271  13.7551451
 102.0525384  66.6455500  16.1724702 101.6823172  66.0926540  16.8605608
 102.5484477  66.0413633  15.6199702 109.9392748  69.1027123  14.5541475
 110.4053200  69.9355115  14.4801778 110.3900248  68.6372105  15.2586733
  99.8814583  77.1052995  23.2679720 100.5824042  77.7389478  23.4209114
  99.4109698  77.4467726  22.5075359 108.0068979  75.4470945  11.5527627
 108.2828823  75.3327539  12.4621501 107.1373478  75.0488430  11.5139800
 107.9109410  61.4707710  18.5932376 106.9972490  61.7011937  18.7614583
 108.3402512  61.5546154  19.4446409 107.6815869  69.6597602  21.0932270
 107.0287319  69.9073510  20.4384723 108.0596249  68.8461741  20.7594748
 104.6423043  79.6957296  15.1960441 104.8245437  78.8778951  15.6588193
 105.4656029  79.9124988  14.7585331 104.9765208  78.6225481  12.4575489
 105.5052975  78.1117935  11.8445651 105.2393428  78.3068011  13.3221022
 103.7303442  70.4017413  27.5798307 103.0544079  70.3011543  28.2500683
 104.5531076  70.2456627  28.0434305  95.4782301  76.6389350  20.2010823
  96.0635738  75.8933038  20.3338727  95.2807139  76.9493307  21.0847486
  98.3320956  79.6740597  15.2173265  97.6631331  80.1586725  14.7337305
  98.1933826  79.9209818  16.1316643  90.0699956  69.2094950  18.9215266
  90.1084055  68.6758541  19.7152384  89.5640249  68.6830156  18.3026243
 102.4726225  81.7084341  21.8155923 103.0244533  81.8715962  22.5805009
 102.8132418  82.2988779  21.1435948  97.4490718  64.0559491  22.4177808
  97.5132045  64.9174322  22.0055206  97.3857838  63.4433492  21.6850167
  96.9242991  66.1282623  26.0650842  97.5515029  65.7459701  26.6788367
  96.0670909  65.9096825  26.4306535 107.3237099  76.5345598  27.6704578
 107.8677003  77.1475557  27.1759533 106.7423944  77.0925177  28.1871591
  93.7008533  67.9359052  11.9969197  93.9961974  67.0269731  11.9436251
  92.7996569  67.9146792  11.6750199 105.6094612  79.6566316  18.8019605
 105.4845752  78.8556056  18.2930551 106.2673703  80.1512510  18.3133575
  97.2302780  66.0115049  17.9796746  96.5089366  66.6251017  17.8404219
  98.0196036  66.5472814  17.9013392 107.6729520  77.4575337  20.4299156
 106.7259856  77.3380688  20.3577482 108.0212294  76.5697835  20.5125417
 100.0329094  63.3469475  24.2537397 100.5563496  63.5931772  25.0163707
  99.8141427  64.1789510  23.8340535  95.4296375  65.6173150  12.1208522
  95.1009081  64.7370529  11.9383628  95.7835746  65.5620819  13.0084912
 104.6775954  77.2528053  16.6303508 104.5300916  76.3244760  16.8111078
 105.5029447  77.2748143  16.1460583  98.5438198  65.9046120  12.4884000
  98.8834271  66.4332041  11.7662608  98.9910319  66.2426526  13.2642566
 108.2810076  78.0756611  17.7168381 109.2056623  77.8699473  17.5792832
 108.1125379  77.8273013  18.6257722 101.2381639  64.2883171  21.9387068
 100.8978459  63.4890984  22.3407748 100.5320645  64.5884881  21.3663901
 101.8898111  61.3732483  20.3914391 102.7124180  60.8992961  20.2693281
 102.1336174  62.1522967  20.8913077 100.5306345  64.4020741  10.6877293
 101.2514708  64.7801994  10.1841010  99.9071649  65.1209618  10.7912271
 104.6737468  65.1065890  11.6235625 104.8901082  65.9890528  11.3224453
 104.1931535  64.7152104  10.8941267  99.4136689  68.0651604  18.2006370
  99.2681270  68.3791907  19.0930651  98.9361893  68.6836504  17.6477268
 101.2733072  65.0554152  18.2487259 101.2594641  64.1595245  17.9119557
 101.9905500  65.0624815  18.8825545 103.1259203  65.4891492  20.2940387
 102.8676981  66.4108562  20.2924717 102.5944243  65.0921926  20.9840851
 108.0705392  78.5942279  13.0730472 108.2442269  78.0288701  12.3204324
 108.5634283  79.3943174  12.8909962  93.8882352  70.6056948  21.1394031
  93.3435820  71.3816756  21.2714305  94.7661701  70.9527752  20.9813152
 100.6769968  63.9368532  13.5174829 100.7985879  63.0085178  13.7165717
 100.3872011  63.9507218  12.6053145 103.5461159  61.6223442  16.6541549
 103.5682855  61.6862775  15.6993529 103.9629218  60.7827951  16.8482055
 113.9244783  71.3578702  14.6920772 114.3675929  70.6086027  14.2939895
 113.0471293  71.3488838  14.3094504 109.0580564  77.9109043  10.1727370
 109.7531469  78.5315736  10.3914685 109.4003714  77.0604395  10.4479748
  94.6748373  69.7326844  24.0324188  93.9330110  69.8809480  24.6188818
  94.3541118  69.9935110  23.1690937 110.9571987  75.3608749  11.7014701
 111.4823312  75.6996022  10.9764021 110.8694340  74.4255764  11.5177836
 102.6192036  79.2742822  23.8304578 102.9279163  79.0291969  24.7027277
 103.4167518  79.4789461  23.3423448 102.6412648  81.4280732  16.0609954
 102.2017638  80.9357111  16.7542811 103.3920765  80.8853700  15.8202029
  95.1204987  77.6192273  16.0634582  95.9463007  77.3196045  15.6833226
  94.7699039  76.8499895  16.5124371 100.0886520  76.9718741  18.1332256
  99.4666530  76.3089446  17.8334484 100.7591387  76.9979873  17.4505904
  93.3213592  75.5378599  17.0223516  92.4845501  75.1100774  16.8407517
  93.2937238  75.7311043  17.9594307 100.1611048  65.4500529  27.7264762
 100.2099203  66.3262652  27.3442532 100.7033562  64.9077922  27.1536405
 110.6465893  75.9941652  27.0065899 109.8561437  75.9765791  26.4670398
 110.4099248  76.5329946  27.7614936 110.7663769  72.8434119  24.3198628
 110.8161773  72.6784126  25.2614150 110.6577692  71.9761378  23.9296508
  99.6500027  75.5222665  11.6090716  99.7988148  76.2058129  10.9557389
 100.4566471  75.5027755  12.1240172 108.0567531  68.8265047  25.6357934
 108.9577394  68.6871512  25.3441932 108.1315505  68.9919502  26.5756112
 102.3910336  66.2031902  24.4811121 101.5213646  66.4965468  24.2093709
 102.6269817  66.7872347  25.2018384 112.2681965  75.2631060  24.5640649
 111.9766774  75.6261041  25.4004110 111.6554097  74.5498069  24.3853981
 113.4677648  72.8283940  17.0843219 114.3024539  73.2673744  17.2480780
 113.6036776  72.3522593  16.2651465 110.5169154  70.3863675  23.0320707
 110.9923275  70.5791321  22.2239558 109.5934719  70.4422861  22.7864091
  97.4052660  71.5487842  12.6151785  97.1598702  70.6450172  12.8131995
  97.5748575  71.5504993  11.6731263 105.0949370  62.4211519  21.9976541
 105.6131314  63.1572545  21.6723030 104.7404503  62.7275512  22.8323300
  96.6748308  67.2816200  10.1137947  95.9817553  67.3560555   9.4577983
  96.4300060  66.5176543  10.6359464 105.3461964  58.8411801  17.5177438
 105.6263718  58.1734990  18.1437864 106.1312571  59.0340897  17.0052101
 103.1495433  78.0170795   9.0802464 102.5769400  78.6360982   8.6272936
 103.7228226  78.5670157   9.6142386 109.2170823  67.2629435  21.2649013
 110.1688246  67.3627533  21.2861237 109.0474273  66.4707704  21.7747097
 107.2385202  64.3485018  21.4508414 106.6435134  64.6290031  20.7554902
 106.9534899  64.8378919  22.2225155 106.3692693  78.3007945  10.2111046
 107.3023366  78.2353507  10.4143922 106.2815905  79.1364212   9.7525579
 108.9980709  77.6173815   7.1714994 108.9194341  77.2833679   8.0650752
 109.8190376  78.1095583   7.1706466 111.6958900  70.4835555  20.3791312
 111.6635220  69.5451556  20.5650996 112.3059524  70.5619591  19.6457137
 103.5342231  69.3531608   6.4218516 104.4801336  69.2237816   6.4906934
 103.1556476  68.6146270   6.8987945 111.8453389  67.2746598  20.4249596
 111.3292438  66.4905055  20.2379524 112.7293337  66.9465315  20.5896115
 109.5064116  61.0187614  16.3845408 109.3088937  60.7102702  17.2688740
 110.1163821  61.7449253  16.5143338 117.5135450  71.5451562  19.5197349
 118.2438839  71.2836850  20.0805052 116.9042396  70.8080284  19.5599417
 115.5950747  69.6859424  20.1171800 114.8683911  69.5515389  19.5088292
 115.1798034  69.9936253  20.9228518 103.4180924  73.4049354  27.8819173
 104.3383933  73.5827953  28.0759220 103.3830507  72.4605399  27.7298873
 101.7185148  67.2781584   6.3573402 100.8116604  66.9814697   6.4336115
 101.9961129  66.9811402   5.4907688  92.6363089  68.5987948  16.8072448
  92.3165873  67.7453256  16.5146822  92.0896517  68.8136526  17.5630415
  96.4142996  71.3150389  20.5241955  96.6329006  72.2467496  20.5429988
  96.8268770  70.9558363  21.3096758 103.3347214  61.8218474  12.5117643
 102.5247942  61.4765559  12.8872889 104.0231631  61.5126018  13.1005254
 105.2637762  60.8996521  14.1341940 105.8168801  61.3191974  14.7931963
 105.5007849  59.9732269  14.1764896 101.2870862  66.8883594  29.9144703
 101.1867589  67.8377951  29.8456795 101.0692404  66.5601833  29.0420774
 100.4883933  64.1368519   6.4985381 101.3503097  64.4623418   6.7581198
 100.6734277  63.3500015   5.9858447  92.5051349  72.2190859  18.7765570
  91.8114820  71.8044812  18.2635524  93.2524340  72.2611396  18.1798988
 108.6416570  63.0097046  13.6420604 108.0615239  63.6681850  13.2598656
 108.3752502  62.1874390  13.2308021 107.0920136  62.4102104  15.8441924
 107.5919914  62.5218638  15.0356243 107.7355744  62.1063156  16.4842733
 101.1502132  70.3180733  28.7309765 100.6669213  71.1181093  28.9373654
 101.2363071  70.3288678  27.7777209  94.4188091  72.1509113  16.6531584
  94.3958779  72.2496800  15.7013468  94.7288728  72.9974264  16.9748751
  97.0775469  74.2085268  20.7678199  98.0318723  74.1769210  20.7008130
  96.8787993  73.7475892  21.5828425  97.6674851  72.7786384  23.3348997
  98.4867740  73.2730463  23.3583834  97.9411659  71.8618352  23.3066564
 107.4241448  65.1697136  12.6976952 106.5367303  65.4546787  12.4797147
 107.8395437  65.0090900  11.8504229 110.7755984  65.1943657  16.4131291
 111.5516374  65.6840110  16.6855908 110.0504118  65.6201711  16.8703161
 113.2128542  65.9071276  17.4705232 113.8073033  65.6667012  16.7598540
 113.2855126  65.1878407  18.0978768  95.4325698  79.7504887  17.7848397
  95.2980166  78.9905288  17.2186395  95.0157760  80.4745787  17.3177186
 106.5684661  74.9341811   6.7924972 107.2720511  75.1391813   7.4082628
 105.8447310  75.5018573   7.0574056 107.3982471  70.6851672  12.9127242
 107.3417673  71.1420224  12.0734875 107.9510814  69.9242357  12.7350085
 111.2087277  66.4741404  13.7377362 110.9524211  66.0738040  14.5685569
 110.5840145  67.1885198  13.6127501 115.5199615  69.2137477  16.2448653
 114.9599173  69.2830667  17.0180215 114.9143118  69.0378462  15.5248149
  98.5894824  80.6474204  17.9966839  98.4727208  81.5919637  17.8945530
  97.7687270  80.3447766  18.3852639 108.4771358  75.3724340   8.8423432
 109.3116962  74.9405539   8.6600907 108.3155701  75.2006354   9.7700327
 108.1317251  71.8756453  10.2079771 108.0766054  71.7100725   9.2668216
 107.5063306  72.5832486  10.3641961 105.4463158  74.1805365  29.5333334
 106.3154317  74.3546018  29.1719969 104.9669909  74.9999782  29.4109064
 101.4413376  61.3764562   9.7865090 101.4292046  62.3206402   9.9433361
 102.3336798  61.1934708   9.4924551  99.6149338  81.3002466  21.2122768
 100.5176585  81.3326077  21.5289263  99.3886708  80.3702917  21.2269104
 101.3702940  80.0533453  17.8732846 100.4198571  80.0535314  17.7597219
 101.6735426  79.3066187  17.3568881 105.2565495  57.9707339  14.0411027
 104.4897891  57.4165826  14.1867709 105.6676200  58.0429208  14.9025178
  97.2607257  64.2592135  28.1316208  98.1238718  63.9028940  28.3419532
  96.6872667  63.9206030  28.8191612 117.1055633  85.8893991  18.9378609
 117.7434043  85.7700739  18.2341949 116.9876476  86.8374835  18.9966561
 113.9145340  85.8421419  18.8740134 113.5763851  85.7262484  17.9860668
 114.7835108  85.4412584  18.8541140 109.7732155  87.6956896  14.8637024
 109.2097021  87.6046833  14.0953312 109.6584551  86.8756800  15.3439517
 114.3965123  86.9956271  24.8326339 114.3853764  86.6009069  23.9606843
 114.5585762  86.2622344  25.4260111 107.3196587  89.1908087  17.7021245
 108.1117879  88.8498912  17.2867544 107.5593238  89.3003062  18.6223398
 111.1172384  89.7793383  23.7805523 110.8262250  90.6839014  23.6652189
 111.7529368  89.8209910  24.4949593 112.0428591  87.1570231  20.3706883
 112.6392163  86.9326254  19.6563846 112.1003562  86.4154977  20.9732331
 116.6596902  83.6145445  16.0131817 117.4459991  83.1964868  15.6622234
 116.9235606  84.5191537  16.1813465 122.0605329  83.5520678  16.9164795
 122.7930501  82.9819895  17.1502625 121.3044685  83.1642279  17.3571301
 113.6781449  85.9747920  14.1128138 113.3139656  85.4478541  14.8241059
 114.5348565  85.5846389  13.9394623 119.5830749  77.2642252  21.3759404
 119.2514074  78.1337663  21.1520619 118.9876363  76.9478536  22.0553434
 113.3186936  81.0037819   9.1089486 113.4861338  81.8718056   9.4759957
 113.1284105  81.1665101   8.1850776 116.0762269  89.4654798  20.7755317
 115.7762992  90.3679837  20.6671124 115.7313329  89.1986982  21.6276470
 109.5274750  85.9168595  16.8092021 108.6025247  85.7844809  17.0169713
 109.7759164  86.6962814  17.3061964 119.4759413  81.9837339  18.4552754
 118.5676290  81.9152747  18.1611515 119.4247009  82.4609283  19.2834580
 113.2976157  83.4595477  10.0936153 113.1775782  83.9052528  10.9321633
 112.6028745  83.8080795   9.5349691 106.8883562  85.5601869  17.6435810
 107.0175943  85.8136348  18.5575222 106.2081013  86.1529577  17.3240465
 113.5500279  83.4026984  26.3987651 112.7733613  83.9620904  26.3890516
 114.1890842  83.8883767  26.9202521 121.3421059  80.1853777  20.2330628
 120.6995439  80.4786310  19.5870423 120.8375988  80.0706697  21.0383825
 111.8046651  86.2112437  25.9605618 112.5461335  86.7497481  25.6840442
 111.0983636  86.8378726  26.1177170 117.2801991  88.3541578  24.5577780
 117.6885347  87.9123988  23.8132412 116.5579252  87.7794205  24.8111973
 113.6333061  83.2914185  21.9311337 114.4794256  83.7153598  22.0745986
 113.5731698  82.6347809  22.6249900 117.6030805  88.9142769  18.3130069
 116.9739668  89.0788483  17.6106137 117.2156467  89.3284378  19.0841033
 116.7832506  80.9518553  23.5892510 116.5393438  81.7060614  23.0526786
 117.0592436  81.3303901  24.4239757 118.7370969  87.4957165  22.2669776
 118.9487864  88.1388925  21.5904157 118.6900717  86.6619482  21.7991706
 116.3397198  80.1074986  19.1706348 115.4781677  80.4056240  19.4623086
 116.3659632  80.3245385  18.2387381 113.1558767  88.6517177  15.5780154
 113.6197113  88.9304880  14.7884776 112.8915565  87.7500621  15.3953244
 110.0482848  88.1988658  18.5159917 110.6184205  88.6275927  17.8777402
 110.6390960  87.9171243  19.2144103 112.0927653  84.7740329  12.3869719
 112.7951696  85.2261373  12.8543645 111.7608282  84.1324148  13.0149612
 110.5408015  83.3652086  26.7620928 109.9106675  84.0468366  26.9956325
 110.4344102  83.2535167  25.8174067 105.8352987  83.0323882  17.6886852
 105.0452041  83.2881410  17.2126963 106.3264234  83.8472220  17.7938893
 119.8516797  90.3729121  20.4392133 120.6734240  89.9709308  20.1574815
 119.8479199  90.2697355  21.3908249 107.7867732  83.3968461  14.6470329
 106.9898896  83.5087155  15.1653825 107.5593325  83.7355113  13.7811220
 113.6173400  89.9213164  22.5952844 113.6817833  90.3833571  23.4311016
 112.9084324  89.2910529  22.7235154 104.1190690  83.2854372  20.1201843
 104.3698728  84.1701382  20.3859419 104.6550238  83.1058974  19.3476935
 109.8188757  77.6672851  29.1246179 109.4255703  77.1139050  29.7993824
 110.6354898  77.9783430  29.5152697 106.7850815  89.1056710  13.0359749
 107.2975336  89.8999960  13.1865314 107.4373528  88.4083000  12.9693351
 108.5945700  92.2222466  15.1182502 108.7712328  93.1440431  14.9303486
 109.3902533  91.9080885  15.5476882 112.7356718  79.0830731  26.7166436
 113.4766432  79.6837884  26.6370898 112.9674641  78.3408368  26.1584478
 107.8798056  84.2687098  24.9944666 107.7651571  83.3672355  25.2951765
 107.0242574  84.5150795  24.6429482 114.9589894  92.2104838  26.5932166
 114.5153748  91.4241217  26.2753071 115.6207108  92.3983989  25.9276057
 109.7177015  93.7400640  21.1192845 110.2684440  93.6117703  20.3469839
 108.8788491  94.0395529  20.7687738 117.0571132  92.4907638  24.6213568
 117.0389608  93.3116519  24.1293837 117.9791052  92.3661713  24.8463709
 113.5144186  90.0051768  25.4637076 114.0472523  89.2440056  25.2336384
 112.9858267  89.7125419  26.2061230 116.6813881  75.1111834  20.9930718
 116.3378151  76.0013475  20.9169828 117.0492844  74.9213491  20.1300303
 104.7499732  87.4345364  13.8119320 105.5874954  87.8442372  13.5953027
 104.9278000  86.4944806  13.7819514 114.2311275  79.9470145  14.5588391
 113.3752871  79.5576996  14.3794030 114.6438227  80.0262106  13.6988177
 115.7610422  77.4816489  18.9579951 115.2575217  77.4446624  18.1447756
 116.0541029  78.3909231  19.0176608 112.0053308  77.5655218  17.9646133
 112.8706304  77.3698027  17.6052022 112.0730816  77.3365570  18.8915489
 116.4350467  82.9747537  11.3262934 116.1300603  83.2893686  12.1773077
 117.3880909  83.0528957  11.3690267 119.8589745  87.3286781  18.0922934
 119.2013419  88.0186042  18.1803063 120.6630144  87.7183212  18.4356921
 109.6115627  79.7957426  15.3362499 110.1859379  79.5732608  14.6035692
 110.1986609  79.8646121  16.0891101 118.6695204  85.6831153  16.1426876
 119.1827086  86.3161145  16.6448586 119.3196428  85.0832349  15.7770236
 109.9385214  81.8261887   9.3558385 109.1022526  82.1636574   9.6767659
 109.7989983  81.6910867   8.4185522 111.9138294  76.6698675  14.0637569
 111.2602707  76.3547692  13.4394184 111.8718768  76.0474416  14.7897392
 115.1476035  83.1580609  18.3885216 114.2298596  83.3795556  18.2306905
 115.5636178  83.2326919  17.5296924 115.9311082  84.5572024  13.5187897
 116.6782901  85.0693422  13.2095019 116.2002672  84.2356077  14.3792290
 118.3789920  81.5929141  15.5006686 117.6412676  81.0806527  15.8316929
 118.6316693  81.1529522  14.6889963 118.4801547  74.3705393  16.0948455
 118.7860424  73.5102756  15.8074370 119.2054152  74.9623013  15.8947449
 104.7725903  84.7736079  14.4830053 104.5750303  84.1805440  13.7581120
 104.2172567  84.4688289  15.2005992 112.7522627  84.6659186  16.6024646
 112.8071236  83.7133022  16.5267123 111.9413829  84.8218625  17.0865945
 110.6914987  83.2836246  14.3615025 109.8782852  83.5830416  14.7680217
 111.1873981  82.8891934  15.0789507 112.8423564  93.2794002  16.2949290
 112.7999743  93.5054849  15.3657822 113.7586263  93.0457377  16.4435091
 116.2889198  83.7478070  23.1929919 116.6438586  83.9749543  24.0524385
 116.9361329  84.0796447  22.5707174 110.1829061  80.8554601  19.9776260
 110.8228441  80.7143360  19.2799223 109.3506592  80.5689114  19.6014862
 122.0456315  88.9373033  18.9090520 122.4792821  88.8448322  19.7573574
 122.7587896  88.9130533  18.2710536 110.9589365  90.1557031  16.0911253
 111.7529964  89.6607352  15.8893828 110.2481058  89.6274895  15.7278958
 115.7784210  92.5375127  20.4423620 115.8321232  93.1066063  21.2101336
 114.9098991  92.7077012  20.0777657 107.2672129  84.3000113  12.1671005
 106.3369717  84.2384569  12.3840967 107.3629601  83.7776066  11.3707647
 107.1857678  80.8254926  14.7549247 107.4464495  81.7400259  14.6458407
 108.0074850  80.3579369  14.9045860 108.6582603  82.2392683  21.9248072
 109.3305657  82.0310045  21.2760720 107.8312390  82.0414769  21.4853304
 122.9071864  88.9796734  21.4423405 123.1007754  89.8842544  21.6882680
 122.8072483  88.5204153  22.2761990 114.5608175  78.8654624  23.9413732
 113.9136090  79.5644574  23.8478209 115.3309191  79.2990768  24.3089981
 117.9686973  89.1303476  27.0164286 117.8172479  88.9014028  26.0994369
 117.9591653  90.0874078  27.0295631 114.7372309  86.7035389  22.0010552
 115.6664369  86.8546549  21.8279519 114.3163339  86.7919410  21.1459199
 113.5360641  90.7286053  19.7709090 113.3971727  90.3604838  20.6435028
 112.7475237  91.2433693  19.5993048 115.0865856  90.1067656  17.1597928
 114.7515689  90.0668426  18.0555577 114.5869802  89.4412372  16.6868338
 109.0610100  85.5135286  22.6850509 108.9229898  84.7815525  23.2862048
 109.9715024  85.4244186  22.4034696 111.6892401  85.2255245  22.1734188
 112.3992020  84.5848438  22.1320807 111.6461709  85.4768140  23.0960369
 119.6779180  92.1622599  25.0940768 119.6191726  91.4781819  24.4271351
 120.0798698  92.9041589  24.6421394 110.4021335  82.2120463  23.9929828
 109.8658692  81.7611202  24.6451424 109.8138043  82.3466372  23.2500292
 108.6969879  98.9784513  17.8874486 108.9366477  99.6103037  18.5653505
 107.8539075  98.6272553  18.1739846 119.6796587  90.1262183  23.3254747
 118.7923366  89.7888105  23.4481146 120.2495138  89.3945214  23.5623513
 101.3325734  86.4586275  16.6497799 102.0196774  86.1448005  16.0618814
 101.1773863  87.3627639  16.3765050 106.1360456  81.3476471  21.0782822
 106.0518645  80.7402141  20.3433232 105.3143163  81.8385489  21.0792319
 113.2097740  94.7863635  20.2915990 113.1367912  95.5918607  20.8035295
 112.7675133  94.9855601  19.4664012 116.3084170  79.8330035  16.4453017
 116.8052870  79.0799997  16.1254088 115.5371152  79.8694351  15.8796227
 124.1613928  85.5370400  18.0871309 124.1503804  86.4195116  17.7165242
 123.2931307  85.1841951  17.8925846 115.6696424  94.6850469  22.4474149
 116.3824396  95.3197934  22.3750051 115.1786453  94.7814335  21.6314151
 117.3913951  88.5901722  14.0191441 116.4570230  88.7103184  13.8496145
 117.5690619  87.6874189  13.7551451 112.8919139  81.9747418  16.1724702
 112.5216926  81.4218458  16.8605608 113.3878231  81.3705551  15.6199702
 120.7786502  84.4319041  14.5541475 121.2446954  85.2647033  14.4801778
 121.2294003  83.9664023  15.2586733 110.7208337  92.4344913  23.2679720
 111.4217797  93.0681396  23.4209114 110.2503452  92.7759644  22.5075359
 118.7503165  76.7999628  18.5932376 117.8366245  77.0303855  18.7614583
 119.1796266  76.8838072  19.4446409 118.5209623  84.9889520  21.0932270
 117.8681074  85.2365428  20.4384723 118.8990003  84.1753658  20.7594748
 114.5697196  85.7309331  27.5798307 113.8937833  85.6303460  28.2500683
 115.3924830  85.5748545  28.0434305 106.3176055  91.9681268  20.2010823
 106.9029492  91.2224956  20.3338727 106.1200894  92.2785224  21.0847486
 109.1714711  95.0032515  15.2173265 108.5025086  95.4878643  14.7337305
 109.0327580  95.2501735  16.1316643 100.9093710  84.5386868  18.9215266
 100.9477810  84.0050459  19.7152384 100.4034003  84.0122073  18.3026243
 113.3119979  97.0376259  21.8155923 113.8638287  97.2007880  22.5805009
 113.6526173  97.6280696  21.1435948 108.2884473  79.3851408  22.4177808
 108.3525799  80.2466239  22.0055206 108.2251593  78.7725410  21.6850167
 107.7636745  81.4574541  26.0650842 108.3908784  81.0751618  26.6788367
 106.9064664  81.2388743  26.4306535 118.1630854  91.8637516  27.6704578
 118.7070758  92.4767474  27.1759533 117.5817698  92.4217094  28.1871591
 104.5402288  83.2650970  11.9969197 104.8355729  82.3561648  11.9436251
 103.6390324  83.2438709  11.6750199 116.4488367  94.9858234  18.8019605
 116.3239506  94.1847974  18.2930551 117.1067458  95.4804427  18.3133575
 108.0696535  81.3406967  17.9796746 107.3483121  81.9542934  17.8404219
 108.8589791  81.8764731  17.9013392 118.5123275  92.7867254  20.4299156
 117.5653610  92.6672605  20.3577482 118.8606048  91.8989752  20.5125417
 110.8722848  78.6761393  24.2537397 111.3957250  78.9223690  25.0163707
 110.6535182  79.5081428  23.8340535 106.2690129  80.9465068  12.1208522
 105.9402836  80.0662447  11.9383628 106.6229500  80.8912736  13.0084912
 115.5169708  92.5819970  16.6303508 115.3694671  91.6536678  16.8111078
 116.3423202  92.6040061  16.1460583 109.3831953  81.2338037  12.4884000
 109.7228025  81.7623959  11.7662608 109.8304073  81.5718444  13.2642566
 112.0775393  79.6175088  21.9387068 111.7372214  78.8182901  22.3407748
 111.3714400  79.9176799  21.3663901 112.7291865  76.7024401  20.3914391
 113.5517935  76.2284879  20.2693281 112.9729929  77.4814884  20.8913077
 111.3700100  79.7312659  10.6877293 112.0908462  80.1093912  10.1841010
 110.7465404  80.4501536  10.7912271 115.5131223  80.4357808  11.6235625
 115.7294837  81.3182446  11.3224453 115.0325290  80.0444021  10.8941267
 110.2530444  83.3943521  18.2006370 110.1075025  83.7083824  19.0930651
 109.7755648  84.0128422  17.6477268 112.1126827  80.3846069  18.2487259
 112.0988396  79.4887163  17.9119557 112.8299255  80.3916733  18.8825545
 113.9652958  80.8183409  20.2940387 113.7070735  81.7400480  20.2924717
 113.4337998  80.4213844  20.9840851 104.7276106  85.9348866  21.1394031
 104.1829574  86.7108674  21.2714305 105.6055456  86.2819670  20.9813152
 111.5163723  79.2660450  13.5174829 111.6379634  78.3377096  13.7165717
 111.2265765  79.2799136  12.6053145 114.3854913  76.9515360  16.6541549
 114.4076610  77.0154693  15.6993529 114.8022972  76.1119869  16.8482055
 105.5142128  85.0618762  24.0324188 104.7723864  85.2101397  24.6188818
 105.1934872  85.3227028  23.1690937 113.4585791  94.6034740  23.8304578
 113.7672917  94.3583887  24.7027277 114.2561273  94.8081379  23.3423448
 105.9598742  92.9484191  16.0634582 106.7856762  92.6487963  15.6833226
 105.6092794  92.1791813  16.5124371 110.9280275  92.3010659  18.1332256
 110.3060284  91.6381364  17.8334484 111.5985142  92.3271791  17.4505904
 104.1607347  90.8670517  17.0223516 103.3239255  90.4392691  16.8407517
 104.1330992  91.0602960  17.9594307 111.0004802  80.7792447  27.7264762
 111.0492958  81.6554570  27.3442532 111.5427317  80.2369840  27.1536405
 121.4859648  91.3233570  27.0065899 120.6955192  91.3057709  26.4670398
 121.2493003  91.8621864  27.7614936 121.6057523  88.1726037  24.3198628
 121.6555528  88.0076044  25.2614150 121.4971446  87.3053296  23.9296508
 118.8961285  84.1556965  25.6357934 119.7971148  84.0163429  25.3441932
 118.9709260  84.3211419  26.5756112 113.2304091  81.5323819  24.4811121
 112.3607400  81.8257385  24.2093709 113.4663571  82.1164264  25.2018384
 123.1075720  90.5922978  24.5640649 122.8160528  90.9552959  25.4004110
 122.4947851  89.8789986  24.3853981 124.3071402  88.1575858  17.0843219
 125.1418294  88.5965662  17.2480780 124.4430531  87.6814511  16.2651465
 121.3562908  85.7155593  23.0320707 121.8317030  85.9083239  22.2239558
 120.4328473  85.7714778  22.7864091 108.2446415  86.8779760  12.6151785
 107.9992457  85.9742090  12.8131995 108.4142329  86.8796910  11.6731263
 115.9343125  77.7503436  21.9976541 116.4525068  78.4864463  21.6723030
 115.5798257  78.0567430  22.8323300 107.5142062  82.6108117  10.1137947
 106.8211307  82.6852472   9.4577983 107.2693814  81.8468461  10.6359464
 116.1855719  74.1703719  17.5177438 116.4657473  73.5026908  18.1437864
 116.9706326  74.3632814  17.0052101 120.0564577  82.5921353  21.2649013
 121.0082000  82.6919450  21.2861237 119.8868028  81.7999621  21.7747097
 118.0778957  79.6776936  21.4508414 117.4828889  79.9581949  20.7554902
 117.7928653  80.1670837  22.2225155 122.5352655  85.8127472  20.3791312
 122.5028975  84.8743473  20.5650996 123.1453279  85.8911509  19.6457137
 122.6847143  82.6038516  20.4249596 122.1686192  81.8196973  20.2379524
 123.5687092  82.2757232  20.5896115 120.3457870  76.3479531  16.3845408
 120.1482691  76.0394620  17.2688740 120.9557576  77.0741170  16.5143338
 128.3529205  86.8743479  19.5197349 129.0832593  86.6128767  20.0805052
 127.7436150  86.1372201  19.5599417 126.4344502  85.0151342  20.1171800
 125.7077665  84.8807307  19.5088292 126.0191789  85.3228170  20.9228518
 114.2574678  88.7341272  27.8819173 115.1777688  88.9119871  28.0759220
 114.2224261  87.7897317  27.7298873 103.4756843  83.9279865  16.8072448
 103.1559628  83.0745173  16.5146822 102.9290271  84.1428443  17.5630415
 107.2536751  86.6442306  20.5241955 107.4722761  87.5759414  20.5429988
 107.6662525  86.2850281  21.3096758 114.1740969  77.1510392  12.5117643
 113.3641697  76.8057476  12.8872889 114.8625386  76.8417935  13.1005254
 116.1031517  76.2288438  14.1341940 116.6562556  76.6483892  14.7931963
 116.3401603  75.3024186  14.1764896 112.1264616  82.2175512  29.9144703
 112.0261343  83.1669869  29.8456795 111.9086158  81.8893751  29.0420774
 111.3277688  79.4660437   6.4985381 112.1896852  79.7915335   6.7581198
 111.5128032  78.6791933   5.9858447 103.3445103  87.5482777  18.7765570
 102.6508575  87.1336730  18.2635524 104.0918094  87.5903313  18.1798988
 119.4810324  78.3388963  13.6420604 118.9008993  78.9973768  13.2598656
 119.2146257  77.5166308  13.2308021 117.9313890  77.7394021  15.8441924
 118.4313669  77.8510556  15.0356243 118.5749498  77.4355074  16.4842733
 111.9895886  85.6472651  28.7309765 111.5062968  86.4473011  28.9373654
 112.0756825  85.6580596  27.7777209 105.2581846  87.4801030  16.6531584
 105.2352534  87.5788718  15.7013468 105.5682482  88.3266181  16.9748751
 107.9169224  89.5377186  20.7678199 108.8712477  89.5061128  20.7008130
 107.7181747  89.0767809  21.5828425 108.5068606  88.1078302  23.3348997
 109.3261495  88.6022380  23.3583834 108.7805414  87.1910270  23.3066564
 118.2635202  80.4989054  12.6976952 117.3761057  80.7838704  12.4797147
 118.6789191  80.3382817  11.8504229 121.6149738  80.5235575  16.4131291
 122.3910128  81.0132027  16.6855908 120.8897872  80.9493629  16.8703161
 124.0522297  81.2363194  17.4705232 124.6466788  80.9958930  16.7598540
 124.1248880  80.5170325  18.0978768 106.2719452  95.0796805  17.7848397
 106.1373920  94.3197206  17.2186395 105.8551515  95.8037705  17.3177186
 122.0481032  81.8033322  13.7377362 121.7917966  81.4029957  14.5685569
 121.4233900  82.5177116  13.6127501 126.3593370  84.5429395  16.2448653
 125.7992928  84.6122584  17.0180215 125.7536873  84.3670380  15.5248149
 109.4288578  95.9766122  17.9966839 109.3120962  96.9211555  17.8945530
 108.6081025  95.6739684  18.3852639 103.7603520  82.4416435  24.0341194
 104.4062384  81.9315389  24.5228419 103.5520671  83.1785117  24.6084619
 116.2856912  89.5097283  29.5333334 117.1548072  89.6837935  29.1719969
 115.8063664  90.3291700  29.4109064 112.2807131  76.7056480   9.7865090
 112.2685800  77.6498320   9.9433361 113.1730552  76.5226625   9.4924551
 110.4543092  96.6294384  21.2122768 111.3570339  96.6617994  21.5289263
 110.2280463  95.6994835  21.2269104 112.2096694  95.3825370  17.8732846
 111.2592326  95.3827232  17.7597219 112.5129181  94.6358105  17.3568881
 116.0959250  73.2999257  14.0411027 115.3291646  72.7457743  14.1867709
 116.5069955  73.3721125  14.9025178 108.1001011  79.5884053  28.1316208
 108.9632473  79.2320857  28.3419532 107.5266422  79.2497947  28.8191612
 124.3894033  98.7318902  26.3987651 123.6127367  99.2912822  26.3890516
 125.0284596  99.2175685  26.9202521 122.6440405 101.5404355  25.9605618
 123.3855090 102.0789399  25.6840442 121.9377391 102.1670644  26.1177170
 127.6226260  96.2810471  23.5892510 127.3787192  97.0352531  23.0526786
 127.8986191  96.6595818  24.4239757 121.3801769  98.6944003  26.7620928
 120.7500430  99.3760284  26.9956325 121.2737857  98.5827085  25.8174067
 114.9584445  98.6146290  20.1201843 115.2092483  99.4993300  20.3859419
 115.4943993  98.4350891  19.3476935 120.6582512  92.9964769  29.1246179
 120.2649457  92.4430968  29.7993824 121.4748652  93.3075348  29.5152697
 123.5750473  94.4122648  26.7166436 124.3160186  95.0129801  26.6370898
 123.8068396  93.6700286  26.1584478 118.7191811  99.5979016  24.9944666
 118.6045326  98.6964273  25.2951765 117.8636329  99.8442712  24.6429482
 127.5207636  90.4403751  20.9930718 127.1771905  91.3305393  20.9169828
 127.8886598  90.2505409  20.1300303 119.4976358  97.5684601  21.9248072
 120.1699411  97.3601963  21.2760720 118.6706144  97.3706687  21.4853304
 125.4001930  94.1946542  23.9413732 124.7529845  94.8936491  23.8478209
 126.1702945  94.6282686  24.3089981 119.9003855 100.8427204  22.6850509
 119.7623653 100.1107443  23.2862048 120.8108778 100.7536104  22.4034696
 121.2415089  97.5412381  23.9929828 120.7052447  97.0903120  24.6451424
 120.6531798  97.6758290  23.2500292 116.9754211  96.6768389  21.0782822
 116.8912399  96.0694058  20.3433232 116.1536917  97.1677407  21.0792319
 125.4090951 101.0601249  27.5798307 124.7331588 100.9595378  28.2500683
 126.2318585 100.9040463  28.0434305 111.7487465  99.8678786  18.9215266
 111.7871564  99.3342376  19.7152384 111.2427758  99.3413991  18.3026243
 119.1278227  94.7143326  22.4177808 119.1919553  95.5758157  22.0055206
 119.0645347  94.1017328  21.6850167 118.6030500  96.7866459  26.0650842
 119.2302538  96.4043536  26.6788367 117.7458418  96.5680661  26.4306535
 121.7116603  94.0053311  24.2537397 122.2351005  94.2515607  25.0163707
 121.4928936  94.8373346  23.8340535 122.9169148  94.9467006  21.9387068
 122.5765968  94.1474819  22.3407748 122.2108154  95.2468717  21.3663901
 123.5685620  92.0316318  20.3914391 124.3911689  91.5576796  20.2693281
 123.8123683  92.8106802  20.8913077 115.5669861 101.2640783  21.1394031
 115.0223329 102.0400591  21.2714305 116.4449210 101.6111588  20.9813152
 116.3535882 100.3910680  24.0324188 115.6117618 100.5393315  24.6188818
 116.0328627 100.6518945  23.1690937 121.8398557  96.1084365  27.7264762
 121.8886712  96.9846487  27.3442532 122.3821071  95.5661758  27.1536405
 124.0697845  96.8615737  24.4811121 123.2001155  97.1549303  24.2093709
 124.3057326  97.4456182  25.2018384 126.7736879  93.0795354  21.9976541
 127.2918823  93.8156381  21.6723030 126.4192012  93.3859347  22.8323300
 125.0968433 104.0633189  27.8819173 126.0171442 104.2411788  28.0759220
 125.0618016 103.1189235  27.7298873 122.9658371  97.5467430  29.9144703
 122.8655098  98.4961787  29.8456795 122.7479913  97.2185669  29.0420774
 122.8289641 100.9764568  28.7309765 122.3456722 101.7764929  28.9373654
 122.9150580 100.9872513  27.7777209 114.5997275  97.7708353  24.0341194
 115.2456138  97.2607307  24.5228419 114.3914426  98.5077035  24.6084619
 127.1250667 104.8389201  29.5333334 127.9941826 105.0129853  29.1719969
 126.6457418 105.6583617  29.4109064 118.9394766  94.9175970  28.1316208
 119.8026227  94.5612775  28.3419532 118.3660176  94.5789865  28.8191612
  81.8783861  18.0142641  11.5571646  81.8672501  17.6195439  10.6852149
  82.0404500  17.2808713  12.1505417  78.5991122  20.7979752  10.5050830
  78.3080988  21.7025383  10.3897496  79.2348106  20.8396280  11.2194899
  81.0319016  14.4213354  13.1232958  80.2552350  14.9807274  13.1135823
  81.6709579  14.9070137  13.6447828  79.2865389  17.2298807  12.6850925
  80.0280073  17.7683851  12.4085749  78.5802374  17.8565096  12.8422477
  84.7620728  19.3727947  11.2823086  85.1704084  18.9310358  10.5377719
  84.0397990  18.7980575  11.5357279  87.3335534  21.3915490   7.1637440
  88.1552978  20.9895678   6.8820122  87.3297937  21.2883725   8.1153556
  82.4408632  23.2291208  13.3177473  81.9972486  22.4427586  12.9998377
  83.1025845  23.4170358  12.6521364  84.5389870  23.5094008  11.3458874
  84.5208345  24.3302889  10.8539143  85.4609790  23.3848083  11.5709015
  80.9962924  21.0238137  12.1882382  81.5291261  20.2626425  11.9581690
  80.4677005  20.7311789  12.9306537  90.3890602  19.9983103   8.1668712
  90.5826492  20.9028914   8.4127987  90.2891220  19.5390522   9.0007297
  85.4505711  20.1489846  13.7409592  85.2991217  19.9200398  12.8239676
  85.4410390  21.1060447  13.7540937  87.1597917  23.1808968  11.8186074
  87.1010464  22.4968189  11.1516657  87.5617436  23.9227958  11.3666700
  87.1615325  21.1448552  10.0500054  86.2742104  20.8074474  10.1726453
  87.7313876  20.4131584  10.2868819  83.1515162  25.7036839   9.1719456
  83.8643134  26.3384304   9.0995357  82.6605190  25.8000705   8.3559458
  78.2027075  23.4531282   9.9925027  78.9036535  24.0867765  10.1454421
  77.7322190  23.7946014   9.2320666  82.0515934  16.7495701  14.3043614
  81.3756571  16.6489830  14.9745989  82.8743568  16.5934914  14.7679611
  80.7938717  28.0562628   8.5401230  81.3457025  28.2194250   9.3050315
  81.1344911  28.6467066   7.8681255  85.6449591  22.8823886  14.3949884
  86.1889495  23.4953844  13.9004839  85.0636436  23.4403464  14.9116897
  85.9942013  23.8053624   7.1544462  85.0472348  23.6858975   7.0822789
  86.3424786  22.9176122   7.2370724  80.9404528  25.6221110  10.5549884
  81.2491655  25.3770256  11.4272584  81.7380010  25.8267748  10.0668755
  88.9678386  22.3419940  13.7311206  88.1773929  22.3244079  13.1915705
  88.7311740  22.8808233  14.4860242  89.0876261  19.1912406  11.0443934
  89.1374266  19.0262414  11.9859457  88.9790184  18.3239665  10.6541815
  86.3780023  15.1743334  12.3603241  87.2789886  15.0349799  12.0687239
  86.4527998  15.3397789  13.3001418  90.5894458  21.6109348  11.2885956
  90.2979266  21.9739328  12.1249417  89.9766589  20.8976356  11.1099288
  88.8381646  16.7341962   9.7566014  89.3135767  16.9269609   8.9484865
  87.9147211  16.7901148   9.5109397  81.7393416  19.7527641  14.6064480
  82.6596426  19.9306240  14.8004527  81.7042999  18.8083686  14.4544179
  79.6083354  13.2361882  16.6390010  79.5080081  14.1856238  16.5702101
  79.3904896  12.9080120  15.7666080  79.4714624  16.6659020  15.4555072
  78.9881706  17.4659380  15.6618961  79.5575563  16.6766965  14.5022516
  83.7675650  20.5283652  16.2578641  84.6366810  20.7024305  15.8965276
  83.2882402  21.3478069  16.1354370  77.9361830  27.6480753   7.9368074
  78.8389077  27.6804364   8.2534569  77.7099200  26.7181204   7.9514410
  95.4268126  32.2372278   5.6623915  96.0646536  32.1179026   4.9587256
  95.3088969  33.1853122   5.7211868  92.2357832  32.1899707   5.5985440
  91.8976344  32.0740771   4.7105975  93.1047600  31.7890872   5.5786446
  88.0944648  34.0435183   1.5882331  87.5309513  33.9525120   0.8198619
  87.9797043  33.2235087   2.0684824  92.7177615  33.3434558  11.5571646
  92.7066256  32.9487357  10.6852149  92.8798255  32.6100631  12.1505417
  85.6409080  35.5386375   4.4266552  86.4330372  35.1977199   4.0112851
  85.8805730  35.6481350   5.3468705  93.6744206  37.7106151  -3.1003204
  93.0232186  38.2960231  -3.4869190  94.4688569  38.2412346  -3.0408167
  89.4384876  36.1271670  10.5050830  89.1474742  37.0317301  10.3897496
  90.0741861  36.1688198  11.2194899  90.3641083  33.5048519   7.0952189
  90.9604655  33.2804541   6.3809152  90.4216055  32.7633264   7.6977637
  94.9809394  29.9623732   2.7377124  95.7672483  29.5443155   2.3867541
  95.2448099  30.8669824   2.9058772  95.1519472  35.3996583  -2.5634220
  94.5165305  35.4731209  -1.8513315  94.8216878  35.9890181  -3.2415140
  91.9993941  32.3226207   0.8373444  91.6352148  31.7956828   1.5486366
  92.8561057  31.9324676   0.6639930  97.9043242  23.6120540   8.1004711
  97.5726567  24.4815951   7.8765926  97.3088855  23.2956824   8.7798741
  94.3974761  35.8133086   7.5000623  94.0975484  36.7158124   7.3916431
  94.0525821  35.5465269   8.3521776  87.8487243  32.2646882   3.5337328
  86.9237739  32.1323097   3.7415020  88.0971656  33.0441102   4.0307270
  97.7971905  28.3315626   5.1798061  96.8888782  28.2631034   4.8856822
  97.7459501  28.8087571   6.0079886  85.2096054  31.9080156   4.3681117
  85.3388435  32.1614635   5.2820529  84.5293505  32.5007864   4.0485772
  89.3795541  42.5777406   0.4671591  89.3019571  43.5285231   0.5460072
  88.7757185  42.2323278   1.1246517  91.8712771  29.7505271  13.1232958
  91.0946105  30.3099191  13.1135823  92.5103334  30.2362054  13.6447828
  99.6633551  26.5332064   6.9575935  99.0207932  26.8264597   6.3115729
  99.1588480  26.4184984   7.7629131  90.1259143  32.5590725  12.6850925
  90.8673828  33.0975769  12.4085749  89.4196129  33.1857013  12.8422477
  95.6014483  34.7019865  11.2823086  96.0097839  34.2602276  10.5377719
  94.8791744  34.1272493  11.5357279  91.9545553  29.6392472   8.6556643
  92.8006748  30.0631885   8.7991292  91.8944191  28.9826096   9.3495207
  95.9243297  35.2621056   5.0375375  95.2952160  35.4266770   4.3351443
  95.5368960  35.6762665   5.8086339  99.8032529  36.1975494   2.3919739
  99.1183567  36.5774395   1.8416772  99.8876379  36.8070820   3.1251687
  95.1044998  27.2996840  10.3137817  94.8605930  28.0538901   9.7772093
  95.3804929  27.6782188  11.1485064  97.0583461  33.8435453   8.9915083
  97.2700356  34.4867213   8.3149464  97.0113209  33.0097769   8.5237013
  94.6609690  26.4553273   5.8951655  93.7994169  26.7534527   6.1868392
  94.6872125  26.6723672   4.9632687  91.4771259  34.9995464   2.3025460
  91.9409605  35.2783167   1.5130083  91.2128057  34.0978908   2.1198551
  88.3695340  34.5466945   5.2405224  88.9396697  34.9754214   4.6022708
  88.9603452  34.2649530   5.9389409  88.8620507  29.7130373  13.4866235
  88.2319167  30.3946654  13.7201632  88.7556595  29.6013454  12.5419373
  84.1565479  29.3802169   4.4132159  83.3664533  29.6359697   3.9372270
  84.6476727  30.1950507   4.5184200  98.1729289  36.7207408   7.1637440
  98.9946733  36.3187595   6.8820122  98.1691692  36.6175642   8.1153556
  91.9385892  36.2691451   9.3198150  92.0030325  36.7311859  10.1556322
  91.2296816  35.6388816   9.4480460  82.4403182  29.6332659   6.8447150
  82.6911221  30.5179669   7.1104726  82.9762731  29.4537261   6.0722242
  91.6533910  37.9359559  -0.8122869  91.5179585  38.7811095  -0.3838021
  92.1943722  38.1378837  -1.5756935  88.1401250  24.0151139  15.8491486
  87.7468195  23.4617337  16.5239130  88.9567390  24.3261717  16.2398004
  85.1063307  35.4534997  -0.2394944  85.6187828  36.2478247  -0.0889379
  85.7586020  34.7561287  -0.3061343  86.9158192  38.5700753   1.8427809
  87.0924820  39.4918718   1.6548793  87.7115026  38.2559172   2.2722189
  91.0569211  25.4309018  13.4411743  91.7978924  26.0316171  13.3616205
  91.2887133  24.6886656  12.8829785  86.2010549  30.6165385  11.7189972
  86.0864064  29.7150642  12.0197071  85.3455066  30.8629082  11.3674789
  93.2802386  38.5583125  13.3177473  92.8366241  37.7719504  12.9998377
  93.9419600  38.7462276  12.6521364  88.0389508  40.0878927   7.8438151
  88.5896933  39.9595990   7.0715145  87.2000983  40.3873816   7.4933044
  95.3783624  38.8385925  11.3458874  95.3602100  39.6594806  10.8539143
  96.3003544  38.7140001  11.5709015  91.8356679  36.3530055  12.1882382
  92.3685015  35.5918343  11.9581690  91.3070760  36.0603707  12.9306537
  95.0026374  21.4590121   7.7176024  94.6590643  22.3491762   7.6415135
  95.3705336  21.2691778   6.8545609  94.0822914  23.8294776   5.6825257
  93.5787710  23.7924911   4.8693063  94.3753521  24.7387519   5.7421914
  90.3265800  23.9133506   4.6891439  91.1918797  23.7176314   4.3297329
  90.3943309  23.6843857   5.6160796  93.2009391  35.4816047  -0.2998805
  92.6730753  34.7468807  -0.6125568  92.6996894  36.2590724  -0.5458837
  98.1802237  33.6765068   4.8168241  97.5225912  34.3664329   4.9048369
  98.9842637  34.0661500   5.1602227  96.9907696  32.0309440   2.8672183
  97.5039578  32.6639432   3.3693892  97.6408920  31.4310636   2.5015543
  94.2530070  42.0093765  -4.3767146  93.5791769  42.3125461  -3.7682188
  94.6395892  42.8122845  -4.7261689  93.4688527  29.5058896   5.1130523
  92.5511088  29.7273843   4.9552211  93.8848671  29.5805206   4.2542230
  94.2523575  30.9050312   0.2433203  94.9995394  31.4171709  -0.0659675
  94.5215164  30.5834364   1.1037597  97.7569492  37.0115442   0.9951325
  97.3031819  36.1706352   1.0516516  97.1263459  37.6476840   1.3326105
  96.2002432  38.8491939   1.9301143  96.4925406  39.4096996   1.2113509
  96.7101052  39.1420500   2.6854302  91.0735119  31.0137473   3.3269953
  91.1283729  30.0611309   3.2512430  90.2626321  31.1696912   3.8111251
  89.0127479  29.6314533   1.0860332  88.1995344  29.9308703   1.4925524
  89.5086473  29.2370222   1.8034814  91.1636057  39.6272290   3.0194597
  91.1212236  39.8533136   2.0903129  92.0798756  39.3935664   3.1680398
  94.6101691  30.0956357   9.9175226  94.9651078  30.3227830  10.7769692
  95.2573822  30.4274734   9.2952481  88.5041554  27.2032888   6.7021567
  89.1440933  27.0621647   6.0044530  87.6719084  26.9167402   6.3260169
 100.3668807  35.2851320   5.6335826 100.8005314  35.1926609   6.4818880
 101.0800388  35.2608821   4.9955842  89.2801858  36.5035319   2.8156559
  90.0742456  36.0085639   2.6139134  88.5693550  35.9753182   2.4524265
  94.0996702  38.8853414   7.1668927  94.1533724  39.4544351   7.9346643
  93.2311483  39.0555299   6.8022964  86.9795095  28.5870970   8.6493378
  87.6518149  28.3788333   8.0006027  86.1524882  28.3893056   8.2098610
 101.2284357  35.3275021   8.1668712 101.4220247  36.2320831   8.4127987
 101.1284975  34.8682440   9.0007297  92.8820667  25.2132911  10.6659039
  92.2348582  25.9122861  10.5723515  93.6521683  25.6469055  11.0335287
  96.2899465  35.4781764  13.7409592  96.1384972  35.2492315  12.8239676
  96.2804145  36.4352365  13.7540937  93.0584802  33.0513676   8.7255859
  93.9876862  33.2024836   8.5524826  92.6375832  33.1397697   7.8704505
  91.8573134  37.0764341   6.4954396  91.7184219  36.7083125   7.3680334
  91.0687730  37.5911980   6.3238354  92.4521285  42.1773437  -2.1620067
  92.6273041  41.7061480  -1.3474444  91.7654074  42.8039203  -1.9338806
  93.4078349  36.4545943   3.8843234  93.0728181  36.4146713   4.7800884
  92.9082294  35.7890659   3.4113644  87.3822593  31.8613573   9.4095815
  87.2442391  31.1293812  10.0107354  88.2927516  31.7722474   9.1280003
  90.0104893  31.5733533   8.8979495  90.7204512  30.9326725   8.8566113
  89.9674201  31.8246428   9.8205676  97.9991672  38.5100886  11.8186074
  97.9404218  37.8260106  11.1516657  98.4011190  39.2519876  11.3666700
  88.7233827  28.5598751  10.7175134  88.1871184  28.1089489  11.3696731
  88.1350536  28.6944659   9.9745599  87.0182371  45.3262800   4.6119793
  87.2578969  45.9581324   5.2898812  86.1751567  44.9750840   4.8985152
  98.0009079  36.4740470  10.0500054  97.1135858  36.1366392  10.1726453
  98.5707630  35.7423501  10.2868819  79.6538226  32.8064562   3.3743105
  80.3409266  32.4926292   2.7864121  79.4986355  33.7105926   3.1010357
  84.4572949  27.6954758   7.8028129  84.3731137  27.0880428   7.0678539
  83.6355655  28.1863777   7.8037625  91.5310233  41.1341922   7.0161297
  91.4580404  41.9396894   7.5280602  91.0887626  41.3333888   6.1909318
  91.3200012  40.3713692   0.5264119  90.5367534  40.9135373   0.6202343
  92.0192757  40.8887672   0.9258360  94.6296662  26.1808322   3.1698324
  95.1265362  25.4278284   2.8499394  93.8583644  26.2172639   2.6041533
 102.4826420  31.8848687   4.8116615 102.4716296  32.7673403   4.4410549
 101.6143799  31.5320238   4.6171153  93.9908916  41.0328756   9.1719456
  94.7036888  41.6676221   9.0995357  93.4998945  41.1292622   8.3559458
  95.7126443  34.9380009   0.7436747  94.7782722  35.0581472   0.5741452
  95.8903112  34.0352476   0.4796757  91.2131631  28.3225705   2.8970009
  90.8429419  27.7696745   3.5850914  91.7090724  27.7183838   2.3445009
  89.0420830  38.7823200   9.9925027  89.7430289  39.4159683  10.1454421
  88.5715945  39.1237931   9.2320666  97.1675226  37.1241150  -1.7227066
  97.4435069  37.0097744  -0.8133192  96.2979724  36.7258634  -1.7614893
  97.0715657  23.1477915   5.3177683  96.1578737  23.3782142   5.4859890
  97.5008759  23.2316359   6.1691715  96.8422116  31.3367807   7.8177577
  96.1893566  31.5843715   7.1630030  97.2202496  30.5231945   7.4840054
  93.8029290  41.3727500   1.9205747  93.9851684  40.5549156   2.3833500
  94.6262276  41.5895193   1.4830637  94.1371455  40.2995686  -0.8179204
  94.6659221  39.7888140  -1.4309042  94.3999675  39.9838216   0.0466329
  92.8909689  32.0787618  14.3043614  92.2150326  31.9781748  14.9745989
  93.7137323  31.9226832  14.7679611  84.6388548  38.3159555   6.9256129
  85.2241985  37.5703243   7.0584033  84.4413386  38.6263512   7.8092793
  87.4927203  41.3510802   1.9418572  86.8237578  41.8356930   1.4582612
  87.3540073  41.5980023   2.8561950  79.2306202  30.8865155   5.6460572
  79.2690302  30.3528746   6.4397690  78.7246495  30.3600361   5.0271550
  91.6332472  43.3854546   8.5401230  92.1850780  43.5486167   9.3050315
  91.9738665  43.9758984   7.8681255  86.6096965  25.7329696   9.1423115
  86.6738291  26.5944527   8.7300512  86.5464085  25.1203697   8.4095473
  86.0849237  27.8052828  12.7896149  86.7121276  27.4229905  13.4033673
  85.2277156  27.5867030  13.1551841  96.4843346  38.2115803  14.3949884
  97.0283250  38.8245762  13.9004839  95.9030191  38.7695382  14.9116897
  94.7700859  41.3336521   5.5264912  94.6451998  40.5326261   5.0175858
  95.4279950  41.8282715   5.0378882  86.3909027  27.6885254   4.7042052
  85.6695613  28.3021222   4.5649526  87.1802283  28.2243019   4.6258698
  96.8335767  39.1345541   7.1544462  95.8866103  39.0150893   7.0822789
  97.1818540  38.2468039   7.2370724  89.1935341  25.0239680  10.9782704
  89.7169742  25.2701977  11.7409013  88.9747674  25.8559715  10.5585841
  93.8382201  38.9298258   3.3548814  93.6907163  38.0014965   3.5356384
  94.6635694  38.9518348   2.8705890  97.4416322  39.7526816   4.4413687
  98.3662870  39.5469678   4.3038138  97.2731626  39.5043218   5.3503029
  90.3987886  25.9653375   8.6632375  90.0584706  25.1661189   9.0653055
  89.6926892  26.2655086   8.0909208  91.0504357  23.0502688   7.1159698
  91.8730427  22.5763166   6.9938588  91.2942421  23.8293172   7.6158384
  88.5742936  29.7421809   4.9251676  88.4287517  30.0562112   5.8175958
  88.0968140  30.3606709   4.3722575  90.4339319  26.7324357   4.9732566
  90.4200888  25.8365450   4.6364864  91.1511747  26.7395020   5.6070852
  92.2865450  27.1661697   7.0185693  92.0283228  28.0878767   7.0170024
  91.7550490  26.7692131   7.7086157  97.2311639  40.2712484  -0.2024221
  97.4048516  39.7058906  -0.9550369  97.7240530  41.0713379  -0.3844731
  83.0488598  32.2827153   7.8639337  82.5042066  33.0586961   7.9959612
  83.9267948  32.6297957   7.7058459  98.2186811  39.5879248  -3.1027323
  98.9137716  40.2085941  -2.8840008  98.5609961  38.7374599  -2.8274945
  83.8354620  31.4097049  10.7569494  83.0936356  31.5579685  11.3434125
  83.5147365  31.6705315   9.8936244  91.7798283  40.9513027  10.5549884
  92.0885409  40.7062174  11.4272584  92.5773765  41.1559666  10.0668755
  91.8018895  43.1050937   2.7855261  91.3623885  42.6127316   3.4788118
  92.5527012  42.5623905   2.5447336  84.2811234  39.2962478   2.7879889
  85.1069254  38.9966250   2.4078532  83.9305286  38.5270100   3.2369678
  89.2492767  38.6488946   4.8577563  88.6272776  37.9859651   4.5579790
  89.9197634  38.6750078   4.1751210  82.4819839  37.2148804   3.7468823
  81.6451747  36.7870979   3.5652824  82.4543484  37.4081248   4.6839614
  89.3217295  27.1270734  14.4510069  89.3705450  28.0032857  14.0687838
  89.8639809  26.5848127  13.8781712  99.8072140  37.6711857  13.7311206
  99.0167684  37.6535996  13.1915705  99.5705495  38.2100151  14.4860242
  99.9270015  34.5204324  11.0443934  99.9768020  34.3554331  11.9859457
  99.8183939  33.6531583  10.6541815  88.8106274  37.1992869  -1.6663977
  88.9594394  37.8828334  -2.3197304  89.6172717  37.1797960  -1.1514521
  97.2173778  30.5035252  12.3603241  98.1183640  30.3641717  12.0687239
  97.2921752  30.6689707  13.3001418  91.5516583  27.8802107  11.2056427
  90.6819892  28.1735673  10.9339016  91.7876063  28.4642552  11.9263691
 101.4288212  36.9401265  11.2885956 101.1373020  37.3031246  12.1249417
 100.8160343  36.2268274  11.1099288  99.6775400  32.0633880   9.7566014
 100.1529522  32.2561526   8.9484865  98.7540966  32.1193066   9.5109397
  94.2555617  24.0981723   8.7221848  94.7737561  24.8342750   8.3968336
  93.9010750  24.4045717   9.5568607  92.3101680  39.6941000  -4.1952229
  91.7375647  40.3131187  -4.6481758  92.8834473  40.2440362  -3.6612308
  98.3777069  28.9399640   7.9894319  99.3294492  29.0397738   8.0106543
  98.2080520  28.1477909   8.4992404  96.3991449  26.0255223   8.1753720
  95.8041381  26.3060236   7.4800209  96.1141146  26.5149124   8.9470461
  95.5298939  39.9778150  -3.0643647  96.4629612  39.9123712  -2.8610772
  95.4422152  40.8134417  -3.5229115 100.8565147  32.1605760   7.1036619
 100.8241467  31.2221760   7.2896303 101.4665771  32.2389796   6.3702444
 101.0059636  28.9516803   7.1494902 100.4898684  28.1675260   6.9624831
 101.8899584  28.6235520   7.3141422 104.7556994  31.3629629   6.8417107
 104.0290158  31.2285594   6.2333599 104.3404281  31.6706458   7.6473825
  92.5787171  35.0819559  14.6064480  93.4990180  35.2598158  14.8004527
  92.5436754  34.1375604  14.4544179  85.5749243  32.9920593   7.2487261
  85.7935253  33.9237701   7.2675295  85.9875017  32.6328568   8.0342065
  90.4477108  28.5653799  16.6390010  90.3473835  29.5148156  16.5702101
  90.2298650  28.2372038  15.7666080  81.6657596  33.8961064   5.5010876
  80.9721067  33.4815017   4.9880831  82.4130587  33.9381600   4.9044295
  90.3108378  31.9950938  15.4555072  89.8275460  32.7951298  15.6618961
  90.3969318  32.0058883  14.5022516  83.5794338  33.8279318   3.3776891
  83.5565026  33.9267005   2.4258774  83.8894975  34.6744469   3.6994057
  86.2381716  35.8855473   7.4923506  87.1924970  35.8539415   7.4253437
  86.0394240  35.4246096   8.3073731  86.8281098  34.4556589  10.0594303
  87.6473987  34.9500667  10.0829140  87.1017906  33.5388557  10.0311871
  84.5931945  41.4275092   4.5093703  84.4586413  40.6675493   3.9431701
  84.1764007  42.1515992   4.0422492  87.7501071  42.3244409   4.7212146
  87.6333455  43.2689842   4.6190836  86.9293517  42.0217971   5.1097945
  82.0816012  28.7894723  10.7586500  82.7274876  28.2793677  11.2473725
  81.8733163  29.5263404  11.3329925  94.6069405  35.8575570  16.2578641
  95.4760564  36.0316222  15.8965276  94.1276156  36.6769987  16.1354370
  88.7755585  42.9772671   7.9368074  89.6782831  43.0096281   8.2534569
  88.5492955  42.0473122   7.9514410  90.5309187  41.7303658   4.5978153
  89.5804818  41.7305519   4.4842525  90.8341673  40.9836392   4.0814188
  86.4213503  25.9362340  14.8561514  87.2844965  25.5799145  15.0664839
  85.8478914  25.5976235  15.5436919 106.2661880  47.5664196   5.6623915
 106.9040290  47.4470943   4.9587256 106.1482723  48.5145040   5.7211868
 103.0751587  47.5191624   5.5985440 102.7370098  47.4032689   4.7105975
 103.9441355  47.1182789   5.5786446  98.9338402  49.3727101   1.5882331
  98.3703267  49.2817038   0.8198619  98.8190797  48.5527005   2.0684824
 103.5571370  48.6726476  11.5571646 103.5460010  48.2779274  10.6852149
 103.7192009  47.9392549  12.1505417  96.4802834  50.8678292   4.4266552
  97.2724126  50.5269117   4.0112851  96.7199484  50.9773267   5.3468705
 104.5137961  53.0398068  -3.1003204 103.8625941  53.6252149  -3.4869190
 105.3082324  53.5704263  -3.0408167  98.4393588  50.1287205  -2.7016070
  99.2124464  49.5816193  -2.8403194  98.7918987  50.9931455  -2.4901608
 100.2778631  51.4563588  10.5050830  99.9868497  52.3609219  10.3897496
 100.9135615  51.4980115  11.2194899 101.2034838  48.8340436   7.0952189
 101.7998410  48.6096459   6.3809152 101.2609809  48.0925182   7.6977637
 105.8203149  45.2915650   2.7377124 106.6066238  44.8735073   2.3867541
 106.0841853  46.1961742   2.9058772 105.9913226  50.7288500  -2.5634220
 105.3559059  50.8023127  -1.8513315 105.6610633  51.3182099  -3.2415140
 100.4956155  48.1907978  -2.8673245 100.3792413  47.5152881  -2.1992160
 100.6058415  47.7040351  -3.6841092 102.8387696  47.6518125   0.8373444
 102.4745903  47.1248746   1.5486366 103.6954812  47.2616594   0.6639930
 108.7436996  38.9412457   8.1004711 108.4120321  39.8107868   7.8765926
 108.1482610  38.6248741   8.7798741 105.2368516  51.1425003   7.5000623
 104.9369239  52.0450042   7.3916431 104.8919575  50.8757186   8.3521776
  98.6880997  47.5938800   3.5337328  97.7631494  47.4615014   3.7415020
  98.9365410  48.3733019   4.0307270 108.6365660  43.6607543   5.1798061
 107.7282537  43.5922952   4.8856822 108.5853255  44.1379488   6.0079886
 102.4582403  45.1365682  -3.1818540 102.3382029  45.5822733  -2.3433060
 101.7634992  45.4851000  -3.7405002  96.0489808  47.2372074   4.3681117
  96.1782189  47.4906553   5.2820529  95.3687260  47.8299782   4.0485772
 100.2189296  57.9069324   0.4671591 100.1413325  58.8577149   0.5460072
  99.6150939  57.5615196   1.1246517 102.7106525  45.0797189  13.1232958
 101.9339859  45.6391109  13.1135823 103.3497088  45.5653972  13.6447828
 110.5027306  41.8623982   6.9575935 109.8601686  42.1556515   6.3115729
 109.9982234  41.7476902   7.7629131 100.9652898  47.8882642  12.6850925
 101.7067582  48.4267686  12.4085749 100.2589883  48.5148931  12.8422477
 106.4408237  50.0311783  11.2823086 106.8491593  49.5894193  10.5377719
 105.7185499  49.4564410  11.5357279 102.7939307  44.9684390   8.6556643
 103.6400503  45.3923803   8.7991292 102.7337945  44.3118014   9.3495207
 106.7637052  50.5912973   5.0375375 106.1345914  50.7558688   4.3351443
 106.3762714  51.0054583   5.8086339 110.6426284  51.5267411   2.3919739
 109.9577322  51.9066313   1.8416772 110.7270133  52.1362738   3.1251687
 105.9438753  42.6288758  10.3137817 105.6999685  43.3830819   9.7772093
 106.2198683  43.0074106  11.1485064 107.8977215  49.1727370   8.9915083
 108.1094111  49.8159130   8.3149464 107.8506964  48.3389687   8.5237013
 105.5003444  41.7845191   5.8951655 104.6387923  42.0826445   6.1868392
 105.5265879  42.0015590   4.9632687 102.3165014  50.3287382   2.3025460
 102.7803359  50.6075085   1.5130083 102.0521812  49.4270826   2.1198551
  99.2089095  49.8758863   5.2405224  99.7790452  50.3046131   4.6022708
  99.7997207  49.5941448   5.9389409 101.2533900  46.4510534  -0.8884974
 101.9557943  46.9031578  -0.4211048 100.9214528  45.8094353  -0.2605081
  99.7014261  45.0422291  13.4866235  99.0712922  45.7238571  13.7201632
  99.5950349  44.9305372  12.5419373  94.9959234  44.7094087   4.4132159
  94.2058288  44.9651615   3.9372270  95.4870481  45.5242424   4.5184200
 109.0123043  52.0499326   7.1637440 109.8340487  51.6479513   6.8820122
 109.0085446  51.9467560   8.1153556  96.9473979  45.0738666   1.3715636
  96.1505142  45.1857360   1.8899132  96.7199571  45.4125318   0.5056526
 102.7779647  51.5983369   9.3198150 102.8424079  52.0603776  10.1556322
 102.0690571  50.9680734   9.4480460  93.2796937  44.9624577   6.8447150
  93.5304975  45.8471587   7.1104726  93.8156485  44.7829179   6.0722242
 102.4927664  53.2651477  -0.8122869 102.3573339  54.1103012  -0.3838021
 103.0337477  53.4670754  -1.5756935  98.9795004  39.3443056  15.8491486
  98.5861950  38.7909255  16.5239130  99.7961144  39.6553635  16.2398004
  95.9457062  50.7826915  -0.2394944  96.4581582  51.5770165  -0.0889379
  96.5979775  50.0853205  -0.3061343  97.7551947  53.8992671   1.8427809
  97.9318575  54.8210636   1.6548793  98.5508780  53.5851090   2.2722189
 101.8962965  40.7600935  13.4411743 102.6372678  41.3608089  13.3616205
 102.1280888  40.0178573  12.8829785  97.0404303  45.9457303  11.7189972
  96.9257818  45.0442560  12.0197071  96.1848821  46.1921000  11.3674789
 104.1196141  53.8875043  13.3177473 103.6759995  53.1011422  12.9998377
 104.7813354  54.0754194  12.6521364  98.8783262  55.4170845   7.8438151
  99.4290687  55.2887908   7.0715145  98.0394738  55.7165734   7.4933044
 106.2177379  54.1677843  11.3458874 106.1995854  54.9886724  10.8539143
 107.1397299  54.0431918  11.5709015 102.6750433  51.6821972  12.1882382
 103.2078770  50.9210261  11.9581690 102.1464514  51.3895624  12.9306537
 105.8420128  36.7882038   7.7176024 105.4984397  37.6783680   7.6415135
 106.2099091  36.5983696   6.8545609  93.9105979  49.1115569   0.5364626
  94.7481201  49.5212577   0.3198334  94.0884246  48.1715011   0.5064820
 103.3917522  41.6240350   1.2833698 102.5359118  41.2347201   1.1039336
 103.8044474  41.7032311   0.4233483 104.9216668  39.1586694   5.6825257
 104.4181464  39.1216829   4.8693063 105.2147275  40.0679436   5.7421914
 101.1659554  39.2425423   4.6891439 102.0312551  39.0468232   4.3297329
 101.2337063  39.0135775   5.6160796 104.0403146  50.8107965  -0.2998805
 103.5124507  50.0760725  -0.6125568 103.5390649  51.5882641  -0.5458837
 109.0195992  49.0056985   4.8168241 108.3619666  49.6956247   4.9048369
 109.8236391  49.3953417   5.1602227  98.7721873  41.4727631   2.0607806
  99.3465625  41.2502813   1.3280999  99.3592856  41.5416326   2.8136407
 107.8301451  47.3601358   2.8672183 108.3433332  47.9931350   3.3693892
 108.4802674  46.7602554   2.5015543  99.0991460  43.5032092  -3.9196309
  98.2628773  43.8406779  -3.5987034  98.9596230  43.3681072  -4.8569172
 101.0744541  38.3468880   0.7882875 100.4208953  38.0317897   0.1639490
 101.0325015  37.7244621   1.5142698 105.0923825  57.3385682  -4.3767146
 104.4185524  57.6417379  -3.7682188 105.4789647  58.1414763  -4.7261689
 104.3082281  44.8350814   5.1130523 103.3904843  45.0565761   4.9552211
 104.7242425  44.9097124   4.2542230 105.0917329  46.2342229   0.2433203
 105.8389148  46.7463627  -0.0659675 105.3608919  45.9126282   1.1037597
 103.3643979  48.7300770  -2.7739842 102.4555199  48.4459803  -2.6767373
 103.3939063  49.1499849  -3.6336536 108.5963247  52.3407360   0.9951325
 108.1425574  51.4998269   1.0516516 107.9657214  52.9768758   1.3326105
 107.0396186  54.1783856   1.9301143 107.3319160  54.7388913   1.2113509
 107.5494807  54.4712417   2.6854302  93.9332150  46.4506284   1.2075360
  93.7356550  45.8575645   0.4826426  93.3778814  46.1458494   1.9251299
 101.9128873  46.3429391   3.3269953 101.9677483  45.3903227   3.2512430
 101.1020075  46.4988830   3.8111251  99.8521233  44.9606450   1.0860332
  99.0389099  45.2600621   1.4925524 100.3480228  44.5662139   1.8034814
 102.0029811  54.9564207   3.0194597 101.9605990  55.1825054   2.0903129
 102.9192510  54.7227582   3.1680398 105.4495445  45.4248275   9.9175226
 105.8044833  45.6519748  10.7769692 106.0967576  45.7566652   9.2952481
  99.3435308  42.5324806   6.7021567  99.9834687  42.3913565   6.0044530
  98.5112839  42.2459319   6.3260169 111.2062562  50.6143238   5.6335826
 111.6399068  50.5218527   6.4818880 111.9194142  50.5900738   4.9955842
 100.1195612  51.8327236   2.8156559 100.9136211  51.3377557   2.6139134
  99.4087304  51.3045100   2.4524265 104.9390456  54.2145332   7.1668927
 104.9927479  54.7836268   7.9346643 104.0705238  54.3847217   6.8022964
  96.4278375  45.9770318  -1.1083688  95.4975964  45.9154774  -0.8913726
  96.5235847  45.4546271  -1.9047047  96.3463925  42.5025131   1.4794554
  96.6070742  43.4170464   1.3703714  97.1681097  42.0349574   1.6291166
  97.8188850  43.9162888   8.6493378  98.4911903  43.7080250   8.0006027
  96.9918636  43.7184974   8.2098610 112.0678111  50.6566938   8.1668712
 112.2614001  51.5612749   8.4127987 111.9678729  50.1974358   9.0007297
 103.7214422  40.5424829  10.6659039 103.0742337  41.2414779  10.5723515
 104.4915437  40.9760973  11.0335287 107.1293220  50.8073681  13.7409592
 106.9778726  50.5784233  12.8239676 107.1197899  51.7644283  13.7540937
 103.8978556  48.3805594   8.7255859 104.8270616  48.5316754   8.5524826
 103.4769586  48.4689615   7.8704505 102.6966888  52.4056258   6.4954396
 102.5577974  52.0375043   7.3680334 101.9081484  52.9203898   6.3238354
 103.2915040  57.5065355  -2.1620067 103.4666796  57.0353398  -1.3474444
 102.6047828  58.1331121  -1.9338806 104.2472103  51.7837861   3.8843234
 103.9121936  51.7438631   4.7800884 103.7476049  51.1182577   3.4113644
  98.2216347  47.1905491   9.4095815  98.0836145  46.4585730  10.0107354
  99.1321271  47.1014391   9.1280003 100.8498648  46.9025450   8.8979495
 101.5598266  46.2618643   8.8566113 100.8067956  47.1538345   9.8205676
 108.8385426  53.8392804  11.8186074 108.7797973  53.1552024  11.1516657
 109.2404945  54.5811794  11.3666700  99.5627582  43.8890668  10.7175134
  99.0264939  43.4381407  11.3696731  98.9744290  44.0236577   9.9745599
  97.8576125  60.6554718   4.6119793  98.0972723  61.2873242   5.2898812
  97.0145322  60.3042758   4.8985152 108.8402834  51.8032388  10.0500054
 107.9529613  51.4658309  10.1726453 109.4101385  51.0715419  10.2868819
  90.4931981  48.1356479   3.3743105  91.1803021  47.8218209   2.7864121
  90.3380110  49.0397844   3.1010357  95.2966703  43.0246676   7.8028129
  95.2124892  42.4172346   7.0678539  94.4749409  43.5155694   7.8037625
 102.3703987  56.4633840   7.0161297 102.2974159  57.2688812   7.5280602
 101.9281380  56.6625806   6.1909318 102.1593767  55.7005610   0.5264119
 101.3761289  56.2427290   0.6202343 102.8586512  56.2179590   0.9258360
 105.4690417  41.5100240   3.1698324 105.9659116  40.7570202   2.8499394
 104.6977398  41.5464556   2.6041533 113.3220174  47.2140605   4.8116615
 113.3110051  48.0965320   4.4410549 112.4537554  46.8612156   4.6171153
 104.8302671  56.3620674   9.1719456 105.5430643  56.9968139   9.0995357
 104.3392699  56.4584540   8.3559458 106.5520198  50.2671927   0.7436747
 105.6176476  50.3873389   0.5741452 106.7296866  49.3644394   0.4796757
 102.0525386  43.6517623   2.8970009 101.6823173  43.0988663   3.5850914
 102.5484478  43.0475756   2.3445009  99.8814584  54.1115118   9.9925027
 100.5824044  54.7451600  10.1454421  99.4109699  54.4529849   9.2320666
 108.0068980  52.4533067  -1.7227066 108.2828824  52.3389662  -0.8133192
 107.1373479  52.0550552  -1.7614893 107.9109412  38.4769833   5.3177683
 106.9972491  38.7074060   5.4859890 108.3402513  38.5608277   6.1691715
 107.6815870  46.6659725   7.8177577 107.0287320  46.9135632   7.1630030
 108.0596250  45.8523863   7.4840054 104.6423044  56.7019418   1.9205747
 104.8245439  55.8841074   2.3833500 105.4656030  56.9187110   1.4830637
 104.9765210  55.6287603  -0.8179204 105.5052976  55.1180058  -1.4309042
 105.2393429  55.3130134   0.0466329 103.7303443  47.4079536  14.3043614
 103.0544080  47.3073665  14.9745989 104.5531077  47.2518750  14.7679611
  95.4782302  53.6451473   6.9256129  96.0635739  52.8995160   7.0584033
  95.2807141  53.9555429   7.8092793  98.3320957  56.6802720   1.9418572
  97.6631333  57.1648848   1.4582612  98.1933827  56.9271940   2.8561950
  90.0699957  46.2157073   5.6460572  90.1084056  45.6820663   6.4397690
  89.5640250  45.6892278   5.0271550 102.4726226  58.7146463   8.5401230
 103.0244534  58.8778085   9.3050315 102.8132420  59.3050901   7.8681255
  97.4490719  41.0621613   9.1423115  97.5132046  41.9236444   8.7300512
  97.3857840  40.4495615   8.4095473  96.9242992  43.1344746  12.7896149
  97.5515031  42.7521823  13.4033673  96.0670911  42.9158948  13.1551841
 107.3237100  53.5407721  14.3949884 107.8677004  54.1537679  13.9004839
 106.7423945  54.0987299  14.9116897  93.7008535  44.9421175  -1.2785496
  93.9961976  44.0331853  -1.3318443  92.7996570  44.9208914  -1.6004494
 105.6094613  56.6628439   5.5264912 105.4845753  55.8618179   5.0175858
 106.2673704  57.1574632   5.0378882  97.2302782  43.0177172   4.7042052
  96.5089367  43.6313139   4.5649526  98.0196037  43.5534936   4.6258698
 107.6729522  54.4637459   7.1544462 106.7259857  54.3442810   7.0822789
 108.0212295  53.5759957   7.2370724 100.0329095  40.3531598  10.9782704
 100.5563497  40.5993895  11.7409013  99.8141428  41.1851633  10.5585841
  95.4296376  42.6235273  -1.1546171  95.1009082  41.7432652  -1.3371065
  95.7835747  42.5682941  -0.2669782 104.6775955  54.2590175   3.3548814
 104.5300917  53.3306883   3.5356384 105.5029449  54.2810266   2.8705890
  98.5438199  42.9108242  -0.7870693  98.8834272  43.4394164  -1.5092085
  98.9910320  43.2488649  -0.0112127 108.2810077  55.0818734   4.4413687
 109.2056624  54.8761595   4.3038138 108.1125380  54.8335135   5.3503029
 101.2381640  41.2945293   8.6632375 100.8978460  40.4953106   9.0653055
 100.5320646  41.5947004   8.0909208 101.8898112  38.3794606   7.1159698
 102.7124181  37.9055084   6.9938588 102.1336175  39.1585089   7.6158384
  99.4136691  45.0713726   4.9251676  99.2681271  45.3854029   5.8175958
  98.9361894  45.6898627   4.3722575 101.2733074  42.0616274   4.9732566
 101.2594642  41.1657367   4.6364864 101.9905502  42.0686938   5.6070852
 103.1259204  42.4953614   7.0185693 102.8676982  43.4170685   7.0170024
 102.5944245  42.0984049   7.7086157 108.0705393  55.6004401  -0.2024221
 108.2442271  55.0350824  -0.9550369 108.5634284  56.4005296  -0.3844731
  93.8882353  47.6119071   7.8639337  93.3435821  48.3878879   7.9959612
  94.7661703  47.9589875   7.7058459 100.6769970  40.9430654   0.2420136
 100.7985881  40.0147301   0.4411023 100.3872012  40.9569340  -0.6701549
 103.5461160  38.6285565   3.3786856 103.5682857  38.6924898   2.4238835
 103.9629219  37.7890074   3.5727362 109.0580566  54.9171166  -3.1027323
 109.7531470  55.5377859  -2.8840008 109.4003716  54.0666517  -2.8274945
  94.6748375  46.7388967  10.7569494  93.9330111  46.8871602  11.3434125
  94.3541119  46.9997232   9.8936244 102.6192037  56.2804945  10.5549884
 102.9279164  56.0354092  11.4272584 103.4167519  56.4851584  10.0668755
 102.6412649  58.4342855   2.7855261 102.2017640  57.9419233   3.4788118
 103.3920766  57.8915822   2.5447336  95.1204988  54.6254396   2.7879889
  95.9463008  54.3258167   2.4078532  94.7699040  53.8562018   3.2369678
 100.0886522  53.9780864   4.8577563  99.4666531  53.3151569   4.5579790
 100.7591388  54.0041996   4.1751210  93.3213593  52.5440722   3.7468823
  92.4845502  52.1162896   3.5652824  93.2937239  52.7373165   4.6839614
 100.1611049  42.4562652  14.4510069 100.2099205  43.3324775  14.0687838
 100.7033563  41.9140045  13.8781712 110.6465895  53.0003775  13.7311206
 109.8561438  52.9827914  13.1915705 110.4099249  53.5392069  14.4860242
 110.7663770  49.8496241  11.0443934 110.8161775  49.6846249  11.9859457
 110.6577693  48.9823500  10.6541815  99.6500028  52.5284787  -1.6663977
  99.7988149  53.2120252  -2.3197304 100.4566472  52.5089877  -1.1514521
 108.0567532  45.8327169  12.3603241 108.9577395  45.6933634  12.0687239
 108.1315507  45.9981624  13.3001418 102.3910338  43.2094024  11.2056427
 101.5213647  43.5027590  10.9339016 102.6269818  43.7934469  11.9263691
 112.2681967  52.2693183  11.2885956 111.9766775  52.6323164  12.1249417
 111.6554098  51.5560191  11.1099288 110.5169155  47.3925798   9.7566014
 110.9923276  47.5853444   8.9484865 109.5934720  47.4484983   9.5109397
  97.4052661  48.5549965  -0.6602908  97.1598703  47.6512295  -0.4622698
  97.5748576  48.5567115  -1.6023430 105.0949371  39.4273641   8.7221848
 105.6131315  40.1634668   8.3968336 104.7404504  39.7337634   9.5568607
  96.6748309  44.2878322  -3.1616747  95.9817554  44.3622677  -3.8176711
  96.4300061  43.5238666  -2.6395230 103.1495434  55.0232918  -4.1952229
 102.5769401  55.6423105  -4.6481758 103.7228228  55.5732279  -3.6612308
 109.2170824  44.2691558   7.9894319 110.1688247  44.3689655   8.0106543
 109.0474274  43.4769826   8.4992404 107.2385203  41.3547141   8.1753720
 106.6435135  41.6352154   7.4800209 106.9534900  41.8441042   8.9470461
 106.3692694  55.3070068  -3.0643647 107.3023367  55.2415629  -2.8610772
 106.2815907  56.1426335  -3.5229115 111.6958902  47.4897677   7.1036619
 111.6635222  46.5513678   7.2896303 112.3059525  47.5681714   6.3702444
 111.8453390  44.2808721   7.1494902 111.3292439  43.4967177   6.9624831
 112.7293339  43.9527437   7.3141422 115.5950749  46.6921547   6.8417107
 114.8683912  46.5577512   6.2333599 115.1798036  46.9998375   7.6473825
 103.4180925  50.4111476  14.6064480 104.3383935  50.5890075  14.8004527
 103.3830508  49.4667522  14.4544179  92.6363090  45.6050070   3.5317755
  92.3165874  44.7515378   3.2392129  92.0896518  45.8198648   4.2875722
  96.4142998  48.3212511   7.2487261  96.6329007  49.2529619   7.2675295
  96.8268771  47.9620486   8.0342065 101.2870863  43.8945717  16.6390010
 101.1867590  44.8440074  16.5702101 101.0692405  43.5663956  15.7666080
  92.5051350  49.2252982   5.5010876  91.8114821  48.8106934   4.9880831
  93.2524341  49.2673518   4.9044295 101.1502133  47.3242856  15.4555072
 100.6669215  48.1243216  15.6618961 101.2363072  47.3350801  14.5022516
  94.4188093  49.1571235   3.3776891  94.3958781  49.2558923   2.4258774
  94.7288729  50.0036386   3.6994057  97.0775470  51.2147390   7.4923506
  98.0318724  51.1831333   7.4253437  96.8787994  50.7538014   8.3073731
  97.6674853  49.7848506  10.0594303  98.4867742  50.2792585  10.0829140
  97.9411660  48.8680475  10.0311871  95.4325699  56.7567010   4.5093703
  95.2980167  55.9967411   3.9431701  95.0157762  57.4807910   4.0422492
  98.5894825  57.6536327   4.7212146  98.4727209  58.5981759   4.6190836
  97.7687271  57.3509889   5.1097945  92.9209767  44.1186640  10.7586500
  93.5668630  43.6085594  11.2473725  92.7126918  44.8555322  11.3329925
 105.4463159  51.1867488  16.2578641 106.3154319  51.3608140  15.8965276
 104.9669910  52.0061905  16.1354370  99.6149339  58.3064589   7.9368074
 100.5176586  58.3388199   8.2534569  99.3886709  57.3765040   7.9514410
 101.3702941  57.0595575   4.5978153 100.4198572  57.0597437   4.4842525
 101.6735427  56.3128310   4.0814188  97.2607258  41.2654257  14.8561514
  98.1238719  40.9091062  15.0664839  96.6872668  40.9268152  15.5436919
 117.1055635  62.8956114   5.6623915 117.7434045  62.7762861   4.9587256
 116.9876478  63.8436958   5.7211868 113.9145341  62.8483542   5.5985440
 113.5763853  62.7324607   4.7105975 114.7835109  62.4474707   5.5786446
 109.7732157  64.7019018   1.5882331 109.2097022  64.6108955   0.8198619
 109.6584552  63.8818923   2.0684824 114.3965124  64.0018394  11.5571646
 114.3853765  63.6071192  10.6852149 114.5585763  63.2684466  12.1505417
 107.3196589  66.1970210   4.4266552 108.1117881  65.8561035   4.0112851
 107.5593239  66.3065185   5.3468705 111.1172385  66.7855505  10.5050830
 110.8262251  67.6901136  10.3897496 111.7529370  66.8272033  11.2194899
 112.0428592  64.1632354   7.0952189 112.6392164  63.9388376   6.3809152
 112.1003564  63.4217099   7.6977637 116.6596903  60.6207568   2.7377124
 117.4459992  60.2026991   2.3867541 116.9235608  61.5253660   2.9058772
 113.6781450  62.9810042   0.8373444 113.3139657  62.4540663   1.5486366
 114.5348566  62.5908511   0.6639930 119.5830751  54.2704375   8.1004711
 119.2514076  55.1399786   7.8765926 118.9876364  53.9540659   8.7798741
 116.0762270  66.4716921   7.5000623 115.7762993  67.3741960   7.3916431
 115.7313330  66.2049104   8.3521776 109.5274752  62.9230718   3.5337328
 108.6025248  62.7906932   3.7415020 109.7759165  63.7024937   4.0307270
 119.4759414  58.9899461   5.1798061 118.5676291  58.9214870   4.8856822
 119.4247010  59.4671406   6.0079886 113.2976158  60.4657600  -3.1818540
 113.1775783  60.9114650  -2.3433060 112.6028746  60.8142917  -3.7405002
 106.8883563  62.5663991   4.3681117 107.0175944  62.8198470   5.2820529
 106.2081014  63.1591699   4.0485772 113.5500280  60.4089107  13.1232958
 112.7733614  60.9683027  13.1135823 114.1890843  60.8945890  13.6447828
 121.3421060  57.1915900   6.9575935 120.6995441  57.4848433   6.3115729
 120.8375989  57.0768820   7.7629131 111.8046652  63.2174560  12.6850925
 112.5461336  63.7559604  12.4085749 111.0983638  63.8440849  12.8422477
 117.2801992  65.3603701  11.2823086 117.6885348  64.9186111  10.5377719
 116.5579253  64.7856328  11.5357279 113.6333062  60.2976307   8.6556643
 114.4794257  60.7215721   8.7991292 113.5731699  59.6409932   9.3495207
 117.6030806  65.9204891   5.0375375 116.9739669  66.0850605   4.3351443
 117.2156468  66.3346501   5.8086339 116.7832507  57.9580676  10.3137817
 116.5393439  58.7122736   9.7772093 117.0592438  58.3366023  11.1485064
 118.7370970  64.5019288   8.9915083 118.9487865  65.1451048   8.3149464
 118.6900718  63.6681605   8.5237013 116.3397199  57.1137109   5.8951655
 115.4781678  57.4118362   6.1868392 116.3659634  57.3307508   4.9632687
 113.1558768  65.6579299   2.3025460 113.6197114  65.9367002   1.5130083
 112.8915566  64.7562744   2.1198551 110.0482849  65.2050781   5.2405224
 110.6184206  65.6338049   4.6022708 110.6390961  64.9233365   5.9389409
 112.0927654  61.7802452  -0.8884974 112.7951698  62.2323495  -0.4211048
 111.7608283  61.1386270  -0.2605081 110.5408016  60.3714208  13.4866235
 109.9106676  61.0530489  13.7201632 110.4344104  60.2597290  12.5419373
 105.8352988  60.0386004   4.4132159 105.0452042  60.2943533   3.9372270
 106.3264236  60.8534342   4.5184200 119.8516798  67.3791243   7.1637440
 120.6734242  66.9771431   6.8820122 119.8479201  67.2759478   8.1153556
 107.7867734  60.4030584   1.3715636 106.9898897  60.5149278   1.8899132
 107.5593326  60.7417236   0.5056526 113.6173401  66.9275287   9.3198150
 113.6817834  67.3895694  10.1556322 112.9084325  66.2972652   9.4480460
 104.1190691  60.2916495   6.8447150 104.3698730  61.1763505   7.1104726
 104.6550240  60.1121096   6.0722242 109.8188759  54.6734974  15.8491486
 109.4255704  54.1201173  16.5239130 110.6354899  54.9845553  16.2398004
 106.7850816  66.1118832  -0.2394944 107.2975337  66.9062083  -0.0889379
 107.4373529  65.4145123  -0.3061343 108.5945701  69.2284589   1.8427809
 108.7712329  70.1502553   1.6548793 109.3902535  68.9143008   2.2722189
 112.7356720  56.0892853  13.4411743 113.4766433  56.6900006  13.3616205
 112.9674642  55.3470491  12.8829785 107.8798058  61.2749220  11.7189972
 107.7651573  60.3734478  12.0197071 107.0242575  61.5212917  11.3674789
 114.9589895  69.2166961  13.3177473 114.5153750  68.4303339  12.9998377
 115.6207109  69.4046111  12.6521364 109.7177017  70.7462762   7.8438151
 110.2684442  70.6179826   7.0715145 108.8788492  71.0457651   7.4933044
 117.0571133  69.4969761  11.3458874 117.0389609  70.3178642  10.8539143
 117.9791053  69.3723836  11.5709015 113.5144188  67.0113890  12.1882382
 114.0472524  66.2502178  11.9581690 112.9858269  66.7187542  12.9306537
 116.6813883  52.1173956   7.7176024 116.3378152  53.0075598   7.6415135
 117.0492845  51.9275614   6.8545609 104.7499733  64.4407487   0.5364626
 105.5874955  64.8504495   0.3198334 104.9278001  63.5006929   0.5064820
 114.2311276  56.9532268   1.2833698 113.3752873  56.5639118   1.1039336
 114.6438228  57.0324229   0.4233483 115.7610423  54.4878611   5.6825257
 115.2575219  54.4508746   4.8693063 116.0541030  55.3971354   5.7421914
 112.0053309  54.5717341   4.6891439 112.8706306  54.3760150   4.3297329
 112.0730818  54.3427693   5.6160796 119.8589746  64.3348903   4.8168241
 119.2013421  65.0248165   4.9048369 120.6630146  64.7245335   5.1602227
 109.6115628  56.8019549   2.0607806 110.1859380  56.5794730   1.3280999
 110.1986610  56.8708243   2.8136407 118.6695205  62.6893276   2.8672183
 119.1827087  63.3223268   3.3693892 119.3196429  62.0894471   2.5015543
 109.9385215  58.8324010  -3.9196309 109.1022527  59.1698696  -3.5987034
 109.7989985  58.6972990  -4.8569172 111.9138296  53.6760798   0.7882875
 111.2602708  53.3609815   0.1639490 111.8718770  53.0536538   1.5142698
 115.1476036  60.1642731   5.1130523 114.2298597  60.3857678   4.9552211
 115.5636180  60.2389042   4.2542230 115.9311084  61.5634147   0.2433203
 116.6782903  62.0755544  -0.0659675 116.2002673  61.2418200   1.1037597
 104.7725904  61.7798202   1.2075360 104.5750304  61.1867563   0.4826426
 104.2172568  61.4750412   1.9251299 112.7522628  61.6721308   3.3269953
 112.8071238  60.7195145   3.2512430 111.9413830  61.8280747   3.8111251
 110.6914988  60.2898368   1.0860332 109.8782853  60.5892539   1.4925524
 111.1873982  59.8954057   1.8034814 112.8423566  70.2856125   3.0194597
 112.7999745  70.5116971   2.0903129 113.7586265  70.0519500   3.1680398
 116.2889200  60.7540193   9.9175226 116.6438587  60.9811666  10.7769692
 116.9361331  61.0858569   9.2952481 110.1829063  57.8616724   6.7021567
 110.8228442  57.7205483   6.0044530 109.3506593  57.5751237   6.3260169
 122.0456316  65.9435155   5.6335826 122.4792823  65.8510445   6.4818880
 122.7587897  65.9192656   4.9955842 110.9589367  67.1619154   2.8156559
 111.7529965  66.6669474   2.6139134 110.2481059  66.6337017   2.4524265
 115.7784211  69.5437250   7.1668927 115.8321233  70.1128186   7.9346643
 114.9098992  69.7139135   6.8022964 107.2672130  61.3062236  -1.1083688
 106.3369718  61.2446691  -0.8913726 107.3629602  60.7838189  -1.9047047
 107.1857679  57.8317049   1.4794554 107.4464496  58.7462382   1.3703714
 108.0074851  57.3641491   1.6291166 108.6582604  59.2454806   8.6493378
 109.3305658  59.0372168   8.0006027 107.8312391  59.0476892   8.2098610
 122.9071866  65.9858856   8.1668712 123.1007756  66.8904667   8.4127987
 122.8072484  65.5266275   9.0007297 114.5608176  55.8716747  10.6659039
 113.9136091  56.5706696  10.5723515 115.3309192  56.3052891  11.0335287
 117.9686974  66.1365599  13.7409592 117.8172481  65.9076151  12.8239676
 117.9591654  67.0936200  13.7540937 114.7372311  63.7097512   8.7255859
 115.6664371  63.8608671   8.5524826 114.3163341  63.7981532   7.8704505
 113.5360643  67.7348176   6.4954396 113.3971728  67.3666960   7.3680334
 112.7475239  68.2495815   6.3238354 115.0865858  67.1129779   3.8843234
 114.7515690  67.0730549   4.7800884 114.5869803  66.4474495   3.4113644
 109.0610102  62.5197409   9.4095815 108.9229900  61.7877648  10.0107354
 109.9715025  62.4306309   9.1280003 111.6892402  62.2317368   8.8979495
 112.3992021  61.5910560   8.8566113 111.6461710  62.4830263   9.8205676
 119.6779181  69.1684721  11.8186074 119.6191727  68.4843942  11.1516657
 120.0798699  69.9103711  11.3666700 110.4021336  59.2182586  10.7175134
 109.8658693  58.7673324  11.3696731 109.8138045  59.3528495   9.9745599
 108.6969880  75.9846635   4.6119793 108.9366478  76.6165159   5.2898812
 107.8539076  75.6334675   4.8985152 119.6796588  67.1324305  10.0500054
 118.7923367  66.7950227  10.1726453 120.2495139  66.4007337  10.2868819
 101.3325735  63.4648397   3.3743105 102.0196775  63.1510127   2.7864121
 101.1773864  64.3689762   3.1010357 106.1360457  58.3538594   7.8028129
 106.0518646  57.7464263   7.0678539 105.3143164  58.8447612   7.8037625
 113.2097742  71.7925758   7.0161297 113.1367913  72.5980729   7.5280602
 112.7675135  71.9917724   6.1909318 116.3084171  56.8392157   3.1698324
 116.8052871  56.0862120   2.8499394 115.5371153  56.8756474   2.6041533
 124.1613929  62.5432523   4.8116615 124.1503805  63.4257238   4.4410549
 123.2931308  62.1904074   4.6171153 115.6696425  71.6912592   9.1719456
 116.3824397  72.3260057   9.0995357 115.1786454  71.7876458   8.3559458
 117.3913952  65.5963844   0.7436747 116.4570231  65.7165307   0.5741452
 117.5690621  64.6936311   0.4796757 112.8919140  58.9809540   2.8970009
 112.5216928  58.4280581   3.5850914 113.3878233  58.3767674   2.3445009
 110.7208339  69.4407035   9.9925027 111.4217798  70.0743518  10.1454421
 110.2503454  69.7821767   9.2320666 118.7503166  53.8061751   5.3177683
 117.8366246  54.0365978   5.4859890 119.1796268  53.8900195   6.1691715
 118.5209625  61.9951643   7.8177577 117.8681075  62.2427550   7.1630030
 118.8990005  61.1815781   7.4840054 114.5697198  62.7371454  14.3043614
 113.8937835  62.6365583  14.9745989 115.3924832  62.5810667  14.7679611
 106.3176057  68.9743390   6.9256129 106.9029494  68.2287078   7.0584033
 106.1200895  69.2847347   7.8092793 109.1714712  72.0094638   1.9418572
 108.5025087  72.4940765   1.4582612 109.0327582  72.2563858   2.8561950
 100.9093711  61.5448990   5.6460572 100.9477811  61.0112581   6.4397690
 100.4034004  61.0184196   5.0271550 113.3119981  74.0438381   8.5401230
 113.8638289  74.2070003   9.3050315 113.6526174  74.6342819   7.8681255
 108.2884474  56.3913531   9.1423115 108.3525800  57.2528362   8.7300512
 108.2251594  55.7787533   8.4095473 107.7636746  58.4636664  12.7896149
 108.3908785  58.0813741  13.4033673 106.9064665  58.2450865  13.1551841
 118.1630855  68.8699639  14.3949884 118.7070759  69.4829597  13.9004839
 117.5817700  69.4279217  14.9116897 104.5402289  60.2713093  -1.2785496
 104.8355730  59.3623771  -1.3318443 103.6390325  60.2500832  -1.6004494
 116.4488368  71.9920357   5.5264912 116.3239507  71.1910097   5.0175858
 117.1067459  72.4866550   5.0378882 108.0696536  58.3469089   4.7042052
 107.3483122  58.9605057   4.5649526 108.8589792  58.8826854   4.6258698
 118.5123276  69.7929377   7.1544462 117.5653612  69.6734728   7.0822789
 118.8606049  68.9051875   7.2370724 110.8722850  55.6823516  10.9782704
 111.3957251  55.9285812  11.7409013 110.6535183  56.5143551  10.5585841
 106.2690131  57.9527190  -1.1546171 105.9402837  57.0724569  -1.3371065
 106.6229501  57.8974859  -0.2669782 115.5169710  69.5882093   3.3548814
 115.3694672  68.6598800   3.5356384 116.3423203  69.6102184   2.8705890
 109.3831954  58.2400160  -0.7870693 109.7228026  58.7686081  -1.5092085
 109.8304074  58.5780566  -0.0112127 112.0775395  56.6237211   8.6632375
 111.7372215  55.8245024   9.0653055 111.3714401  56.9238922   8.0909208
 112.7291866  53.7086523   7.1159698 113.5517936  53.2347001   6.9938588
 112.9729930  54.4877007   7.6158384 110.2530445  60.4005644   4.9251676
 110.1075026  60.7145947   5.8175958 109.7755649  61.0190544   4.3722575
 112.1126828  57.3908192   4.9732566 112.0988397  56.4949285   4.6364864
 112.8299256  57.3978856   5.6070852 113.9652959  57.8245532   7.0185693
 113.7070737  58.7462603   7.0170024 113.4337999  57.4275967   7.7086157
 104.7276107  62.9410988   7.8639337 104.1829575  63.7170796   7.9959612
 105.6055457  63.2881793   7.7058459 111.5163724  56.2722572   0.2420136
 111.6379635  55.3439218   0.4411023 111.2265766  56.2861258  -0.6701549
 114.3854914  53.9577483   3.3786856 114.4076611  54.0216816   2.4238835
 114.8022973  53.1181991   3.5727362 105.5142129  62.0680885  10.7569494
 104.7723865  62.2163520  11.3434125 105.1934874  62.3289150   9.8936244
 113.4585792  71.6096863  10.5549884 113.7672918  71.3646010  11.4272584
 114.2561274  71.8143501  10.0668755 105.9598743  69.9546313   2.7879889
 106.7856763  69.6550085   2.4078532 105.6092795  69.1853936   3.2369678
 110.9280276  69.3072781   4.8577563 110.3060285  68.6443486   4.5579790
 111.5985143  69.3333913   4.1751210 104.1607348  67.8732640   3.7468823
 103.3239256  67.4454814   3.5652824 104.1330993  68.0665083   4.6839614
 111.0004804  57.7854569  14.4510069 111.0492959  58.6616692  14.0687838
 111.5427318  57.2431963  13.8781712 121.4859649  68.3295693  13.7311206
 120.6955193  68.3119832  13.1915705 121.2493004  68.8683986  14.4860242
 121.6057524  65.1788159  11.0443934 121.6555529  65.0138167  11.9859457
 121.4971448  64.3115418  10.6541815 118.8961287  61.1619087  12.3603241
 119.7971149  61.0225552  12.0687239 118.9709261  61.3273542  13.3001418
 113.2304092  58.5385942  11.2056427 112.3607401  58.8319508  10.9339016
 113.4663572  59.1226387  11.9263691 123.1075721  67.5985101  11.2885956
 122.8160529  67.9615081  12.1249417 122.4947852  66.8852109  11.1099288
 121.3562909  62.7217715   9.7566014 121.8317031  62.9145362   8.9484865
 120.4328475  62.7776901   9.5109397 108.2446416  63.8841882  -0.6602908
 107.9992458  62.9804212  -0.4622698 108.4142331  63.8859033  -1.6023430
 115.9343126  54.7565559   8.7221848 116.4525070  55.4926586   8.3968336
 115.5798259  55.0629552   9.5568607 107.5142063  59.6170240  -3.1616747
 106.8211308  59.6914595  -3.8176711 107.2693815  58.8530584  -2.6395230
 120.0564578  59.5983475   7.9894319 121.0082001  59.6981573   8.0106543
 119.8868029  58.8061744   8.4992404 118.0778958  56.6839059   8.1753720
 117.4828890  56.9644071   7.4800209 117.7928655  57.1732959   8.9470461
 122.5352656  62.8189595   7.1036619 122.5028976  61.8805596   7.2896303
 123.1453280  62.8973632   6.3702444 122.6847145  59.6100638   7.1494902
 122.1686193  58.8259095   6.9624831 123.5687093  59.2819355   7.3141422
 126.4344503  62.0213464   6.8417107 125.7077667  61.8869429   6.2333599
 126.0191790  62.3290293   7.6473825 114.2574680  65.7403394  14.6064480
 115.1777689  65.9181993  14.8004527 114.2224263  64.7959440  14.4544179
 103.4756845  60.9341988   3.5317755 103.1559629  60.0807296   3.2392129
 102.9290273  61.1490566   4.2875722 107.2536752  63.6504429   7.2487261
 107.4722762  64.5821537   7.2675295 107.6662526  63.2912403   8.0342065
 112.1264617  59.2237635  16.6390010 112.0261344  60.1731992  16.5702101
 111.9086159  58.8955873  15.7666080 103.3445105  64.5544899   5.5010876
 102.6508576  64.1398852   4.9880831 104.0918096  64.5965436   4.9044295
 111.9895887  62.6534773  15.4555072 111.5062969  63.4535134  15.6618961
 112.0756826  62.6642718  14.5022516 105.2581847  64.4863153   3.3776891
 105.2352535  64.5850840   2.4258774 105.5682484  65.3328304   3.6994057
 107.9169225  66.5439308   7.4923506 108.8712478  66.5123250   7.4253437
 107.7181749  66.0829932   8.3073731 108.5068607  65.1140424  10.0594303
 109.3261496  65.6084503  10.0829140 108.7805415  64.1972392  10.0311871
 106.2719454  72.0858928   4.5093703 106.1373922  71.3259328   3.9431701
 105.8551516  72.8099827   4.0422492 109.4288580  72.9828245   4.7212146
 109.3120964  73.9273677   4.6190836 108.6081026  72.6801806   5.1097945
 103.7603521  59.4478558  10.7586500 104.4062385  58.9377512  11.2473725
 103.5520672  60.1847240  11.3329925 116.2856914  66.5159406  16.2578641
 117.1548073  66.6900058  15.8965276 115.8063665  67.3353822  16.1354370
 110.4543094  73.6356507   7.9368074 111.3570340  73.6680117   8.2534569
 110.2280464  72.7056957   7.9514410 112.2096696  72.3887493   4.5978153
 111.2592327  72.3889355   4.4842525 112.5129182  71.6420228   4.0814188
 108.1001012  56.5946175  14.8561514 108.9632474  56.2382980  15.0664839
 107.5266423  56.2560070  15.5436919 124.3894034  75.7381024  13.1232958
 123.6127368  76.2974945  13.1135823 125.0284597  76.2237807  13.6447828
 122.6440407  78.5466478  12.6850925 123.3855091  79.0851522  12.4085749
 121.9377392  79.1732766  12.8422477 127.6226262  73.2872593  10.3137817
 127.3787194  74.0414654   9.7772093 127.8986192  73.6657941  11.1485064
 121.3801770  75.7006126  13.4866235 120.7500431  76.3822407  13.7201632
 121.2737858  75.5889208  12.5419373 114.9584446  75.6208412   6.8447150
 115.2092484  76.5055422   7.1104726 115.4943994  75.4413014   6.0722242
 120.6582513  70.0026892  15.8491486 120.2649459  69.4493090  16.5239130
 121.4748653  70.3137470  16.2398004 123.5750474  71.4184771  13.4411743
 124.3160187  72.0191924  13.3616205 123.8068397  70.6762409  12.8829785
 118.7191812  76.6041138  11.7189972 118.6045327  75.7026395  12.0197071
 117.8636330  76.8504835  11.3674789 127.5207637  67.4465874   7.7176024
 127.1771906  68.3367515   7.6415135 127.8886600  67.2567531   6.8545609
 119.4976359  74.5746723   8.6493378 120.1699412  74.3664086   8.0006027
 118.6706145  74.3768809   8.2098610 125.4001931  71.2008664  10.6659039
 124.7529846  71.8998614  10.5723515 126.1702946  71.6344808  11.0335287
 119.9003856  77.8489326   9.4095815 119.7623654  77.1169565  10.0107354
 120.8108780  77.7598227   9.1280003 121.2415091  74.5474504  10.7175134
 120.7052448  74.0965242  11.3696731 120.6531799  74.6820412   9.9745599
 116.9754212  73.6830511   7.8028129 116.8912401  73.0756181   7.0678539
 116.1536918  74.1739530   7.8037625 125.4090952  78.0663371  14.3043614
 124.7331589  77.9657501  14.9745989 126.2318586  77.9102585  14.7679611
 111.7487466  76.8740908   5.6460572 111.7871565  76.3404499   6.4397690
 111.2427759  76.3476114   5.0271550 119.1278228  71.7205449   9.1423115
 119.1919555  72.5820280   8.7300512 119.0645349  71.1079450   8.4095473
 118.6030501  73.7928581  12.7896149 119.2302540  73.4105659  13.4033673
 117.7458420  73.5742783  13.1551841 121.7116604  71.0115433  10.9782704
 122.2351006  71.2577730  11.7409013 121.4928937  71.8435468  10.5585841
 122.9169149  71.9529128   8.6632375 122.5765969  71.1536942   9.0653055
 122.2108155  72.2530839   8.0909208 123.5685621  69.0378441   7.1159698
 124.3911690  68.5638919   6.9938588 123.8123684  69.8168925   7.6158384
 115.5669862  78.2702906   7.8639337 115.0223330  79.0462714   7.9959612
 116.4449212  78.6173710   7.7058459 116.3535884  77.3972802  10.7569494
 115.6117620  77.5455438  11.3434125 116.0328628  77.6581068   9.8936244
 121.8398558  73.1146487  14.4510069 121.8886714  73.9908610  14.0687838
 122.3821072  72.5723880  13.8781712 124.0697846  73.8677860  11.2056427
 123.2001156  74.1611426  10.9339016 124.3057327  74.4518305  11.9263691
 126.7736880  70.0857477   8.7221848 127.2918824  70.8218503   8.3968336
 126.4192013  70.3921470   9.5568607 125.0968434  81.0695312  14.6064480
 126.0171443  81.2473911  14.8004527 125.0618017  80.1251357  14.4544179
 122.9658372  74.5529552  16.6390010 122.8655099  75.5023909  16.5702101
 122.7479914  74.2247791  15.7666080 122.8289642  77.9826691  15.4555072
 122.3456724  78.7827051  15.6618961 122.9150581  77.9934636  14.5022516
 114.5997276  74.7770476  10.7586500 115.2456139  74.2669430  11.2473725
 114.3914427  75.5139157  11.3329925 127.1250668  81.8451323  16.2578641
 127.9941828  82.0191975  15.8965276 126.6457419  82.6645740  16.1354370
 118.9394767  71.9238093  14.8561514 119.8026228  71.5674898  15.0664839
 118.3660177  71.5851988  15.5436919   2.8274022  98.8812601  96.5692952
   3.5599194  98.3111818  96.8030782   2.0713378  98.4934202  97.0099458
   2.1089752  95.5145700  99.8858785   1.4664132  95.8078233  99.2398580
   1.6044681  95.3998620 100.6911982   2.2488730 105.1789129  95.3202590
   1.5639768 105.5588031  94.7699623   2.3332579 105.7884456  96.0534537
   0.6185490 105.7021044 100.0920290   1.4402933 105.3001231  99.8102972
   0.6147893 105.5989278 101.0436406   8.7091483 102.0459792  96.4405262
   7.9555191 101.4767190  96.2849266   8.8439024 102.0122457  97.3875897
   2.3867131 103.1844722  91.0884483   1.6096574 102.8455882  90.6439645
   3.0658612 103.1897345  90.4139448   2.7855628 102.1988429  93.5507405
   2.6473527 102.3890025  92.6228594   2.4291847 102.9607812  94.0075456
   2.8125008 104.2664956  98.5618677   3.2461515 104.1740245  99.4101731
   3.5256589 104.2422456  97.9238693   3.6740557 104.3088657 101.0951562
   3.8676448 105.2134467 101.3410837   3.5741176 103.8496076 101.9290147
   4.9282621 100.8662323  97.7399466   4.9172497 101.7487039  97.3693399
   4.0600000 100.5133874  97.5454003   1.5455195  99.7610964  94.2069632
   2.0115647 100.5938956  94.1329935   1.9962696  99.2955946  94.9114890
   5.5307231 102.0162543  94.3448929   5.9738377 101.2669868  93.9468052
   4.6533741 102.0072679  93.9622661   0.6643012 108.5692884  89.8255527
   1.3593916 109.1899577  90.0442842   1.0066162 107.7188235  90.1007905
   2.5634435 106.0192590  91.3542858   3.0885759 106.3579862  90.6292178
   2.4756788 105.0839605  91.1705993   2.2528341 106.6525493 106.6594056
   1.4623885 106.6349632 106.1198556   2.0161696 107.1913787 107.4143093
   2.3726216 103.5017960 103.9726785   2.4224221 103.3367967 104.9142307
   2.2640139 102.6345219 103.5824665   3.8744413 105.9214901 104.2168806
   3.5829221 106.2844882 105.0532267   3.2616544 105.2081909 104.0382138
   5.0740095 103.4867781  96.7371376   5.9086987 103.9257585  96.9008937
   5.2099224 103.0106434  95.9179622   2.1231601 101.0447516 102.6848864
   2.5985723 101.2375162 101.8767716   1.1997167 101.1006702 102.4392248
   0.8233270  97.9213276 100.9177170   1.7750693  98.0211373 100.9389394
   0.6536721  97.1291544 101.4275254   0.6043157 108.2757656  86.8243151
   0.5256788 107.9417520  87.7178909   1.4252824 108.7679424  86.8234623
   3.3021348 101.1419395 100.0319469   3.2697668 100.2035396 100.2179153
   3.9121972 101.2203432  99.2985294   3.4515836  97.9330439 100.0777753
   2.9354885  97.1488896  99.8907681   4.3355785  97.6049156 100.2424272
   1.1126563  91.6771454  96.0373565   0.9151384  91.3686543  96.9216897
   1.7226269  92.4033093  96.1671495   9.1197898 102.2035402  99.1725506
   9.8501286 101.9420690  99.7333210   8.5104843 101.4664124  99.2127574
   7.2013195 100.3443265  99.7699957   6.4746359 100.2099230  99.1616449
   6.7860482 100.6520093 100.5756675   2.3818431  95.8527498  96.0659448
   3.1578821  96.3423950  96.3384065   1.6566565  96.2785552  96.5231318
   4.8190990  96.5655117  97.1233389   5.4135481  96.3250853  96.4126697
   4.8917574  95.8462248  97.7506925   2.8149725  97.1325245  93.3905519
   2.5586659  96.7321880  94.2213726   2.1902593  97.8469039  93.2655658
   7.1262063  99.8721318  95.8976810   6.5661621  99.9414507  96.6708372
   6.5205566  99.6962303  95.1776306   8.7118081 116.5477832  98.5906766
   9.3496491 116.4284579  97.8870106   8.5938924 117.4958676  98.6494718
   5.5207787 116.5005260  98.5268291   5.1826299 116.3846325  97.6388825
   6.3897556 116.0996425  98.5069297   1.3794603 118.3540736  94.5165182
   0.8159468 118.2630673  93.7481469   1.2646998 117.5340641  94.9967674
   6.0027570 117.6540112 104.4854496   5.9916211 117.2592910 103.6135000
   6.1648210 116.9206184 105.0788268   0.8849789 119.1100841  90.2266781
   1.6580665 118.5629828  90.0879657   1.2375188 119.9745091  90.4381242
   3.6491038 117.8154072 100.0235040   4.2454611 117.5910094  99.3092003
   3.7066010 117.0738817 100.6260488   3.2216067 115.2693507  87.8585231
   3.4741587 114.7475029  87.0968694   2.2840626 115.1059653  87.9611914
   8.2659350 114.2729286  95.6659974   9.0522439 113.8548709  95.3150391
   8.5298054 115.1775378  95.8341622   8.4369427 119.7102136  90.3648631
   7.8015260 119.7836763  91.0769535   8.1066833 120.2995735  89.6867710
  13.6667777 114.2104519  96.5692952  14.3992949 113.6403736  96.8030782
  12.9107132 113.8226119  97.0099458   2.9412355 117.1721613  90.0609606
   2.8248614 116.4966517  90.7290690   3.0514615 116.6853987  89.2441759
   5.2843896 116.6331760  93.7656295   4.9202104 116.1062381  94.4769216
   6.1411012 116.2430229  93.5922780  11.1893197 107.9226093 101.0287561
  10.8576522 108.7921504 100.8048776  10.5938810 107.6062377 101.7081591
   4.9249383 111.6621660  88.7617643   5.0923786 112.5301897  89.1288114
   4.7346552 111.8248942  87.8378933   7.6824717 120.1238639 100.4283474
   7.3825440 121.0263678 100.3199281   7.3375776 119.8570822 101.2804627
  11.0821860 112.6421179  98.1080911  10.1738738 112.5736588  97.8139672
  11.0309456 113.1193124  98.9362737   4.9038604 114.1179318  89.7464310
   4.7838229 114.5636368  90.5849791   4.2091193 114.4664635  89.1877848
  12.9483507 110.8437618  99.8858785  12.3057887 111.1370151  99.2398580
  12.4438435 110.7290538 100.6911982  10.6023670 114.5900791  90.5744644
  11.5141527 114.8228178  90.3992342  10.0933317 115.1737835  90.0119723
   8.8864438 119.0125419 104.2105937   9.2947794 118.5707829 103.4660569
   8.1641700 118.4378046 104.4640130   5.2395508 113.9498025 101.5839494
   6.0856703 114.3737439 101.7274143   5.1794146 113.2931650 102.2778057
   9.2093253 119.5726609  97.9658226   8.5802115 119.7372323  97.2634294
   8.8218915 119.9868219  98.7369190  13.0882485 120.5081047  95.3202590
  12.4033523 120.8879948  94.7699623  13.1726334 121.1176374  96.0534537
   8.3894953 111.6102394 103.2420667   8.1455885 112.3644454 102.7054943
   8.6654884 111.9887741 104.0767915  10.3433416 118.1541006 101.9197933
  10.5550311 118.7972766 101.2432314  10.2963164 117.3203323 101.4519863
   7.9459645 110.7658827  98.8234505   7.0844124 111.0640080  99.1151243
   7.9722080 110.9829226  97.8915538   4.7621215 119.3101017  95.2308311
   5.2259560 119.5888720  94.4412933   4.4978013 118.4084462  95.0481402
   1.6545296 118.8572499  98.1688074   2.2246653 119.2859767  97.5305559
   2.2453407 118.5755084  98.8672260   3.6990101 115.4324170  92.0397876
   4.4014144 115.8845213  92.5071802   3.3670729 114.7907989  92.6677769
  11.4579244 121.0312962 100.0920290  12.2796688 120.6293149  99.8102972
  11.4541647 120.9281196 101.0436406  19.5485237 117.3751710  96.4405262
  18.7948946 116.8059108  96.2849266  19.6832778 117.3414375  97.3875897
   4.3419166 109.7414571 106.3694593   5.0828879 110.3421724 106.2899055
   4.5737089 108.9992209 105.8112636   8.2876329 105.7695674 100.6458875
   7.9440598 106.6597316 100.5697985   8.6555291 105.5797332  99.7828460
   8.2526612 115.7604285  89.1531310   7.7373235 116.5308890  89.3919697
   7.9803920 115.0869421  89.7764371   5.8373723 110.6053986  94.2116548
   4.9815319 110.2160836  94.0322187   6.2500674 110.6845947  93.3516334
   7.3672869 108.1400329  98.6108108   6.8637665 108.1030465  97.7975913
   7.6603476 109.0493072  98.6704765   3.6115755 108.2239059  97.6174290
   4.4768752 108.0281868  97.2580179   3.6793264 107.9949411  98.5443646
  13.2260886 118.5136640  91.0884483  12.4490328 118.1747799  90.6439645
  13.9052367 118.5189263  90.4139448   8.0412915 113.6331377  90.9791091
   7.7363050 113.9477527  91.8301234   8.9943357 113.7112797  91.0218424
   6.4859347 119.7921601  92.6284045   5.9580708 119.0574360  92.3157282
   5.9846849 120.5696277  92.3824013  11.4652193 117.9870621  97.7451091
  10.8075867 118.6769883  97.8331220  12.2692592 118.3767053  98.0885078
   1.2178074 110.4541267  94.9890656   1.7921826 110.2316448  94.2563849
   1.8049057 110.5229962  95.7419258  10.2757651 116.3414994  95.7955033
  10.7889533 116.9744986  96.2976743  10.9258875 115.7416189  95.4298393
   1.5447661 112.4845728  89.0086542   0.7084974 112.8220415  89.3295816
   1.4052431 112.3494708  88.0713679   3.5200742 107.3282516  93.7165726
   2.8665154 107.0131533  93.0922341   3.4781216 106.7058256  94.4425549
   4.6311947 117.6101811  85.6319018   3.7239008 117.3791064  85.8310167
   5.1282979 116.8139430  85.8193000   6.7538482 113.8164449  98.0413374
   5.8361044 114.0379396  97.8835062   7.1698626 113.8910760  97.1825081
   7.5373530 115.2155865  93.1716054   8.2845349 115.7277262  92.8623176
   7.8065120 114.8939918  94.0320447   5.8100180 117.7114406  90.1543008
   4.9011399 117.4273439  90.2515478   5.8395264 118.1313484  89.2946315
  11.0419448 121.3220995  93.9234176  10.5881775 120.4811905  93.9799366
  10.4113414 121.9582394  94.2608956   9.9852367 112.2512981  95.1534843
   9.2475124 111.7390368  95.4845086  10.2379141 111.8113363  94.3418120
   9.4852387 123.1597492  94.8583994   9.7775361 123.7202549  94.1396359
   9.9951007 123.4526053  95.6137153  10.0863994 105.0289233  95.7476612
  10.3922871 104.1686597  95.4602527  10.8116599 105.6206854  95.5475606
   4.3585074 115.3243026  96.2552803   4.4133684 114.3716863  96.1795280
   3.5476276 115.4802466  96.7394102   5.5076268 119.2523150  87.4931087
   5.0695698 118.5359008  87.0336724   6.2486709 119.4799264  86.9316178
   2.2977434 113.9420086  94.0143182   1.4845300 114.2414257  94.4208374
   2.7936428 113.5475775  94.7317665   7.8951646 114.4061911 102.8458076
   8.2501034 114.6333384 103.7052542   8.5423777 114.7380287 102.2235332
  13.6249383 117.5280347  93.5507405  13.4867281 117.7181943  92.6228594
  13.2685602 118.2899729  94.0075456   1.7891509 111.5138442  99.6304417
   2.4290888 111.3727201  98.9327381   0.9569039 111.2272955  99.2543019
  13.6518762 119.5956874  98.5618677  14.0855269 119.5032163  99.4101731
  14.3650343 119.5714374  97.9238693   2.5651813 120.8140872  95.7439410
   3.3592411 120.3191192  95.5421985   1.8543505 120.2858735  95.3807115
  14.5134312 119.6380574 101.0951562  14.7070202 120.5426385 101.3410837
  14.4134930 119.1787993 101.9290147   6.1670623 109.5238465 103.5941889
   5.5198538 110.2228414 103.5006366   6.9371638 109.9574609 103.9618138
   9.5749421 119.7887317 106.6692443   9.4234927 119.5597869 105.7522526
   9.5654100 120.7457918 106.6823788   6.3434757 117.3619230 101.6538709
   7.2726817 117.5130389 101.4807677   5.9225787 117.4503251 100.7987356
   6.6928304 120.7651497  96.8126085   6.3578137 120.7252267  97.7083734
   6.1932250 120.0996213  96.3396495   9.6287496 118.1107531  87.0863144
   9.0116666 117.3854359  86.9896197   9.1603984 118.8716891  86.7430219
   3.2954849 115.8839086 101.8262345   4.0054467 115.2432278 101.7848964
   3.2524157 116.1351981 102.7488526  11.2841627 122.8206440 104.7468925
  11.2254173 122.1365660 104.0799508  11.6861146 123.5625430 104.2949551
   2.0083783 112.8704304 103.6457985   1.4721140 112.4195043 104.2979581
   1.4200491 113.0050213 102.9028449   1.4186042 112.3292955  86.2084449
   0.5415508 112.2081756  85.8446695   1.8943795 111.5379034  85.9563337
  11.2859035 120.7846023 102.9782904  10.3985813 120.4471945 103.1009303
  11.8557586 120.0529055 103.2151670   7.9146618 110.4913875  96.0981174
   8.4115317 109.7383838  95.7782245   7.1433599 110.5278192  95.5324384
  15.7676375 116.1954241  97.7399466  15.7566251 117.0778956  97.3693399
  14.8993754 115.8425792  97.5454003   8.9976398 119.2485563  93.6719598
   8.0632677 119.3687025  93.5024302   9.1753067 118.3458029  93.4079608
   4.4981586 112.6331258  95.8252859   4.1279374 112.0802299  96.5133765
   4.9940679 112.0289392  95.2727859  12.3848950 115.0902882  94.2069632
  12.8509402 115.9230873  94.1329935  12.8356450 114.6247863  94.9114890
  10.4525181 121.4346703  91.2055784  10.7285025 121.3203298  92.1149658
   9.5829680 121.0364188  91.1667957  10.3565612 107.4583469  98.2460533
   9.4428692 107.6887696  98.4142740  10.7858714 107.5421913  99.0974566
  10.1272071 115.6473361 100.7460427   9.4743521 115.8949268 100.0912880
  10.5052451 114.8337499 100.4122905  10.1185723 123.4451095 100.0827313
   9.1716058 123.3256446 100.0105639  10.4668496 122.5573593 100.1653574
   2.4785296 109.3345234 103.9065555   3.0019698 109.5807530 104.6691864
   2.2597629 110.1665269 103.4868692   0.9894400 111.8921878  92.1412157
   1.3290473 112.4207799  91.4190765   1.4366521 112.2302284  92.9170724
  10.7266278 124.0632370  97.3696538  11.6512825 123.8575231  97.2320989
  10.5581581 123.8148771  98.2785879   3.6837841 110.2758929 101.5915225
   3.3434661 109.4766742 101.9935905   2.9776847 110.5760640 101.0192058
   4.3354313 107.3608241 100.0442548   5.1580382 106.8868720  99.9221438
   4.5792376 108.1398725 100.5441234   2.9762547 110.3896500  90.3405450
   3.6970910 110.7677753  89.8369167   2.3527851 111.1085377  90.4440428
   7.1193670 111.0941649  91.2763782   7.3357285 111.9766287  90.9752610
   6.6387737 110.7027862  90.5469424   1.8592892 114.0527362  97.8534527
   1.7137472 114.3667665  98.7458808   1.3818095 114.6712262  97.3005425
   3.7189274 111.0429910  97.9015416   3.7050843 110.1471003  97.5647714
   4.4361702 111.0500574  98.5353702   5.5715405 111.4767250  99.9468544
   5.3133183 112.3984321  99.9452874   5.0400445 111.0797685 100.6369008
   3.1226170 109.9244290  93.1702986   3.2442082 108.9960936  93.3693874
   2.8328213 109.9382976  92.2581302   5.9917361 107.6099201  96.3069706
   6.0139058 107.6738534  95.3521686   6.4085420 106.7703709  96.5010212
  16.3700985 117.3454460  94.3448929  16.8132131 116.5961785  93.9468052
  15.4927495 117.3364597  93.9622661  11.5036766 123.8984802  89.8255527
  12.1987671 124.5191494  90.0442842  11.8459916 123.0480153  90.1007905
  13.4028189 121.3484507  91.3542858  13.9279514 121.6871780  90.6292178
  13.3150542 120.4131523  91.1705993  13.0922096 121.9817411 106.6594056
  12.3017639 121.9641550 106.1198556  12.8555450 122.5205705 107.4143093
  13.2119971 118.8309877 103.9726785  13.2617976 118.6659885 104.9142307
  13.1033894 117.9637136 103.5824665  10.5023733 114.8140805 105.2886091
  11.4033596 114.6747270 104.9970089  10.5771707 114.9795260 106.2284269
   4.8366538 112.1907660 104.1339278   3.9669848 112.4841226 103.8621866
   5.0726019 112.7748105 104.8546541  14.7138167 121.2506819 104.2168806
  14.4222976 121.6136799 105.0532267  14.1010299 120.5373827 104.0382138
  15.9133850 118.8159699  96.7371376  16.7480741 119.2549503  96.9008937
  16.0492979 118.3398352  95.9179622  12.9625356 116.3739433 102.6848864
  13.4379477 116.5667080 101.8767716  12.0390921 116.4298619 102.4392248
   7.5405572 108.4087277 101.6504698   8.0587516 109.1448304 101.3251187
   7.1860705 108.7151270 102.4851457   7.7918166 104.8287559  97.1705595
   8.0719920 104.1610749  97.7966021   8.5768773 105.0216655  96.6580258
  11.6627025 113.2505193 100.9177170  12.6144448 113.3503291 100.9389394
  11.4930475 112.4583462 101.4275254   9.6841404 110.3360777 101.1036571
   9.0891336 110.6165789 100.4083059   9.3991101 110.8254678 101.8753312
  11.4436911 123.6049574  86.8243151  11.3650543 123.2709437  87.7178909
  12.2646578 124.0971342  86.8234623  14.1415102 116.4711313 100.0319469
  14.1091423 115.5327314 100.2179153  14.7515726 116.5495350  99.2985294
   5.9798433 115.3407366  86.0746673   6.9257538 115.2113574  86.1435091
   5.6012678 114.6022028  86.5516102  14.2909591 113.2622357 100.0777753
  13.7748640 112.4780813  99.8907681  15.1749539 112.9341073 100.2424272
  11.9520318 107.0063372  96.0373565  11.7545139 106.6978460  96.9216897
  12.5620023 107.7325011  96.1671495  19.9591652 117.5327320  99.1725506
  20.6895041 117.2712608  99.7333210  19.3498598 116.7956042  99.2127574
  18.0406949 115.6735183  99.7699957  17.3140113 115.5391147  99.1616449
  17.6254236 115.9812011 100.5756675   4.1641350 113.2657342  86.0101559
   3.2572806 112.9690455  86.0864272   4.4417331 112.9687161  85.1435845
   5.7803416 107.8094232  92.1645800   4.9704144 107.4641317  92.5401046
   6.4687833 107.5001776  92.7533412   7.7093964 106.8872279  93.7870097
   8.2625003 107.3067732  94.4460120   7.9464051 105.9608027  93.8293053
   2.9340135 110.1244278  86.1513538   3.7959299 110.4499176  86.4109355
   3.1190479 109.3375774  85.6386604  11.0872772 108.9972804  93.2948761
  10.5071441 109.6557608  92.9126813  10.8208704 108.1750149  92.8836178
   9.5376338 108.3977862  95.4970081  10.0376116 108.5094396  94.6884400
  10.1811946 108.0938915  96.1370890   9.8697650 111.1572895  92.3505109
   8.9823505 111.4422545  92.1325304  10.2851639 110.9966658  91.5032386
  13.2212186 111.1819416  96.0659448  13.9972576 111.6715868  96.3384065
  12.4960320 111.6077470  96.5231318  15.6584744 111.8947035  97.1233389
  16.2529235 111.6542771  96.4126697  15.7311328 111.1754165  97.7506925
   9.0140863 120.9217569  86.4453129   9.7176713 121.1267572  87.0610785
   8.2903512 121.4894331  86.7102213   9.8438673 116.6727430  92.5655399
   9.7873875 117.1295982  91.7263032  10.3967016 115.9118115  92.3878242
  13.6543479 112.4617162  93.3905519  13.3980413 112.0613798  94.2213726
  13.0296347 113.1760956  93.2655658  17.9655817 115.2013236  95.8976810
  17.4055375 115.2706425  96.6708372  17.3599320 115.0254220  95.1776306
  10.9227560 121.3600098  88.4951589  11.7573164 120.9281297  88.3129064
  10.7611903 121.1882112  89.4228484  10.5773453 117.8632212  89.8607928
  10.5222256 117.6976483  88.9196373   9.9519508 118.5708245  90.0170118
   3.8869578 107.3640321  89.4393247   3.8748248 108.3082161  89.5961518
   4.7793000 107.1810466  89.1452708   7.7021698 103.9583097  93.6939184
   6.9354093 103.4041584  93.8395866   8.1132403 104.0304966  94.5553335
  22.0286951 123.2518011 101.0287561  21.6970276 124.1213422 100.8048776
  21.4332565 122.9354295 101.7081591  23.7877261 126.1729535  99.8858785
  23.1451641 126.4662068  99.2398580  23.2832190 126.0582456 100.6911982
  18.7853400 126.0950744  98.8234505  17.9237879 126.3931998  99.1151243
  18.8115834 126.3121143  97.8915538  15.1812920 125.0706489 106.3694593
  15.9222634 125.6713642 106.2899055  15.4130843 124.3284127 105.8112636
  19.1270083 121.0987592 100.6458875  18.7834353 121.9889234 100.5697985
  19.4949046 120.9089250  99.7828460  16.6767477 125.9345904  94.2116548
  15.8209073 125.5452754  94.0322187  17.0894429 126.0137865  93.3516334
  18.2066624 123.4692247  98.6108108  17.7031419 123.4322382  97.7975913
  18.4997231 124.3784990  98.6704765  14.4509510 123.5530977  97.6174290
  15.3162506 123.3573785  97.2580179  14.5187018 123.3241329  98.5443646
  14.3594496 122.6574434  93.7165726  13.7058909 122.3423451  93.0922341
  14.3174971 122.0350174  94.4425549  20.8246122 127.5804899  95.1534843
  20.0868878 127.0682285  95.4845086  21.0772895 127.1405281  94.3418120
  20.9257749 120.3581151  95.7476612  21.2316626 119.4978514  95.4602527
  21.6510354 120.9498771  95.5475606  17.0064377 124.8530382 103.5941889
  16.3592292 125.5520332 103.5006366  17.7765393 125.2866526 103.9618138
  18.7540372 125.8205793  96.0981174  19.2509072 125.0675755  95.7782245
  17.9827354 125.8570110  95.5324384  21.1959367 122.7875386  98.2460533
  20.2822447 123.0179613  98.4142740  21.6252468 122.8713831  99.0974566
  15.1748067 122.6900159 100.0442548  15.9974137 122.2160637  99.9221438
  15.4186131 123.4690643 100.5441234  16.8311115 122.9391118  96.3069706
  16.8532812 123.0030451  95.3521686  17.2479174 122.0995627  96.5010212
  18.3799327 123.7379195 101.6504698  18.8981270 124.4740222 101.3251187
  18.0254459 124.0443188 102.4851457  18.6311921 120.1579477  97.1705595
  18.9113675 119.4902666  97.7966021  19.4162528 120.3508573  96.6580258
  20.5235159 125.6652694 101.1036571  19.9285091 125.9457707 100.4083059
  20.2384855 126.1546595 101.8753312  25.1303345 128.5914274 100.0777753
  24.6142394 127.8072731  99.8907681  26.0143294 128.2632991 100.2424272
  22.7914072 122.3355290  96.0373565  22.5938893 122.0270378  96.9216897
  23.4013778 123.0616929  96.1671495  16.6197171 123.1386150  92.1645800
  15.8097899 122.7933235  92.5401046  17.3081588 122.8293694  92.7533412
  18.5487719 122.2164197  93.7870097  19.1018758 122.6359650  94.4460120
  18.7857805 121.2899945  93.8293053  21.9266526 124.3264722  93.2948761
  21.3465195 124.9849526  92.9126813  21.6602459 123.5042066  92.8836178
  20.3770092 123.7269780  95.4970081  20.8769871 123.8386314  94.6884400
  21.0205700 123.4230832  96.1370890  20.7091404 126.4864812  92.3505109
  19.8217259 126.7714463  92.1325304  21.1245393 126.3258576  91.5032386
  24.0605940 126.5111333  96.0659448  24.8366330 127.0007786  96.3384065
  23.3354074 126.9369387  96.5231318  26.4978499 127.2238952  97.1233389
  27.0922990 126.9834688  96.4126697  26.5705083 126.5046083  97.7506925
  24.4937234 127.7909080  93.3905519  24.2374168 127.3905716  94.2213726
  23.8690102 128.5052874  93.2655658  14.7263333 122.6932238  89.4393247
  14.7142002 123.6374078  89.5961518  15.6186754 122.5102384  89.1452708
  18.5415452 119.2875015  93.6939184  17.7747848 118.7333502  93.8395866
  18.9526157 119.3596884  94.5553335   2.8274023  75.8874724  83.2938259
   3.5599195  75.3173941  83.5276089   2.0713379  75.4996324  83.7344765
   2.1089754  72.5207823  86.6104092   1.4664134  72.8140356  85.9643886
   1.6044682  72.4060743  87.4157288   2.2488731  82.1851252  82.0447896
   1.5639770  82.5650153  81.4944929   2.3332581  82.7946579  82.7779844
   0.6185491  82.7083166  86.8165597   1.4402935  82.3063354  86.5348279
   0.6147894  82.6051401  87.7681713   8.7091484  79.0521915  83.1650569
   7.9555192  78.4829313  83.0094573   8.8439025  79.0184579  84.1121203
   2.3867132  80.1906845  77.8129790   1.6096575  79.8518004  77.3684952
   3.0658613  80.1959468  77.1384755   2.7855630  79.2050551  80.2752712
   2.6473528  79.3952147  79.3473901   2.4291848  79.9669934  80.7320763
   2.8125009  81.2727078  85.2863983   3.2461516  81.1802368  86.1347037
   3.5256590  81.2484579  84.6483999   3.6740559  81.3150779  87.8196869
   3.8676449  82.2196590  88.0656144   3.5741177  80.8558198  88.6535454
   4.9282622  77.8724446  84.4644773   4.9172498  78.7549161  84.0938706
   4.0600001  77.5195997  84.2699310   1.5455196  76.7673087  80.9314939
   2.0115649  77.6001078  80.8575241   1.9962697  76.3018068  81.6360197
   5.5307232  79.0224665  81.0694235   5.9738378  78.2731990  80.6713359
   4.6533742  79.0134801  80.6867967   0.6643013  85.5755007  76.5500834
   1.3593918  86.1961699  76.7688149   1.0066163  84.7250358  76.8253212
   2.5634436  83.0254712  78.0788165   3.0885760  83.3641985  77.3537485
   2.4756789  82.0901727  77.8951299   2.2528342  83.6587616  93.3839363
   1.4623886  83.6411755  92.8443862   2.0161697  84.1975909  94.1388399
   2.3726217  80.5080082  90.6972091   2.4224222  80.3430090  91.6387614
   2.2640141  79.6407341  90.3069972   3.8744414  82.9277024  90.9414113
   3.5829222  83.2907004  91.7777574   3.2616545  82.2144032  90.7627445
   5.0740096  80.4929903  83.4616683   5.9086988  80.9319707  83.6254243
   5.2099225  80.0168557  82.6424929   2.1231602  78.0509638  89.4094171
   2.5985724  78.2437285  88.6013022   1.1997168  78.1068824  89.1637554
   0.8233271  74.9275398  87.6422476   1.7750694  75.0273496  87.6634700
   0.6536722  74.1353667  88.1520561   0.6043158  85.2819779  73.5488457
   0.5256790  84.9479642  74.4424215   1.4252825  85.7741547  73.5479930
   3.3021349  78.1481518  86.7564776   3.2697669  77.2097519  86.9424460
   3.9121973  78.2265555  86.0230601   3.4515838  74.9392561  86.8023059
   2.9354886  74.1551018  86.6152988   4.3355786  74.6111278  86.9669579
   1.1126565  68.6833577  82.7618872   0.9151386  68.3748665  83.6462204
   1.7226270  69.4095216  82.8916802   9.1197899  79.2097525  85.8970813
   9.8501288  78.9482813  86.4578516   8.5104845  78.4726247  85.9372881
   7.2013196  77.3505387  86.4945264   6.4746360  77.2161352  85.8861756
   6.7860483  77.6582216  87.3001982   2.3818432  72.8589620  82.7904755
   3.1578823  73.3486073  83.0629372   1.6566567  73.2847675  83.2476625
   4.8190991  73.5717240  83.8478696   5.4135482  73.3312976  83.1372004
   4.8917575  72.8524370  84.4752232   2.8149726  74.1387367  80.1150825
   2.5586660  73.7384003  80.9459033   2.1902594  74.8531161  79.9900965
   7.1262064  76.8783441  82.6222117   6.5661622  76.9476630  83.3953679
   6.5205567  76.7024425  81.9021613   8.7118082  93.5539954  85.3152073
   9.3496492  93.4346702  84.6115413   8.5938925  94.5020798  85.3740025
   5.5207789  93.5067383  85.2513597   5.1826300  93.3908447  84.3634132
   6.3897557  93.1058548  85.2314603   1.3794604  95.3602859  81.2410488
   0.8159469  95.2692796  80.4726776   1.2646999  94.5402763  81.7212981
   6.0027572  94.6602234  91.2099803   5.9916212  94.2655033  90.3380306
   6.1648211  93.9268307  91.8033574   0.8849790  96.1162964  76.9512087
   1.6580666  95.5691951  76.8124963   1.2375189  96.9807213  77.1626549
   2.7234833  97.4439346  90.1578987   2.4324699  98.3484977  90.0425653
   3.3591817  97.4855874  90.8723056   3.6491040  94.8216195  86.7480346
   4.2454612  94.5972217  86.0337309   3.7066011  94.0800940  87.3505794
   3.2216068  92.2755630  74.5830537   3.4741589  91.7537151  73.8214000
   2.2840627  92.1121775  74.6857221   8.2659351  91.2791408  82.3905281
   9.0522440  90.8610831  82.0395698   8.5298055  92.1837500  82.5586929
   2.9412357  94.1783736  76.7854912   2.8248615  93.5028639  77.4535997
   3.0514617  93.6916110  75.9687065   5.2843898  93.6393883  80.4901602
   4.9202105  93.1124504  81.2014523   6.1411014  93.2492352  80.3168087
  11.1893198  84.9288216  87.7532868  10.8576523  85.7983627  87.5294083
  10.5938812  84.6124500  88.4326898   4.9249385  88.6683783  75.4862950
   5.0923787  89.5364019  75.8533421   4.7346554  88.8311064  74.5624239
   7.6824718  97.1300762  87.1528780   7.3825441  98.0325800  87.0444588
   7.3375777  96.8632945  88.0049933  11.0821862  89.6483302  84.8326218
  10.1738739  89.5798710  84.5384979  11.0309457  90.1255247  85.6608043
   4.9038605  91.1241440  76.4709617   4.7838231  91.5698491  77.3095097
   4.2091194  91.4726758  75.9123155   2.6645498 103.8945082  80.1199748
   2.5869527 104.8452907  80.1988229   2.0607141 103.5490954  80.7774674
   5.1562727  91.0672947  92.7761115   4.3796061  91.6266868  92.7663980
   5.7953290  91.5529730  93.2975985  12.9483508  87.8499740  86.6104092
  12.3057888  88.1432273  85.9643886  12.4438437  87.7352661  87.4157288
  10.6023672  91.5962913  77.2989951  11.5141528  91.8290300  77.1237649
  10.0933319  92.1799958  76.7365030   3.4109100  93.8758401  92.3379082
   4.1523784  94.4143445  92.0613906   2.7046085  94.5024689  92.4950634
   8.8864439  96.0187541  90.9351244   9.2947795  95.5769952  90.1905876
   8.1641701  95.4440169  91.1885436   5.2395509  90.9560148  88.3084800
   6.0856705  91.3799562  88.4519449   5.1794147  90.2993772  89.0023364
   8.3894955  88.6164516  89.9665974   8.1455887  89.3706577  89.4300250
   8.6654885  88.9949864  90.8013221  10.3433417  95.1603129  88.6443240
  10.5550313  95.8034889  87.9677621  10.2963166  94.3265445  88.1765170
   7.9459646  87.7720949  85.5479812   7.0844125  88.0702203  85.8396549
   7.9722081  87.9891348  84.6160844   4.7621216  96.3163140  81.9553618
   5.2259561  96.5950843  81.1658240   4.4978014  95.4146585  81.7726708
   1.6545297  95.8634621  84.8933381   2.2246654  96.2921890  84.2550865
   2.2453409  95.5817206  85.5917566   3.6990102  92.4386292  78.7643183
   4.4014145  92.8907336  79.2317109   3.3670730  91.7970111  79.3923076
   2.1470463  91.0298049  93.1394392   1.5169124  91.7114330  93.3729789
   2.0406551  90.9181131  92.1947530  11.4579245  98.0375084  86.8165597
  12.2796689  97.6355271  86.5348279  11.4541648  97.9343318  87.7681713
   5.2235849  97.5859127  88.9726308   5.2880281  98.0479535  89.8084479
   4.5146773  96.9556492  89.1008617   1.4251206  85.3318815  95.5019643
   1.0318152  84.7785013  96.1767287   2.2417346  85.6429393  95.8926161
   4.3419167  86.7476694  93.0939900   5.0828881  87.3483847  93.0144362
   4.5737090  86.0054332  92.5357942   6.5652343  99.8750801  92.9705630
   6.1216197  99.0887180  92.6526534   7.2269556 100.0629952  92.3049521
   1.3239464 101.4046603  87.4966308   1.8746889 101.2763666  86.7243302
   0.4850940 101.7041492  87.1461201   8.6633581 100.1553601  90.9987031
   8.6452056 100.9762482  90.5067300   9.5853501 100.0307677  91.2237172
   5.1206635  97.6697731  91.8410540   5.6534972  96.9086019  91.6109848
   4.5920716  97.3771383  92.5834694   8.2876330  82.7757797  87.3704181
   7.9440599  83.6659438  87.2943292   8.6555293  82.5859454  86.5073766
   8.2526613  92.7666408  75.8776616   7.7373236  93.5371013  76.1165004
   7.9803921  92.0931544  76.5009678   5.8373724  87.6116109  80.9361855
   4.9815320  87.2222959  80.7567494   6.2500676  87.6908069  80.0761640
   7.3672870  85.1462452  85.3353415   6.8637666  85.1092587  84.5221220
   7.6603477  86.0555195  85.3950071   3.6115756  85.2301182  84.3419596
   4.4768753  85.0343990  83.9825486   3.6793265  85.0011533  85.2688953
   8.0412916  90.6393500  77.7036398   7.7363052  90.9539649  78.5546541
   8.9943358  90.7174920  77.7463731  11.4652194  94.9932744  84.4696398
  10.8075868  95.6832005  84.5576527  12.2692593  95.3829176  84.8130384
   1.2178075  87.4603390  81.7135963   1.7921827  87.2378571  80.9809156
   1.8049058  87.5292084  82.4664564  10.2757653  93.3477116  82.5200340
  10.7889534  93.9807108  83.0222049  10.9258877  92.7478312  82.1543700
   1.5447663  89.4907851  75.7331848   0.7084975  89.8282537  76.0541123
   1.4052432  89.3556830  74.7958985   3.5200743  84.3344638  80.4411033
   2.8665155  84.0193656  79.8167647   3.4781217  83.7120379  81.1670855
   4.6311948  94.6163934  72.3564325   3.7239010  94.3853187  72.5555474
   5.1282980  93.8201553  72.5438306   6.7538484  90.8226572  84.7658680
   5.8361045  91.0441519  84.6080368   7.1698627  90.8972883  83.9070388
   7.5373531  92.2217988  79.8961360   8.2845350  92.7339385  79.5868482
   7.8065121  91.9002040  80.7565754   9.9852368  89.2575104  81.8780150
   9.2475125  88.7452490  82.2090392  10.2379142  88.8175486  81.0663427
  10.0863996  82.0351356  82.4721919  10.3922873  81.1748719  82.1847834
  10.8116601  82.6268976  82.2720913   2.2977435  90.9482209  80.7388489
   1.4845301  91.2476379  81.1453681   2.7936430  90.5537898  81.4562971
   4.4486013 100.9439966  82.6722754   4.4062192 101.1700812  81.7431286
   5.3648712 100.7103340  82.8208555   7.8951647  91.4124033  89.5703383
   8.2501035  91.6395506  90.4297849   8.5423778  91.7442410  88.9480638
   1.7891510  88.5200564  86.3549724   2.4290889  88.3789323  85.6572687
   0.9569041  88.2335078  85.9788326   2.5651814  97.8202995  82.4684716
   3.3592413  97.3253315  82.2667291   1.8543506  97.2920858  82.1052422
   7.3846659 100.2021090  86.8197084   7.4383681 100.7712027  87.5874800
   6.5161440 100.3722975  86.4551121  14.5134313  96.6442697  87.8196869
  14.7070203  97.5488507  88.0656144  14.4134931  96.1850116  88.6535454
   6.1670624  86.5300587  90.3187196   5.5198539  87.2290537  90.2251673
   6.9371639  86.9636731  90.6863444   9.5749422  96.7949440  93.3937749
   9.4234928  96.5659991  92.4767833   9.5654101  97.7520041  93.4069094
   6.3434758  94.3681352  88.3784016   7.2726818  94.5192512  88.2052983
   5.9225788  94.4565373  87.5232662   5.1423090  98.3932017  86.1482553
   5.0034176  98.0250801  87.0208492   4.3537686  98.9079656  85.9766511
   0.6672549  93.1781249  89.0623972   0.5292347  92.4461488  89.6635511
   1.5777473  93.0890150  88.7808160   9.6287497  95.1169654  73.8108451
   9.0116667  94.3916482  73.7141504   9.1603985  95.8779014  73.4675525
   3.2954850  92.8901209  88.5507652   4.0054468  92.2494401  88.5094270
   3.2524158  93.1414104  89.4733833  11.2841629  99.8268562  91.4714231
  11.2254175  99.1427782  90.8044814  11.6861147 100.5687552  91.0194857
   2.0083784  89.8766427  90.3703292   1.4721141  89.4257165  91.0224888
   1.4200492  90.0112335  89.6273756   1.4186043  89.3355078  72.9329755
   0.5415509  89.2143879  72.5692002   1.8943796  88.5441156  72.6808644
  11.2859036  97.7908146  89.7028211  10.3985815  97.4534068  89.8254610
  11.8557587  97.0591177  89.9396976   4.8160189 102.4509598  86.6689454
   4.7430361 103.2564570  87.1808759   4.3737582 102.6501564  85.8437476
   7.9146619  87.4975998  82.8226481   8.4115318  86.7445960  82.5027551
   7.1433600  87.5340315  82.2569690   7.2758873 102.3496432  88.8247613
   7.9886845 102.9843897  88.7523514   6.7848901 102.4460298  88.0087615
   4.4981588  89.6393381  82.5498166   4.1279375  89.0864421  83.2379071
   4.9940680  89.0351514  81.9973166   2.3270786 100.0990876  89.6453184
   3.0280246 100.7327359  89.7982578   1.8565901 100.4405607  88.8848823
  10.3565614  84.4645591  84.9705840   9.4428693  84.6949818  85.1388047
  10.7858715  84.5484035  85.8219872  10.1272072  92.6535483  87.4705734
   9.4743522  92.9011391  86.8158187  10.5052452  91.8399622  87.1368211
   6.1759645  93.3955294  93.9571771   5.5000282  93.2949424  94.6274146
   6.9987279  93.2394508  94.4207768   4.9182428 104.7022222  88.1929387
   5.4700736 104.8653843  88.9578472   5.2588622 105.2926660  87.5209412
   9.7693302  99.5283479  94.0478041  10.3133206 100.1413438  93.5532996
   9.1880147 100.0863058  94.5645054   8.0550815 102.6504197  85.1793069
   7.9301955 101.8493937  84.6704015   8.7129906 103.1450391  84.6907039
  10.1185724 100.4513217  86.8072619   9.1716059 100.3318569  86.7350946
  10.4668497  99.5635716  86.8898881   2.4785297  86.3407356  90.6310861
   3.0019699  86.5869653  91.3937171   2.2597630  87.1727391  90.2113999
   0.9894401  88.8984001  78.8657464   1.3290474  89.4269922  78.1436072
   1.4366522  89.2364407  79.6416030   3.6837842  87.2821051  88.3160532
   3.3434663  86.4828865  88.7181212   2.9776848  87.5822762  87.7437365
   4.3354314  84.3670364  86.7687855   5.1580383  83.8930842  86.6466745
   4.5792378  85.1460848  87.2686541   2.9762548  87.3958622  77.0650756
   3.6970911  87.7739875  76.5614473   2.3527853  88.1147499  77.1685734
   7.1193671  88.1003771  78.0009089   7.3357286  88.9828409  77.6997917
   6.6387739  87.7089985  77.2714731   1.8592893  91.0589485  84.5779833
   1.7137473  91.3729788  85.4704115   1.3818096  91.6774385  84.0250732
   3.7189276  88.0492033  84.6260723   3.7050844  87.1533126  84.2893021
   4.4361704  88.0562696  85.2599009   5.5715406  88.4829373  86.6713850
   5.3133184  89.4046443  86.6698181   5.0400447  88.0859807  87.3614314
   3.1226172  86.9306413  79.8948293   3.2442083  86.0023059  80.0939181
   2.8328214  86.9445099  78.9826608   5.9917362  84.6161323  83.0315013
   6.0139059  84.6800656  82.0766992   6.4085421  83.7765832  83.2255519
   5.0648239 102.2680703  90.2078041   5.3735366 102.0229850  91.0800741
   5.8623721 102.4727342  89.7196912   5.0868851 104.4218613  82.4383418
   4.6473842 103.9294992  83.1316275   5.8376968 103.8791581  82.1975493
   2.5342724  99.9656622  84.5105720   1.9122733  99.3027327  84.2107947
   3.2047591  99.9917754  83.8279367   2.6067251  88.4438410  94.1038226
   2.6555407  89.3200533  93.7215995   3.1489765  87.9015803  93.5309869
  13.0922097  98.9879533  93.3839363  12.3017640  98.9703672  92.8443862
  12.8555451  99.5267827  94.1388399  13.2119972  95.8372000  90.6972091
  13.2617977  95.6722007  91.6387614  13.1033895  94.9699259  90.3069972
   2.0956231  98.5160546  77.9864180   2.2444351  99.1996010  77.3330853
   2.9022674  98.4965636  78.5013636  10.5023734  91.8202928  92.0131398
  11.4033597  91.6809393  91.7215396  10.5771709  91.9857383  92.9529575
   4.8366540  89.1969783  90.8584584   3.9669849  89.4903349  90.5867173
   5.0726020  89.7810228  91.5791848  14.7138169  98.2568941  90.9414113
  14.4222977  98.6198922  91.7777574  14.1010300  97.5435950  90.7627445
  12.9625357  93.3801556  89.4094171  13.4379479  93.5729202  88.6013022
  12.0390922  93.4360742  89.1637554   7.5405573  85.4149400  88.3750005
   8.0587517  86.1510426  88.0496493   7.1860706  85.7213393  89.2096764
   7.7918168  81.8349682  83.8950901   8.0719921  81.1672871  84.5211328
   8.5768774  82.0278778  83.3825565  11.6627026  90.2567316  87.6422476
  12.6144449  90.3565414  87.6634700  11.4930476  89.4645585  88.1520561
   9.6841405  87.3422899  87.8281877   9.0891337  87.6227912  87.1328366
   9.3991102  87.8316800  88.5998618   5.9798435  92.3469489  72.7991980
   6.9257539  92.2175697  72.8680398   5.6012680  91.6084151  73.2761408
  14.2909592  90.2684479  86.8023059  13.7748641  89.4842936  86.6152988
  15.1749541  89.9403196  86.9669579  11.9520319  84.0125495  82.7618872
  11.7545140  83.7040583  83.6462204  12.5620025  84.7387134  82.8916802
   5.8637127  96.3987235  94.2592637   6.7840137  96.5765834  94.4532684
   5.8286710  95.4543280  94.1072336   4.1641352  90.2719465  72.7346865
   3.2572807  89.9752578  72.8109579   4.4417333  89.9749283  71.8681152
   5.7803417  84.8156355  78.8891107   4.9704146  84.4703440  79.2646353
   6.4687834  84.5063899  79.4778718   7.7093966  83.8934402  80.5115403
   8.2625004  84.3129855  81.1705426   7.9464052  82.9670150  80.5538359
   3.7327065  89.8821475  96.2918167   3.6323792  90.8315832  96.2230258
   3.5148607  89.5539714  95.4194237   2.9340136  87.1306400  72.8758845
   3.7959300  87.4561299  73.1354662   3.1190480  86.3437896  72.3631910
  11.0872773  86.0034927  80.0194068  10.5071442  86.6619731  79.6372120
  10.8208705  85.1812271  79.6081485   9.5376339  85.4039984  82.2215388
  10.0376118  85.5156519  81.4129707  10.1811947  85.1001037  82.8616196
   3.5958335  93.3118614  95.1083229   3.1125417  94.1118974  95.3147118
   3.6819274  93.3226559  94.1550673   9.8697651  88.1635017  79.0750416
   8.9823506  88.4484668  78.8570611  10.2851640  88.0028781  78.2277693
  13.2212187  88.1881538  82.7904755  13.9972577  88.6777991  83.0629372
  12.4960321  88.6139592  83.2476625   9.0140864  97.9279692  73.1698436
   9.7176714  98.1329694  73.7856091   8.2903513  98.4956454  73.4347519
  13.6543480  89.4679285  80.1150825  13.3980415  89.0675921  80.9459033
  13.0296349  90.1823079  79.9900965   7.8919361  97.1743246  95.9106798
   8.7610521  97.3483898  95.5493433   7.4126113  97.9937663  95.7882527
   3.8869579  84.3702443  76.1638554   3.8748249  85.3144283  76.3206824
   4.7793001  84.1872589  75.8698015   2.0605541 104.2940347  87.5896232
   2.9632788 104.3263957  87.9062727   1.8342911 103.3640798  87.6042567
   3.8159143 103.0471334  84.2506310   2.8654774 103.0473195  84.1370682
   4.1191629 102.3004068  83.7342345   7.7021699  80.9645220  80.4184490
   6.9354095  80.4103707  80.5641173   8.1132404  81.0367089  81.2798642
  19.5511837 108.8831872  85.3152073  20.1890247 108.7638619  84.6115413
  19.4332680 109.8312716  85.3740025  16.3601543 108.8359300  85.2513597
  16.0220055 108.7200365  84.3634132  17.2291311 108.4350465  85.2314603
  16.8421326 109.9894152  91.2099803  16.8309967 109.5946950  90.3380306
  17.0041966 109.2560225  91.8033574   9.7652791 112.1845968  84.0794709
  10.5574083 111.8436793  83.6641008  10.0049441 112.2940943  84.9996862
  17.7987917 114.3565744  76.5524953  17.1475897 114.9419825  76.1658967
  18.5932280 114.8871939  76.6119991  11.7243545 111.4454882  76.9512087
  12.4974421 110.8983869  76.8124963  12.0768944 112.3099131  77.1626549
  13.5628587 112.7731264  90.1578987  13.2718453 113.6776895  90.0425653
  14.1985572 112.8147791  90.8723056  14.4884794 110.1508112  86.7480346
  15.0848366 109.9264135  86.0337309  14.5459766 109.4092858  87.3505794
  14.0609822 107.6047548  74.5830537  14.3135343 107.0829069  73.8214000
  13.1234382 107.4413693  74.6857221  19.2763183 112.0456176  77.0893937
  18.6409016 112.1190803  77.8014842  18.9460589 112.6349775  76.4113017
  13.7806111 109.5075654  76.7854912  13.6642369 108.8320557  77.4535997
  13.8908371 109.0208028  75.9687065  16.1237652 108.9685801  80.4901602
  15.7595859 108.4416422  81.2014523  16.9804768 108.5784270  80.3168087
  18.5218472 112.4592679  87.1528780  18.2219195 113.3617718  87.0444588
  18.1769532 112.1924863  88.0049933  11.9730954 108.9106476  83.1865485
  11.0481450 108.7782690  83.3943177  12.2215367 109.6900695  83.6835427
   9.3339765 108.5539750  84.0209274   9.4632146 108.8074229  84.9348686
   8.6537216 109.1467458  83.7013929  13.5039252 119.2237000  80.1199748
  13.4263282 120.1744825  80.1988229  12.9000896 118.8782872  80.7774674
  15.9956482 106.3964865  92.7761115  15.2189816 106.9558785  92.7663980
  16.6347045 106.8821648  93.2975985  14.2502854 109.2050318  92.3379082
  14.9917539 109.7435362  92.0613906  13.5439840 109.8316607  92.4950634
  19.7258194 111.3479459  90.9351244  20.1341550 110.9061869  90.1905876
  19.0035455 110.7732086  91.1885436  16.0789264 106.2852066  88.3084800
  16.9250459 106.7091479  88.4519449  16.0187902 105.6285690  89.0023364
  20.0487008 111.9080650  84.6903532  19.4195871 112.0726364  83.9879600
  19.6612671 112.3222259  85.4614496  23.9276240 112.8435087  82.0447896
  23.2427279 113.2233989  81.4944929  24.0120090 113.4530414  82.7779844
  19.2288709 103.9456434  89.9665974  18.9849641 104.6998495  89.4300250
  19.5048640 104.3241782  90.8013221  21.1827172 110.4895046  88.6443240
  21.3944067 111.1326806  87.9677621  21.1356920 109.6557363  88.1765170
  15.6014970 111.6455058  81.9553618  16.0653316 111.9242761  81.1658240
  15.3371768 110.7438502  81.7726708  12.4939051 111.1926539  84.8933381
  13.0640408 111.6213808  84.2550865  13.0847163 110.9109124  85.5917566
  12.9864218 106.3589967  93.1394392  12.3562878 107.0406247  93.3729789
  12.8800306 106.2473048  92.1947530   8.2809190 106.0261763  84.0660316
   7.4908244 106.2819291  83.5900427   8.7720438 106.8410100  84.1712357
  22.2973000 113.3667002  86.8165597  23.1190444 112.9647189  86.5348279
  22.2935403 113.2635236  87.7681713  10.2323936 106.3906342  81.0243793
   9.4355099 106.5025036  81.5427289  10.0049528 106.7292994  80.1584683
  16.0629603 112.9151045  88.9726308  16.1274036 113.3771452  89.8084479
  15.3540527 112.2848410  89.1008617   6.5646893 106.2792253  86.4975307
   6.8154932 107.1639263  86.7632883   7.1006442 106.0996855  85.7250399
  15.7777621 114.5819153  78.8405288  15.6423296 115.4270688  79.2690136
  16.3187434 114.7838430  78.0771222  12.2644961 100.6610732  95.5019643
  11.8711906 100.1076931  96.1767287  13.0811101 100.9721311  95.8926161
   9.2307018 112.0994591  79.4133213   9.7431539 112.8937841  79.5638778
   9.8829731 111.4020881  79.3466814  11.0401903 115.2160347  81.4955966
  11.2168531 116.1378312  81.3076950  11.8358737 114.9018766  81.9250346
  15.1812922 102.0768612  93.0939900  15.9222635 102.6775765  93.0144362
  15.4130844 101.3346249  92.5357942  10.3254260 107.2624979  91.3718129
  10.2107775 106.3610236  91.6725228   9.4698777 107.5088676  91.0202946
  17.4046097 115.2042719  92.9705630  16.9609952 114.4179098  92.6526534
  18.0663311 115.3921870  92.3049521  12.1633219 116.7338521  87.4966308
  12.7140644 116.6055584  86.7243302  11.3244694 117.0333410  87.1461201
  19.5027335 115.4845519  90.9987031  19.4845811 116.3054400  90.5067300
  20.4247256 115.3599594  91.2237172  15.9600390 112.9989649  91.8410540
  16.4928726 112.2377937  91.6109848  15.4314471 112.7063300  92.5834694
   7.1955935 110.4283245  80.1892783   8.0331157 110.8380253  79.9726491
   7.3734203 109.4882687  80.1592977  24.0654641 110.8490680  77.8129790
  23.2884084 110.5101840  77.3684952  24.7446122 110.8543303  77.1384755
  17.3253102 112.1275641  79.3529352  16.7974464 111.3928401  79.0402589
  16.8240605 112.9050317  79.1069320  22.3045948 110.3224661  84.4696398
  21.6469623 111.0123923  84.5576527  23.1086348 110.7121093  84.8130384
  15.4705702 109.9455851  72.3564325  14.5632764 109.7145105  72.5555474
  15.9676734 109.1493471  72.5438306  18.3773781 118.6553358  75.2761011
  17.7035480 118.9585055  75.8845969  18.7639603 119.4582439  74.9266468
  17.5932238 106.1518490  84.7658680  16.6754799 106.3733437  84.6080368
  18.0092382 106.2264800  83.9070388  16.6493936 110.0468446  76.8788315
  15.7405155 109.7627479  76.9760784  16.6789020 110.4667525  76.0191622
  21.8813203 113.6575036  80.6479482  21.4275530 112.8165946  80.7044673
  21.2507170 114.2936434  80.9854262  20.3246143 115.4951532  81.5829300
  20.6169117 116.0556589  80.8641666  20.8344763 115.7880093  82.3382460
   7.2182106 107.7673960  80.8603517   7.0206506 107.1743321  80.1354584
   6.6628770 107.4626170  81.5779456  15.1978830 107.6597067  82.9798110
  15.2527440 106.7070903  82.9040587  14.3870032 107.8156506  83.4639409
  16.3470024 111.5877190  74.2176393  15.9089454 110.8713049  73.7582031
  17.0880465 111.8153305  73.6561485  15.2879768 116.2731883  82.6722754
  15.2455947 116.4992730  81.7431286  16.2042467 116.0395258  82.8208555
  18.7345402 106.7415951  89.5703383  19.0894789 106.9687424  90.4297849
  19.3817533 107.0734328  88.9480638  24.4643139 109.8634387  80.2752712
  24.3261037 110.0535983  79.3473901  24.1079357 110.6253770  80.7320763
  24.4912518 111.9310914  85.2863983  24.9249025 111.8386203  86.1347037
  25.2044099 111.9068414  84.6483999  13.4045569 113.1494912  82.4684716
  14.1986167 112.6545233  82.2667291  12.6937261 112.6212776  82.1052422
  18.2240413 115.5313008  86.8197084  18.2777435 116.1003944  87.5874800
  17.3555194 115.7014893  86.4551121   9.7128332 107.2937994  78.5444469
   8.7825920 107.2322450  78.7614431   9.8085804 106.7713947  77.7481110
  11.1038806 105.2330564  88.3021535  11.7761860 105.0247926  87.6534184
  10.2768593 105.0352650  87.8626768  25.3528068 111.9734614  87.8196869
  25.5463958 112.8780425  88.0656144  25.2528686 111.5142034  88.6535454
  17.0064378 101.8592505  90.3187196  16.3592293 102.5582455  90.2251673
  17.7765394 102.2928649  90.6863444  20.4143176 112.1241357  93.3937749
  20.2628683 111.8951909  92.4767833  20.4047856 113.0811959  93.4069094
  17.1828513 109.6973270  88.3784016  18.1120573 109.8484430  88.2052983
  16.7619543 109.7857291  87.5232662  15.9816845 113.7223934  86.1482553
  15.8427930 113.3542719  87.0208492  15.1931441 114.2371574  85.9766511
  16.5764997 118.8233031  77.4908090  16.7516752 118.3521074  78.3053713
  15.8897785 119.4498797  77.7189351  17.5322060 113.1005537  83.5371391
  17.1971892 113.0606307  84.4329041  17.0326005 112.4350253  83.0641801
  11.5066304 108.5073167  89.0623972  11.3686102 107.7753406  89.6635511
  12.4171227 108.4182067  88.7808160  20.4681251 110.4461571  73.8108451
  19.8510422 109.7208400  73.7141504  19.9997740 111.2070932  73.4675525
  14.1348604 108.2193126  88.5507652  14.8448223 107.5786319  88.5094270
  14.0917912 108.4706021  89.4733833  22.1235383 115.1560480  91.4714231
  22.0647929 114.4719700  90.8044814  22.5254901 115.8979470  91.0194857
  12.8477538 105.2058344  90.3703292  12.3114895 104.7549083  91.0224888
  12.2594247 105.3404253  89.6273756  11.1426082 121.9722394  84.2647950
  11.3822680 122.6040918  84.9426969  10.2995278 121.6210434  84.5513309
  12.2579797 104.6646996  72.9329755  11.3809264 104.5435797  72.5692002
  12.7337550 103.8733074  72.6808644  22.1252790 113.1200064  89.7028211
  21.2379569 112.7825986  89.8254610  22.6951341 112.3883095  89.9396976
   3.7781937 109.4524155  83.0271262   4.4652977 109.1385886  82.4392278
   3.6230066 110.3565520  82.7538514   8.5816660 104.3414352  87.4556286
   8.4974848 103.7340022  86.7206696   7.7599366 104.8323370  87.4565782
  15.6553944 117.7801516  86.6689454  15.5824115 118.5856488  87.1808759
  15.2131337 117.9793482  85.8437476  15.4443723 117.0173286  80.1792276
  14.6611245 117.5594966  80.2730500  16.1436468 117.5347266  80.5786517
  18.1152627 117.6788350  88.8247613  18.8280599 118.3135815  88.7523514
  17.6242656 117.7752216  88.0087615  19.8370154 111.5839603  80.3964904
  18.9026433 111.7041065  80.2269609  20.0146823 110.6812070  80.1324914
  13.1664541 115.4282794  89.6453184  13.8674000 116.0619277  89.7982578
  12.6959656 115.7697525  88.8848823  21.2918937 113.7700743  77.9301091
  21.5678780 113.6557338  78.8394965  20.4223435 113.3718228  77.8913264
  20.9665827 107.9827401  87.4705734  20.3137277 108.2303308  86.8158187
  21.3446207 107.1691539  87.1368211  17.9273001 118.0187094  81.5733904
  18.1095395 117.2008750  82.0361657  18.7505987 118.2354786  81.1358794
  18.2615166 116.9455279  78.8348953  18.7902932 116.4347734  78.2219115
  18.5243386 116.6297810  79.6994486  17.0153400 108.7247212  93.9571771
  16.3394037 108.6241341  94.6274146  17.8381034 108.5686426  94.4207768
   8.7632259 114.9619149  86.5784286   9.3485696 114.2162837  86.7112191
   8.5657097 115.2723105  87.4620950  11.6170914 117.9970396  81.5946729
  10.9481289 118.4816524  81.1110769  11.4783784 118.2439616  82.5090107
   3.3549914 107.5324749  85.2988729   3.3934013 106.9988340  86.0925848
   2.8490206 107.0059954  84.6799707  15.7576183 120.0314140  88.1929387
  16.3094491 120.1945761  88.9578472  16.0982376 120.6218577  87.5209412
  10.7340676 102.3789289  88.7951272  10.7982002 103.2404120  88.3828669
  10.6707796 101.7663291  88.0623630  10.2092948 104.4512422  92.4424306
  10.8364987 104.0689499  93.0561830   9.3520867 104.2326624  92.8079999
  20.6087057 114.8575397  94.0478041  21.1526961 115.4705355  93.5532996
  20.0273902 115.4154975  94.5645054  18.8944570 117.9796115  85.1793069
  18.7695709 117.1785855  84.6704015  19.5523661 118.4742308  84.6907039
  20.9579478 115.7805135  86.8072619  20.0109814 115.6610486  86.7350946
  21.3062251 114.8927633  86.8898881  13.3179052 101.6699274  90.6310861
  13.8413453 101.9161571  91.3937171  13.0991385 102.5019309  90.2113999
  17.9625912 115.5757851  83.0076972  17.8150874 114.6474559  83.1884542
  18.7879405 115.5977942  82.5234047  21.5660033 116.3986410  84.0941844
  22.4906581 116.1929271  83.9566295  21.3975337 116.1502811  85.0031186
  21.3555350 116.9172078  79.4503936  21.5292227 116.3518500  78.6977788
  21.8484241 117.7172972  79.2683426   7.1732309 108.9286747  87.5167495
   6.6285777 109.7046555  87.6487769   8.0511659 109.2757551  87.3586616
  22.3430522 116.2338842  76.5500834  23.0381427 116.8545535  76.7688149
  22.6853672 115.3834193  76.8253212   7.9598331 108.0556643  90.4097651
   7.2180067 108.2039278  90.9962282   7.6391076 108.3164909  89.5464401
  24.2421945 113.6838547  78.0788165  24.7673269 114.0225820  77.3537485
  24.1544298 112.7485563  77.8951299  15.9041994 117.5972621  90.2078041
  16.2129120 117.3521768  91.0800741  16.7017476 117.8019260  89.7196912
  15.9262606 119.7510531  82.4383418  15.4867596 119.2586909  83.1316275
  16.6770723 119.2083498  82.1975493   8.4054945 115.9422072  82.4408046
   9.2312965 115.6425843  82.0606690   8.0548997 115.1729694  82.8897835
  13.3736478 115.2948540  84.5105720  12.7516487 114.6319245  84.2107947
  14.0441345 115.3209672  83.8279367   6.6063550 113.8608398  83.3996980
   5.7695458 113.4330572  83.2180981   6.5787195 114.0540841  84.3367771
  13.4461006 103.7730328  94.1038226  13.4949161 104.6492451  93.7215995
  13.9883520 103.2307721  93.5309869  23.9315851 114.3171451  93.3839363
  23.1411395 114.2995590  92.8443862  23.6949206 114.8559745  94.1388399
  24.0513726 111.1663917  90.6972091  24.1011731 111.0013925  91.6387614
  23.9427650 110.2991177  90.3069972  12.9349985 113.8452463  77.9864180
  13.0838105 114.5287928  77.3330853  13.7416428 113.8257553  78.5013636
  21.3417489 107.1494846  92.0131398  22.2427351 107.0101310  91.7215396
  21.4165463 107.3149300  92.9529575  15.6760294 104.5261700  90.8584584
  14.8063603 104.8195266  90.5867173  15.9119774 105.1102145  91.5791848
  25.5531923 113.5860859  90.9414113  25.2616731 113.9490840  91.7777574
  24.9404054 112.8727867  90.7627445  26.7527605 111.1513739  83.4616683
  27.5874497 111.5903543  83.6254243  26.8886734 110.6752392  82.6424929
  23.8019111 108.7093474  89.4094171  24.2773233 108.9021120  88.6013022
  22.8784677 108.7652659  89.1637554  10.6902618 109.8717641  78.9925249
  10.4448660 108.9679971  79.1905459  10.8598533 109.8734791  78.0504727
  16.4345391 116.3400594  75.4575928  15.8619358 116.9590781  75.0046399
  17.0078184 116.8899955  75.9915850  22.5020780 105.5859234  87.6422476
  23.4538203 105.6857331  87.6634700  22.3324231 104.7937502  88.1520561
  19.6542650 116.6237744  76.5884510  20.5873323 116.5583305  76.7917385
  19.5665863 117.4594011  76.1299043  22.2830667 115.9403614  73.5488457
  22.2044299 115.6063478  74.4424215  23.1040334 116.4325382  73.5479930
  24.9808858 108.8065353  86.7564776  24.9485178 107.8681354  86.9424460
  25.5909482 108.8849390  86.0230601  16.8192189 107.6761406  72.7991980
  17.7651294 107.5467614  72.8680398  16.4406434 106.9376068  73.2761408
  25.1303347 105.5976397  86.8023059  24.6142395 104.8134853  86.6152988
  26.0143295 105.2695113  86.9669579  30.7985408 109.8681360  85.8970813
  31.5288797 109.6066648  86.4578516  30.1892354 109.1310082  85.9372881
  28.8800705 108.0089223  86.4945264  28.1533869 107.8745188  85.8861756
  28.4647992 108.3166051  87.3001982  16.7030882 111.7279153  94.2592637
  17.6233891 111.9057752  94.4532684  16.6680465 110.7835198  94.1072336
  15.0035106 105.6011383  72.7346865  14.0966562 105.3044495  72.8109579
  15.2811087 105.3041201  71.8681152   5.9213047 106.9217746  83.1845912
   5.6015831 106.0683054  82.8920286   5.3746475 107.1366324  83.9403879
   9.6992954 109.6380187  86.9015418   9.9178964 110.5697295  86.9203452
  10.1118728 109.2788162  87.6870222  14.5720819 105.2113393  96.2918167
  14.4717546 106.1607750  96.2230258  14.3542361 104.8831632  95.4194237
  13.7733891 102.4598318  72.8758845  14.6353055 102.7853216  73.1354662
  13.9584235 101.6729814  72.3631910   5.7901307 110.5420658  85.1539033
   5.0964778 110.1274610  84.6408988   6.5374298 110.5841194  84.5572452
  14.4352090 108.6410532  95.1083229  13.9519171 109.4410892  95.3147118
  14.5213029 108.6518477  94.1550673   7.7038049 110.4738911  83.0305048
   7.6808737 110.5726599  82.0786931   8.0138686 111.3204062  83.3522214
  10.3625427 112.5315066  87.1451663  11.3168681 112.4999009  87.0781594
  10.1637951 112.0705690  87.9601889  10.9524809 111.1016183  89.7122460
  11.7717698 111.5960261  89.7357298  11.2261617 110.1848151  89.6840028
   8.7175656 118.0734686  84.1621860   8.5830124 117.3135087  83.5959859
   8.3007718 118.7975586  83.6950649  19.8534619 113.2571609  73.1698436
  20.5570469 113.4621612  73.7856091  19.1297268 113.8248371  73.4347519
  11.8744782 118.9704003  84.3740303  11.7577166 119.9149435  84.2718993
  11.0537228 118.6677565  84.7626102  21.7621316 113.6954139  75.2196896
  22.5966920 113.2635337  75.0374371  21.6005659 113.5236152  76.1473790
   6.2059723 105.4354316  90.4114657   6.8518587 104.9253270  90.9001883
   5.9976874 106.1722998  90.9858083  18.7313116 112.5035164  95.9106798
  19.6004275 112.6775816  95.5493433  18.2519867 113.3229581  95.7882527
  12.8999296 119.6232265  87.5896232  13.8026542 119.6555875  87.9062727
  12.6736666 118.6932716  87.6042567  14.6552898 118.3763251  84.2506310
  13.7048529 118.3765113  84.1370682  14.9585384 117.6295986  83.7342345
  10.5457214 102.5821933  94.5089672  11.4088676 102.2258738  94.7192996
   9.9722625 102.2435828  95.1965076  30.3905591 124.2123790  85.3152073
  31.0284001 124.0930537  84.6115413  30.2726434 125.1604634  85.3740025
  27.1995298 124.1651218  85.2513597  26.8613809 124.0492283  84.3634132
  28.0685066 123.7642383  85.2314603  23.0582113 126.0186694  81.2410488
  22.4946978 125.9276631  80.4726776  22.9434508 125.1986599  81.7212981
  27.6815081 125.3186070  91.2099803  27.6703721 124.9238868  90.3380306
  27.8435720 124.5852142  91.8033574  20.6046545 127.5137886  84.0794709
  21.3967837 127.1728711  83.6641008  20.8443195 127.6232861  84.9996862
  22.5637299 126.7746799  76.9512087  23.3368175 126.2275786  76.8124963
  22.9162698 127.6391049  77.1626549  25.3278549 125.4800030  86.7480346
  25.9242121 125.2556052  86.0337309  25.3853520 124.7384775  87.3505794
  24.9003577 122.9339465  74.5830537  25.1529098 122.4120987  73.8214000
  23.9628136 122.7705611  74.6857221  29.9446860 121.9375244  82.3905281
  30.7309949 121.5194667  82.0395698  30.2085564 122.8421336  82.5586929
  30.1156937 127.3748094  77.0893937  29.4802770 127.4482720  77.8014842
  29.7854344 127.9641693  76.4113017  35.3455287 121.8750477  83.2938259
  36.0780459 121.3049694  83.5276089  34.5894643 121.4872077  83.7344765
  24.6199866 124.8367571  76.7854912  24.5036124 124.1612475  77.4535997
  24.7302126 124.3499945  75.9687065  26.9631407 124.2977718  80.4901602
  26.5989614 123.7708339  81.2014523  27.8198523 123.9076187  80.3168087
  32.8680707 115.5872051  87.7532868  32.5364032 116.4567462  87.5294083
  32.2726321 115.2708335  88.4326898  26.6036894 119.3267618  75.4862950
  26.7711296 120.1947854  75.8533421  26.4134063 119.4894900  74.5624239
  29.3612227 127.7884597  87.1528780  29.0612950 128.6909636  87.0444588
  29.0163286 127.5216780  88.0049933  22.8124708 124.2398394  83.1865485
  21.8875205 124.1074608  83.3943177  23.0609121 125.0192613  83.6835427
  32.7609371 120.3067137  84.8326218  31.8526248 120.2382546  84.5384979
  32.7096966 120.7839082  85.6608043  26.5826114 121.7825276  76.4709617
  26.4625740 122.2282326  77.3095097  25.8878703 122.1310593  75.9123155
  20.1733519 123.8831667  84.0209274  20.3025900 124.1366146  84.9348686
  19.4930971 124.4759375  83.7013929  26.8350236 121.7256783  92.7761115
  26.0583570 122.2850703  92.7663980  27.4740799 122.2113566  93.2975985
  34.6271017 118.5083576  86.6104092  33.9845397 118.8016109  85.9643886
  34.1225945 118.3936496  87.4157288  32.2811181 122.2546749  77.2989951
  33.1929037 122.4874135  77.1237649  31.7720828 122.8383793  76.7365030
  25.0896609 124.5342236  92.3379082  25.8311293 125.0727280  92.0613906
  24.3833594 125.1608525  92.4950634  30.5651948 126.6771377  90.9351244
  30.9735304 126.2353787  90.1905876  29.8429210 126.1024004  91.1885436
  26.9183018 121.6143983  88.3084800  27.7644214 122.0383397  88.4519449
  26.8581656 120.9577608  89.0023364  30.8880763 127.2372567  84.6903532
  30.2589625 127.4018281  83.9879600  30.5006425 127.6514177  85.4614496
  34.7669995 128.1727005  82.0447896  34.0821033 128.5525906  81.4944929
  34.8513844 128.7822332  82.7779844  30.0682464 119.2748352  89.9665974
  29.8243396 120.0290412  89.4300250  30.3442394 119.6533699  90.8013221
  32.0220926 125.8186964  88.6443240  32.2337822 126.4618724  87.9677621
  31.9750675 124.9849281  88.1765170  29.6247155 118.4304785  85.5479812
  28.7631634 118.7286038  85.8396549  29.6509590 118.6475184  84.6160844
  26.4408725 126.9746975  81.9553618  26.9047070 127.2534678  81.1658240
  26.1765523 126.0730420  81.7726708  23.3332806 126.5218457  84.8933381
  23.9034163 126.9505725  84.2550865  23.9240918 126.2401042  85.5917566
  25.3777611 123.0970128  78.7643183  26.0801654 123.5491171  79.2317109
  25.0458239 122.4553947  79.3923076  23.8257972 121.6881884  93.1394392
  23.1956633 122.3698165  93.3729789  23.7194060 121.5764966  92.1947530
  19.1202945 121.3553680  84.0660316  18.3301999 121.6111209  83.5900427
  19.6114192 122.1702018  84.1712357  33.1366754 128.6958919  86.8165597
  33.9584198 128.2939107  86.5348279  33.1329157 128.5927154  87.7681713
  21.0717690 121.7198260  81.0243793  20.2748853 121.8316954  81.5427289
  20.8443282 122.0584912  80.1584683  26.9023358 128.2442963  88.9726308
  26.9667790 128.7063370  89.8084479  26.1934282 127.6140328  89.1008617
  17.4040648 121.6084171  86.4975307  17.6548686 122.4931181  86.7632883
  17.9400196 121.4288772  85.7250399  41.2272747 125.0397668  83.1650569
  40.4736456 124.4705066  83.0094573  41.3620289 125.0060332  84.1121203
  23.1038715 115.9902650  95.5019643  22.7105661 115.4368849  96.1767287
  23.9204855 116.3013229  95.8926161  26.0206676 117.4060529  93.0939900
  26.7616389 118.0067682  93.0144362  26.2524599 116.6638167  92.5357942
  21.1648014 122.5916896  91.3718129  21.0501529 121.6902154  91.6725228
  20.3092532 122.8380593  91.0202946  26.7994144 128.3281566  91.8410540
  27.3322481 127.5669854  91.6109848  26.2708225 128.0355218  92.5834694
  29.9663839 113.4341632  87.3704181  29.6228108 114.3243274  87.2943292
  30.3342802 113.2443290  86.5073766  18.0349690 125.7575163  80.1892783
  18.8724912 126.1672171  79.9726491  18.2127957 124.8174605  80.1592977
  29.9314122 123.4250243  75.8776616  29.4160745 124.1954848  76.1165004
  29.6591430 122.7515379  76.5009678  27.5161233 118.2699944  80.9361855
  26.6602829 117.8806794  80.7567494  27.9288185 118.3491905  80.0761640
  29.0460379 115.8046287  85.3353415  28.5425175 115.7676422  84.5221220
  29.3390986 116.7139030  85.3950071  25.2903265 115.8885017  84.3419596
  26.1556262 115.6927826  83.9825486  25.3580774 115.6595369  85.2688953
  34.9048396 126.1782598  77.8129790  34.1277839 125.8393757  77.3684952
  35.5839877 126.1835221  77.1384755  29.7200425 121.2977335  77.7036398
  29.4150561 121.6123485  78.5546541  30.6730867 121.3758755  77.7463731
  28.1646857 127.4567559  79.3529352  27.6368218 126.7220318  79.0402589
  27.6634360 128.2342235  79.1069320  33.1439703 125.6516579  84.4696398
  32.4863377 126.3415841  84.5576527  33.9480102 126.0413011  84.8130384
  22.8965584 118.1187225  81.7135963  23.4709336 117.8962406  80.9809156
  23.4836567 118.1875919  82.4664564  31.9545162 124.0060952  82.5200340
  32.4677043 124.6390944  83.0222049  32.6046386 123.4062147  82.1543700
  23.2235172 120.1491686  75.7331848  22.3872484 120.4866373  76.0541123
  23.0839941 120.0140666  74.7958985  25.1988252 114.9928474  80.4411033
  24.5452664 114.6777491  79.8167647  25.1568726 114.3704214  81.1670855
  26.3099457 125.2747769  72.3564325  25.4026519 125.0437022  72.5555474
  26.8070489 124.4785388  72.5438306  28.4325992 121.4810407  84.7658680
  27.5148554 121.7025354  84.6080368  28.8486136 121.5556718  83.9070388
  29.2161040 122.8801823  79.8961360  29.9632859 123.3923220  79.5868482
  29.4852630 122.5585876  80.7565754  27.4887690 125.3760364  76.8788315
  26.5798910 125.0919397  76.9760784  27.5182774 125.7959442  76.0191622
  32.7206958 128.9866953  80.6479482  32.2669285 128.1457863  80.7044673
  32.0900925 129.6228352  80.9854262  31.6639877 119.9158939  81.8780150
  30.9262634 119.4036326  82.2090392  31.9166651 119.4759321  81.0663427
  31.1639897 130.8243450  81.5829300  31.4562871 131.3848507  80.8641666
  31.6738518 131.1172011  82.3382460  31.7651505 112.6935191  82.4721919
  32.0710382 111.8332555  82.1847834  32.4904110 113.2852812  82.2720913
  18.0575861 123.0965878  80.8603517  17.8600261 122.5035239  80.1354584
  17.5022525 122.7918088  81.5779456  26.0372584 122.9888984  82.9798110
  26.0921194 122.0362821  82.9040587  25.2263786 123.1448423  83.4639409
  27.1863778 126.9169107  74.2176393  26.7483208 126.2004966  73.7582031
  27.9274219 127.1445222  73.6561485  23.9764944 121.6066044  80.7388489
  23.1632810 121.9060215  81.1453681  24.4723939 121.2121733  81.4562971
  29.5739156 122.0707869  89.5703383  29.9288544 122.2979342  90.4297849
  30.2211287 122.4026245  88.9480638  35.3036893 125.1926305  80.2752712
  35.1654792 125.3827900  79.3473901  34.9473112 125.9545687  80.7320763
  23.4679019 119.1784400  86.3549724  24.1078398 119.0373159  85.6572687
  22.6356550 118.8918913  85.9788326  35.3306273 127.2602832  85.2863983
  35.7642779 127.1678121  86.1347037  36.0437853 127.2360332  84.6483999
  24.2439323 128.4786830  82.4684716  25.0379922 127.9837150  82.2667291
  23.5331015 127.9504693  82.1052422  20.5522087 122.6229912  78.5444469
  19.6219675 122.5614367  78.7614431  20.6479558 122.1005865  77.7481110
  20.4707636 119.1484725  81.1322711  20.7314453 120.0630058  81.0231871
  21.2924808 118.6809167  81.2819324  21.9432561 120.5622482  88.3021535
  22.6155614 120.3539844  87.6534184  21.1162347 120.3644568  87.8626768
  36.1921822 127.3026532  87.8196869  36.3857712 128.2072343  88.0656144
  36.0922440 126.8433951  88.6535454  27.8458133 117.1884423  90.3187196
  27.1986048 117.8874372  90.2251673  28.6159148 117.6220567  90.6863444
  31.2536931 127.4533275  93.3937749  31.1022437 127.2243827  92.4767833
  31.2441610 128.4103876  93.4069094  28.0222267 125.0265188  88.3784016
  28.9514327 125.1776347  88.2052983  27.6013297 125.1149208  87.5232662
  28.3715814 128.4297455  83.5371391  28.0365647 128.3898225  84.4329041
  27.8719760 127.7642171  83.0641801  22.3460058 123.8365085  89.0623972
  22.2079856 123.1045324  89.6635511  23.2564982 123.7473985  88.7808160
  31.3075006 125.7753489  73.8108451  30.6904176 125.0500317  73.7141504
  30.8391494 126.5362849  73.4675525  24.9742359 123.5485044  88.5507652
  25.6841977 122.9078236  88.5094270  24.9311667 123.7997939  89.4733833
  32.9629137 130.4852397  91.4714231  32.9041684 129.8011618  90.8044814
  33.3648656 131.2271387  91.0194857  23.6871293 120.5350262  90.3703292
  23.1508650 120.0841000  91.0224888  23.0988001 120.6696171  89.6273756
  23.0973552 119.9938913  72.9329755  22.2203018 119.8727714  72.5692002
  23.5731305 119.2024992  72.6808644  32.9646545 128.4491981  89.7028211
  32.0773324 128.1117903  89.8254610  33.5345096 127.7175013  89.9396976
  19.4210414 119.6706270  87.4556286  19.3368603 119.0631939  86.7206696
  18.5993120 120.1615288  87.4565782  29.5934128 118.1559833  82.8226481
  30.0902827 117.4029796  82.5027551  28.8221109 118.1924150  82.2569690
  37.4463885 123.8600199  84.4644773  37.4353762 124.7424914  84.0938706
  36.5781265 123.5071750  84.2699310  30.6763909 126.9131520  80.3964904
  29.7420187 127.0332983  80.2269609  30.8540577 126.0103987  80.1324914
  26.1769097 120.2977216  82.5498166  25.8066884 119.7448257  83.2379071
  26.6728189 119.6935350  81.9973166  34.0636460 122.7548840  80.9314939
  34.5296912 123.5876831  80.8575241  34.5143960 122.2893821  81.6360197
  32.1312691 129.0992661  77.9301091  32.4072535 128.9849256  78.8394965
  31.2617190 128.7010146  77.8913264  32.0353123 115.1229427  84.9705840
  31.1216202 115.3533654  85.1388047  32.4646224 115.2067871  85.8219872
  31.8059581 123.3119319  87.4705734  31.1531031 123.5595226  86.8158187
  32.1839961 122.4983457  87.1368211  27.8547154 124.0539130  93.9571771
  27.1787791 123.9533259  94.6274146  28.6774788 123.8978343  94.4207768
  14.1943668 122.8616667  85.2988729  14.2327768 122.3280257  86.0925848
  13.6883961 122.3351872  84.6799707  21.5734430 117.7081207  88.7951272
  21.6375757 118.5696038  88.3828669  21.5101551 117.0955209  88.0623630
  21.0486703 119.7804340  92.4424306  21.6758742 119.3981417  93.0561830
  20.1914622 119.5618541  92.8079999  31.4480811 130.1867315  94.0478041
  31.9920715 130.7997273  93.5532996  30.8667656 130.7446893  94.5645054
  17.8252246 121.5880769  78.3742661  18.1205687 120.6791447  78.3209715
  16.9240281 121.5668508  78.0523663  21.3546493 119.6636765  84.3570209
  20.6333078 120.2772733  84.2177683  22.1439748 120.1994530  84.2786855
  31.7973233 131.1097053  86.8072619  30.8503568 130.9902404  86.7350946
  32.1456006 130.2219551  86.8898881  24.1572806 116.9991192  90.6310861
  24.6807208 117.2453488  91.3937171  23.9385139 117.8311227  90.2113999
  19.5540087 119.2694866  78.4981986  19.2252793 118.3892245  78.3157092
  19.9079458 119.2142535  79.3858375  22.6681910 119.5567836  78.8657464
  23.0077983 120.0853757  78.1436072  23.1154031 119.8948242  79.6416030
  32.4053788 131.7278328  84.0941844  33.3300335 131.5221189  83.9566295
  32.2369091 131.4794729  85.0031186  25.3625351 117.9404887  88.3160532
  25.0222172 117.1412700  88.7181212  24.6564357 118.2406598  87.7437365
  26.0141823 115.0254199  86.7687855  26.8367892 114.5514677  86.6466745
  26.2579887 115.8044683  87.2686541  24.6550057 118.0542458  77.0650756
  25.3758420 118.4323710  76.5614473  24.0315362 118.7731335  77.1685734
  28.7981180 118.7587607  78.0009089  29.0144795 119.6412245  77.6997917
  28.3175248 118.3673820  77.2714731  23.5380402 121.7173320  84.5779833
  23.3924982 122.0313623  85.4704115  23.0605605 122.3358220  84.0250732
  25.3976785 118.7075868  84.6260723  25.3838353 117.8116961  84.2893021
  26.1149213 118.7146532  85.2599009  27.2502915 119.1413208  86.6713850
  26.9920693 120.0630279  86.6698181  26.7187956 118.7443643  87.3614314
  18.0126064 124.2578664  87.5167495  17.4679532 125.0338472  87.6487769
  18.8905414 124.6049469  87.3586616  24.8013681 117.5890248  79.8948293
  24.9229592 116.6606894  80.0939181  24.5115723 117.6028934  78.9826608
  27.6704871 115.2745159  83.0315013  27.6926568 115.3384492  82.0766992
  28.0872930 114.4349667  83.2255519  38.0488495 125.0100418  81.0694235
  38.4919641 124.2607743  80.6713359  37.1715006 125.0010555  80.6867967
  33.1824277 131.5630760  76.5500834  33.8775181 132.1837452  76.7688149
  33.5247427 130.7126111  76.8253212  18.7992086 123.3848561  90.4097651
  18.0573822 123.5331196  90.9962282  18.4784830 123.6456826  89.5464401
  35.0815700 129.0130465  78.0788165  35.6067024 129.3517738  77.3537485
  34.9938052 128.0777480  77.8951299  24.2854760 119.1022246  94.1038226
  24.3342916 119.9784368  93.7215995  24.8277274 118.5599639  93.5309869
  34.7709606 129.6463369  93.3839363  33.9805149 129.6287508  92.8443862
  34.5342960 130.1851662  94.1388399  34.8907481 126.4955835  90.6972091
  34.9405486 126.3305843  91.6387614  34.7821404 125.6283094  90.3069972
  32.1811243 122.4786763  92.0131398  33.0821106 122.3393228  91.7215396
  32.2559218 122.6441218  92.9529575  26.5154049 119.8553618  90.8584584
  25.6457358 120.1487184  90.5867173  26.7513529 120.4394063  91.5791848
  36.3925678 128.9152777  90.9414113  36.1010486 129.2782757  91.7777574
  35.7797809 128.2019785  90.7627445  37.5921360 126.4805656  83.4616683
  38.4268251 126.9195461  83.6254243  37.7280489 126.0044310  82.6424929
  34.6412866 124.0385391  89.4094171  35.1166987 124.2313038  88.6013022
  33.7178431 124.0944577  89.1637554  21.5296372 125.2009558  78.9925249
  21.2842414 124.2971888  79.1905459  21.6992287 125.2026709  78.0504727
  29.2193082 116.0733235  88.3750005  29.7375026 116.8094262  88.0496493
  28.8648215 116.3797228  89.2096764  20.7992020 120.9337916  76.4911411
  20.1061265 121.0082271  75.8351447  20.5543772 120.1698260  77.0132927
  29.4705677 112.4933517  83.8950901  29.7507430 111.8256706  84.5211328
  30.2556283 112.6862613  83.3825565  33.3414535 120.9151151  87.6422476
  34.2931958 121.0149249  87.6634700  33.1717985 120.1229420  88.1520561
  31.3628914 118.0006735  87.8281877  30.7678846 118.2811747  87.1328366
  31.0778611 118.4900636  88.5998618  33.1224421 131.2695532  73.5488457
  33.0438053 130.9355395  74.4424215  33.9434088 131.7617300  73.5479930
  35.8202613 124.1357271  86.7564776  35.7878933 123.1973272  86.9424460
  36.4303236 124.2141308  86.0230601  27.6585944 123.0053324  72.7991980
  28.6045048 122.8759532  72.8680398  27.2800188 122.2667986  73.2761408
  35.9697101 120.9268315  86.8023059  35.4536150 120.1426771  86.6152988
  36.8537050 120.5987031  86.9669579  33.6307828 114.6709330  82.7618872
  33.4332649 114.3624418  83.6462204  34.2407534 115.3970969  82.8916802
  41.6379163 125.1973278  85.8970813  42.3682551 124.9358566  86.4578516
  41.0286108 124.4602000  85.9372881  39.7194460 123.3381141  86.4945264
  38.9927623 123.2037105  85.8861756  39.3041747 123.6457969  87.3001982
  27.5424636 127.0571070  94.2592637  28.4627646 127.2349669  94.4532684
  27.5074219 126.1127116  94.1072336  25.8428861 120.9303300  72.7346865
  24.9360316 120.6336413  72.8109579  26.1204842 120.6333119  71.8681152
  16.7606801 122.2509664  83.1845912  16.4409585 121.3974972  82.8920286
  16.2140229 122.4658242  83.9403879  20.5386709 124.9672105  86.9015418
  20.7572718 125.8989213  86.9203452  20.9512482 124.6080079  87.6870222
  27.4590926 115.4740190  78.8891107  26.6491655 115.1287275  79.2646353
  28.1475343 115.1647734  79.4778718  29.3881475 114.5518237  80.5115403
  29.9412513 114.9713690  81.1705426  29.6251561 113.6253985  80.5538359
  25.4114574 120.5405311  96.2918167  25.3111301 121.4899668  96.2230258
  25.1936116 120.2123550  95.4194237  24.6127645 117.7890236  72.8758845
  25.4746809 118.1145134  73.1354662  24.7977989 117.0021732  72.3631910
  16.6295061 125.8712575  85.1539033  15.9358533 125.4566528  84.6408988
  17.3768052 125.9133112  84.5572452  32.7660282 116.6618762  80.0194068
  32.1858951 117.3203566  79.6372120  32.4996214 115.8396107  79.6081485
  31.2163848 116.0623820  82.2215388  31.7163627 116.1740354  81.4129707
  31.8599456 115.7584873  82.8616196  25.2745844 123.9702449  95.1083229
  24.7912926 124.7702810  95.3147118  25.3606783 123.9810394  94.1550673
  18.5431804 125.8030829  83.0305048  18.5202492 125.9018516  82.0786931
  18.8532440 126.6495980  83.3522214  21.7918564 126.4308100  89.7122460
  22.6111453 126.9252179  89.7357298  22.0655371 125.5140068  89.6840028
  31.5485160 118.8218853  79.0750416  30.6611015 119.1068503  78.8570611
  31.9639149 118.6612616  78.2277693  34.8999696 118.8465373  82.7904755
  35.6760086 119.3361826  83.0629372  34.1747830 119.2723428  83.2476625
  37.3372255 119.5592993  83.8478696  37.9316745 119.3188729  83.1372004
  37.4098838 118.8400123  84.4752232  30.6928373 128.5863527  73.1698436
  31.3964223 128.7913530  73.7856091  29.9691022 129.1540289  73.4347519
  31.5226184 124.3373388  79.2900706  31.4661385 124.7941940  78.4508338
  32.0754526 123.5764073  79.1123549  35.3330989 120.1263120  80.1150825
  35.0767924 119.7259756  80.9459033  34.7083857 120.8406914  79.9900965
  39.6443327 122.8659194  82.6222117  39.0842885 122.9352383  83.3953679
  39.0386831 122.6900178  81.9021613  32.6015071 129.0246056  75.2196896
  33.4360675 128.5927255  75.0374371  32.4399414 128.8528070  76.1473790
  32.2560963 125.5278170  76.5853235  32.2009767 125.3622441  75.6441679
  31.6307018 126.2354203  76.7415425  17.0453478 120.7646234  90.4114657
  17.6912341 120.2545188  90.9001883  16.8370629 121.5014916  90.9858083
  29.5706870 127.8327082  95.9106798  30.4398030 128.0067734  95.5493433
  29.0913622 128.6521498  95.7882527  25.5657088 115.0286279  76.1638554
  25.5535758 115.9728119  76.3206824  26.4580510 114.8456424  75.8698015
  29.3809208 111.6229055  80.4184490  28.6141604 111.0687542  80.5641173
  29.7919913 111.6950924  81.2798642  21.3850969 117.9113851  94.5089672
  22.2482430 117.5550656  94.7192996  20.8116379 117.5727746  95.1965076
  43.7074462 130.9163969  87.7532868  43.3757787 131.7859380  87.5294083
  43.1120075 130.6000253  88.4326898  45.4664771 133.8375493  86.6104092
  44.8239152 134.1308026  85.9643886  44.9619700 133.7228414  87.4157288
  40.4640910 133.7596702  85.5479812  39.6025389 134.0577956  85.8396549
  40.4903345 133.9767101  84.6160844  33.9432470 131.3194568  95.5019643
  33.5499415 130.7660766  96.1767287  34.7598610 131.6305146  95.8926161
  36.8600431 132.7352447  93.0939900  37.6010144 133.3359600  93.0144362
  37.0918353 131.9930085  92.5357942  40.8057594 128.7633550  87.3704181
  40.4621863 129.6535192  87.2943292  41.1736556 128.5735207  86.5073766
  38.3554987 133.5991862  80.9361855  37.4996584 133.2098712  80.7567494
  38.7681939 133.6783823  80.0761640  39.8854134 131.1338205  85.3353415
  39.3818930 131.0968340  84.5221220  40.1784741 132.0430948  85.3950071
  36.1297020 131.2176935  84.3419596  36.9950017 131.0219743  83.9825486
  36.1974529 130.9887286  85.2688953  36.0382007 130.3220392  80.4411033
  35.3846419 130.0069409  79.8167647  35.9962481 129.6996132  81.1670855
  42.5033632 135.2450857  81.8780150  41.7656389 134.7328243  82.2090392
  42.7560405 134.8051239  81.0663427  42.6045259 128.0227109  82.4721919
  42.9104136 127.1624472  82.1847834  43.3297864 128.6144729  82.2720913
  38.6851887 132.5176340  90.3187196  38.0379802 133.2166290  90.2251673
  39.4552903 132.9512484  90.6863444  40.4327882 133.4851751  82.8226481
  40.9296582 132.7321713  82.5027551  39.6614864 133.5216068  82.2569690
  42.8746877 130.4521344  84.9705840  41.9609957 130.6825571  85.1388047
  43.3039979 130.5359788  85.8219872  36.8535577 130.3546117  86.7687855
  37.6761647 129.8806595  86.6466745  37.0973641 131.1336601  87.2686541
  38.5098625 130.6037076  83.0315013  38.5320322 130.6676409  82.0766992
  38.9266684 129.7641585  83.2255519  40.0586837 131.4025153  88.3750005
  40.5768781 132.1386179  88.0496493  39.7041970 131.7089146  89.2096764
  40.3099431 127.8225435  83.8950901  40.5901185 127.1548624  84.5211328
  41.0950038 128.0154531  83.3825565  42.2022669 133.3298652  87.8281877
  41.6072601 133.6103665  87.1328366  41.9172366 133.8192553  88.5998618
  46.8090856 136.2560232  86.8023059  46.2929904 135.4718689  86.6152988
  47.6930804 135.9278949  86.9669579  44.4701583 130.0001248  82.7618872
  44.2726404 129.6916336  83.6462204  45.0801288 130.7262887  82.8916802
  38.2984681 130.8032108  78.8891107  37.4885409 130.4579193  79.2646353
  38.9869098 130.4939652  79.4778718  40.2275229 129.8810155  80.5115403
  40.7806268 130.3005608  81.1705426  40.4645316 128.9545903  80.5538359
  43.6054036 131.9910680  80.0194068  43.0252705 132.6495484  79.6372120
  43.3389969 131.1688024  79.6081485  42.0557603 131.3915738  82.2215388
  42.5557381 131.5032272  81.4129707  42.6993211 131.0876790  82.8616196
  42.3878914 134.1510770  79.0750416  41.5004769 134.4360421  78.8570611
  42.8032903 133.9904534  78.2277693  45.7393450 134.1757291  82.7904755
  46.5153841 134.6653744  83.0629372  45.0141585 134.6015345  83.2476625
  48.1766009 134.8884910  83.8478696  48.7710500 134.6480646  83.1372004
  48.2492593 134.1692041  84.4752232  46.1724744 135.4555038  80.1150825
  45.9161678 135.0551674  80.9459033  45.5477612 136.1698832  79.9900965
  36.4050843 130.3578196  76.1638554  36.3929513 131.3020036  76.3206824
  37.2974265 130.1748342  75.8698015  40.2202962 126.9520973  80.4184490
  39.4535358 126.3979460  80.5641173  40.6313667 127.0242842  81.2798642
   2.8274025  52.8936846  70.0183566   3.5599197  52.3236063  70.2521395
   2.0713380  52.5058447  70.4590071   2.1089755  49.5269945  73.3349398
   1.4664135  49.8202478  72.6889193   1.6044683  49.4122865  74.1402595
   2.2488733  59.1913375  68.7693203   1.5639771  59.5712276  68.2190236
   2.3332582  59.8008701  69.5025151   0.6185492  59.7145289  73.5410904
   1.4402936  59.3125476  73.2593585   0.6147895  59.6113523  74.4927019
   8.7091485  56.0584038  69.8895875   7.9555194  55.4891436  69.7339880
   8.8439026  56.0246702  70.8366510   2.3867134  57.1968967  64.5375097
   1.6096576  56.8580127  64.0930259   3.0658615  57.2021591  63.8630062
   2.7855631  56.2112674  66.9998019   2.6473529  56.4014270  66.0719208
   2.4291850  56.9732057  67.4566070   2.8125010  58.2789201  72.0109290
   3.2461517  58.1864490  72.8592344   3.5256591  58.2546702  71.3729306
   3.6740560  58.3212902  74.5442175   3.8676450  59.2258712  74.7901450
   3.5741178  57.8620321  75.3780760   4.9282623  54.8786568  71.1890079
   4.9172499  55.7611284  70.8184012   4.0600003  54.5258119  70.9944616
   1.5455198  53.7735209  67.6560245   2.0115650  54.6063201  67.5820548
   1.9962698  53.3080191  68.3605504   5.5307233  56.0286788  67.7939542
   5.9738379  55.2794113  67.3958665   4.6533743  56.0196924  67.4113274
   0.6643014  62.5817129  63.2746141   1.3593919  63.2023822  63.4933455
   1.0066165  61.7312480  63.5498519   2.5634437  60.0316835  64.8033471
   3.0885762  60.3704107  64.0782791   2.4756790  59.0963850  64.6196606
   2.2528344  60.6649738  80.1084669   1.4623887  60.6473877  79.5689169
   2.0161698  61.2038032  80.8633706   2.3726219  57.5142205  77.4217398
   2.4224224  57.3492212  78.3632921   2.2640142  56.6469464  77.0315279
   3.8744415  59.9339146  77.6659419   3.5829224  60.2969127  78.5022880
   3.2616547  59.2206155  77.4872752   5.0740098  57.4992026  70.1861990
   5.9086989  57.9381830  70.3499550   5.2099227  57.0230679  69.3670235
   2.1231604  55.0571761  76.1339477   2.5985725  55.2499407  75.3258329
   1.1997169  55.1130947  75.8882861   0.8233273  51.9337521  74.3667783
   1.7750696  52.0335619  74.3880007   0.6536723  51.1415790  74.8765867
   0.6043159  62.2881901  60.2733764   0.5256791  61.9541765  61.1669522
   1.4252826  62.7803669  60.2725236   3.3021350  55.1543641  73.4810083
   3.2697671  54.2159641  73.6669767   3.9121974  55.2327677  72.7475908
   3.4515839  51.9454684  73.5268366   2.9354888  51.1613141  73.3398295
   4.3355787  51.6173401  73.6914885   1.1126566  45.6895700  69.4864179
   0.9151387  45.3810788  70.3707511   1.7226271  46.4157339  69.6162108
   9.1197900  56.2159647  72.6216119   9.8501289  55.9544936  73.1823823
   8.5104846  55.4788369  72.6618187   7.2013197  54.3567510  73.2190571
   6.4746361  54.2223475  72.6107062   6.7860484  54.6644339  74.0247289
   2.3818434  49.8651743  69.5150062   3.1578824  50.3548196  69.7874678
   1.6566568  50.2909797  69.9721931   4.8190992  50.5779362  70.5724002
   5.4135483  50.3375098  69.8617311   4.8917576  49.8586493  71.1997539
   2.8149727  51.1449490  66.8396132   2.5586661  50.7446126  67.6704340
   2.1902595  51.8593284  66.7146271   7.1262065  53.8845563  69.3467423
   6.5661623  53.9538752  70.1198986   6.5205568  53.7086548  68.6266920
   8.7118084  70.5602077  72.0397379   9.3496494  70.4408824  71.3360719
   8.5938926  71.5082921  72.0985331   5.5207790  70.5129505  71.9758904
   5.1826301  70.3970570  71.0879439   6.3897558  70.1120670  71.9559910
   1.3794606  72.3664982  67.9655795   0.8159471  72.2754919  67.1972083
   1.2647001  71.5464886  68.4458287   6.0027573  71.6664357  77.9345109
   5.9916214  71.2717155  77.0625613   6.1648212  70.9330430  78.5278881
   6.9594164  76.0335949  63.2770260   6.3082144  76.6190030  62.8904274
   7.7538527  76.5642144  63.3365297   0.8849791  73.1225086  63.6757394
   1.6580667  72.5754074  63.5370270   1.2375190  73.9869336  63.8871855
   2.7234834  74.4501469  76.8824293   2.4324700  75.3547100  76.7670960
   3.3591818  74.4917996  77.5968363   3.6491041  71.8278317  73.4725653
   4.2454613  71.6034340  72.7582616   3.7066012  71.0863063  74.0751101
   3.2216069  69.2817753  61.3075844   3.4741590  68.7599274  60.5459307
   2.2840628  69.1183898  61.4102528   8.2659352  68.2853531  69.1150587
   9.0522441  67.8672954  68.7641004   8.5298056  69.1899623  69.2832236
   8.4369429  73.7226381  63.8139244   7.8015262  73.7961008  64.5260149
   8.1066836  74.3119980  63.1358323  13.6667779  68.2228764  70.0183566
  14.3992951  67.6527981  70.2521395  12.9107135  67.8350365  70.4590071
   2.9412358  71.1845859  63.5100219   2.8248616  70.5090762  64.1781303
   3.0514618  70.6978232  62.6932372   5.2843899  70.6456006  67.2146908
   4.9202106  70.1186627  67.9259830   6.1411015  70.2554475  67.0413394
  11.1893200  61.9350338  74.4778174  10.8576524  62.8045749  74.2539389
  10.5938813  61.6186622  75.1572205   4.9249386  65.6745905  62.2108257
   5.0923788  66.5426142  62.5778728   4.7346555  65.8373187  61.2869546
   7.6824719  74.1362884  73.8774087   7.3825442  75.0387923  73.7689894
   7.3375779  73.8695067  74.7295240  11.0821863  66.6545424  71.5571524
  10.1738740  66.5860833  71.2630285  11.0309459  67.1317369  72.3853350
   4.9038607  68.1303563  63.1954924   4.7838232  68.5760614  64.0340404
   4.2091195  68.4788880  62.6368462   2.6645499  80.9007205  66.8445055
   2.5869529  81.8515030  66.9233535   2.0607142  80.5553077  67.5019981
   5.1562729  68.0735070  79.5006422   4.3796063  68.6328990  79.4909286
   5.7953292  68.5591853  80.0221292  12.9483509  64.8561863  73.3349398
  12.3057889  65.1494396  72.6889193  12.4438438  64.7414783  74.1402595
  10.6023673  68.6025036  64.0235258  11.5141529  68.8352423  63.8482955
  10.0933320  69.1862080  63.4610336   3.4109101  70.8820523  79.0624389
   4.1523785  71.4205567  78.7859212   2.7046086  71.5086812  79.2195940
   8.8864441  73.0249664  77.6596550   9.2947797  72.5832074  76.9151183
   8.1641702  72.4502291  77.9130743   5.2395511  67.9622271  75.0330107
   6.0856706  68.3861684  75.1764756   5.1794148  67.3055895  75.7268670
   9.2093255  73.5850854  71.4148839   8.5802118  73.7496569  70.7124907
   8.8218917  73.9992464  72.1859803  13.0882487  74.5205292  68.7693203
  12.4033525  74.9004194  68.2190236  13.1726336  75.1300619  69.5025151
   8.3894956  65.6226639  76.6911281   8.1455888  66.3768699  76.1545556
   8.6654886  66.0011987  77.5258528  10.3433419  72.1665251  75.3688546
  10.5550314  72.8097011  74.6922927  10.2963167  71.3327568  74.9010476
   7.9459648  64.7783072  72.2725118   7.0844127  65.0764326  72.5641856
   7.9722082  64.9953471  71.3406151   4.7621217  73.3225263  68.6798924
   5.2259563  73.6012966  67.8903547   4.4978015  72.4208707  68.4972015
   1.6545298  72.8696744  71.6178687   2.2246655  73.2984012  70.9796172
   2.2453410  72.5879329  72.3162873   3.6990103  69.4448415  65.4888489
   4.4014146  69.8969459  65.9562416   3.3670732  68.8032234  66.1168382
   2.1470465  68.0360172  79.8639699   1.5169125  68.7176452  80.0975095
   2.0406553  67.9243253  78.9192837  11.4579247  75.0437207  73.5410904
  12.2796690  74.6417394  73.2593585  11.4541650  74.9405441  74.4927019
   5.2235850  74.5921250  75.6971614   5.2880283  75.0541657  76.5329786
   4.5146774  73.9618615  75.8253924   4.9383868  76.2589358  65.5650595
   4.8029543  77.1040893  65.9935442   5.4793680  76.4608635  64.8016528
   1.4251207  62.3380937  82.2264950   1.0318153  61.7847136  82.9012594
   2.2417348  62.6491516  82.6171467   4.3419168  63.7538816  79.8185206
   5.0828882  64.3545970  79.7389669   4.5737091  63.0116454  79.2603249
   6.5652344  76.8812924  79.6950937   6.1216198  76.0949303  79.3771841
   7.2269558  77.0692075  79.0294827   1.3239465  78.4108726  74.2211615
   1.8746890  78.2825789  73.4488609   0.4850941  78.7103615  73.8706508
   8.6633582  77.1615724  77.7232338   8.6452058  77.9824605  77.2312607
   9.5853502  77.0369799  77.9482479   5.1206636  74.6759853  78.5655846
   5.6534973  73.9148142  78.3355154   4.5920717  74.3833505  79.3080001
   8.2876331  59.7819919  74.0949488   7.9440601  60.6721561  74.0188599
   8.6555294  59.5921577  73.2319073   8.2526614  69.7728530  62.6021923
   7.7373237  70.5433135  62.8410310   7.9803923  69.0993667  63.2254985
   5.8373725  64.6178231  67.6607161   4.9815321  64.2285082  67.4812800
   6.2500677  64.6970192  66.8006947   7.3672872  62.1524575  72.0598721
   6.8637667  62.1154710  71.2466527   7.6603479  63.0617317  72.1195378
   3.6115758  62.2363304  71.0664903   4.4768754  62.0406113  70.7070792
   3.6793267  62.0073656  71.9934260  13.2260888  72.5260885  64.5375097
  12.4490331  72.1872045  64.0930259  13.9052369  72.5313508  63.8630062
   8.0412917  67.6455623  64.4281704   7.7363053  67.9601772  65.2791847
   8.9943359  67.7237042  64.4709037   6.4859349  73.8045846  66.0774658
   5.9580711  73.0698605  65.7647896   5.9846852  74.5820522  65.8314627
  11.4652195  71.9994866  71.1941705  10.8075870  72.6894128  71.2821833
  12.2692594  72.3891298  71.5375691   1.2178077  64.4665512  68.4381270
   1.7921829  64.2440694  67.7054463   1.8049059  64.5354207  69.1909871
  10.2757654  70.3539239  69.2445646  10.7889536  70.9869231  69.7467356
  10.9258878  69.7540435  68.8789006   1.5447664  66.4969973  62.4577155
   0.7084976  66.8344660  62.7786430   1.4052433  66.3618953  61.5204292
   3.5200744  61.3406761  67.1656339   2.8665157  61.0255778  66.5412954
   3.4781219  60.7182502  67.8916162   4.6311949  71.6226056  59.0809631
   3.7239011  71.3915310  59.2800780   5.1282981  70.8263675  59.2683613
   7.5380028  80.3323563  62.0006317   6.8641727  80.6355260  62.6091275
   7.9245850  81.1352644  61.6511774   6.7538485  67.8288695  71.4903987
   5.8361046  68.0503642  71.3325675   7.1698628  67.9035005  70.6315694
   7.5373533  69.2280110  66.6206667   8.2845351  69.7401508  66.3113789
   7.8065122  68.9064163  67.4811061   5.8100183  71.7238651  63.6033621
   4.9011402  71.4397684  63.7006091   5.8395267  72.1437730  62.7436928
  11.0419450  75.3345241  67.3724789  10.5881777  74.4936150  67.4289979
  10.4113417  75.9706639  67.7099569   9.9852370  66.2637227  68.6025456
   9.2475126  65.7514613  68.9335699  10.2379143  65.8237608  67.7908733
   9.4852389  77.1721737  68.3074607   9.7775364  77.7326794  67.5886973
   9.9951010  77.4650298  69.0627766  10.0863997  59.0413479  69.1967226
  10.3922874  58.1810842  68.9093141  10.8116602  59.6331099  68.9966220
   4.3585077  69.3367272  69.7043417   4.4133687  68.3841108  69.6285893
   3.5476279  69.4926711  70.1884715   5.5076271  73.2647395  60.9421700
   5.0695700  72.5483254  60.4827337   6.2486711  73.4923510  60.3806791
   2.2977437  67.9544331  67.4633796   1.4845302  68.2538502  67.8698988
   2.7936431  67.5600020  68.1808278   4.4486015  77.9502088  69.3968060
   4.4062193  78.1762935  68.4676592   5.3648713  77.7165463  69.5453861
   7.8951648  68.4186156  76.2948689   8.2501036  68.6457629  77.1543155
   8.5423780  68.7504533  75.6725945  13.6249385  71.5404592  66.9998019
  13.4867284  71.7306188  66.0719208  13.2685604  72.3023975  67.4566070
   1.7891511  65.5262687  73.0795031   2.4290891  65.3851446  72.3817994
   0.9569042  65.2397200  72.7033633  13.6518765  73.6081119  72.0109290
  14.0855272  73.5156408  72.8592344  14.3650346  73.5838619  71.3729306
   2.5651815  74.8265117  69.1930023   3.3592414  74.3315437  68.9912598
   1.8543508  74.2982980  68.8297729   7.3846660  77.2083213  73.5442391
   7.4383682  77.7774149  74.3120107   6.5161441  77.3785098  73.1796428
  14.5134314  73.6504819  74.5442175  14.7070205  74.5550630  74.7901450
  14.4134933  73.1912238  75.3780760   6.1670625  63.5362710  77.0432503
   5.5198540  64.2352660  76.9496979   6.9371641  63.9698854  77.4108751
   9.5749423  73.8011562  80.1183056   9.4234930  73.5722114  79.2013140
   9.5654103  74.7582164  80.1314401   6.3434760  71.3743475  75.1029322
   7.2726820  71.5254635  74.9298290   5.9225790  71.4627496  74.2477969
   5.1423091  75.3994139  72.8727860   5.0034177  75.0312924  73.7453798
   4.3537688  75.9141779  72.7011818   5.7371243  80.5003236  64.2153397
   5.9122999  80.0291279  65.0299019   5.0504031  81.1269002  64.4434657
   6.6928306  74.7775742  70.2616698   6.3578139  74.7376512  71.1574348
   6.1932252  74.1120458  69.7887108   0.6672550  70.1843372  75.7869279
   0.5292348  69.4523611  76.3880818   1.5777474  70.0952272  75.5053467
   9.6287498  72.1231776  60.5353758   9.0116669  71.3978605  60.4386810
   9.1603987  72.8841137  60.1920832   3.2954851  69.8963331  75.2752959
   4.0054470  69.2556524  75.2339577   3.2524159  70.1476226  76.1979139
  11.2841630  76.8330685  78.1959538  11.2254176  76.1489905  77.5290121
  11.6861148  77.5749675  77.7440164   2.0083785  66.8828549  77.0948598
   1.4721142  66.4319288  77.7470194   1.4200494  67.0174458  76.3519063
   1.4186044  66.3417201  59.6575062   0.5415510  66.2206001  59.2937308
   1.8943797  65.5503279  59.4053950  11.2859037  74.7970269  76.4273518
  10.3985816  74.4596190  76.5499916  11.8557588  74.0653300  76.6642283
   4.8160190  79.4571721  73.3934761   4.7430362  80.2626692  73.9054065
   4.3737584  79.6563687  72.5682782   4.6049970  78.6943491  66.9037582
   3.8217492  79.2365171  66.9975807   5.3042715  79.2117471  67.3031823
   7.9146620  64.5038120  69.5471788   8.4115320  63.7508083  69.2272858
   7.1433602  64.5402437  68.9814997  15.7676378  70.2078486  71.1890079
  15.7566254  71.0903201  70.8184012  14.8993757  69.8550037  70.9944616
   7.2758874  79.3558555  75.5492919   7.9886846  79.9906020  75.4768821
   6.7848903  79.4522421  74.7332921   8.9976401  73.2609808  67.1210211
   8.0632680  73.3811270  66.9514915   9.1753069  72.3582274  66.8570221
   4.4981589  66.6455503  69.2743472   4.1279376  66.0926544  69.9624378
   4.9940681  66.0413637  68.7218472  12.3848952  69.1027127  67.6560245
  12.8509404  69.9355119  67.5820548  12.8356453  68.6372109  68.3605504
   2.3270787  77.1052998  76.3698490   3.0280247  77.7389481  76.5227884
   1.8565902  77.4467730  75.6094130  10.4525183  75.4470948  64.6546397
  10.7285027  75.3327543  65.5640271   9.5829682  75.0488433  64.6158570
  10.3565615  61.4707714  71.6951147   9.4428695  61.7011941  71.8633354
  10.7858716  61.5546158  72.5465179  10.1272073  69.6597606  74.1951041
   9.4743524  69.9073513  73.5403493  10.5052453  68.8461744  73.8613518
   7.0879247  79.6957299  68.2979211   7.2701642  78.8778955  68.7606963
   7.9112233  79.9124991  67.8604101   7.4221413  78.6225484  65.5594259
   7.9509179  78.1117939  64.9464421   7.6849632  78.3068014  66.4239792
   6.1759646  70.4017417  80.6817078   5.5000283  70.3011546  81.3519453
   6.9987280  70.2456631  81.1453075   4.9182429  81.7084344  74.9174694
   5.4700737  81.8715966  75.6823779   5.2588623  82.2988782  74.2454719
   9.7693304  76.5345602  80.7723348  10.3133208  77.1475560  80.2778303
   9.1880149  77.0925180  81.2890361   8.0550817  79.6566320  71.9038376
   7.9301956  78.8556060  71.3949321   8.7129908  80.1512513  71.4152346
  10.1185725  77.4575340  73.5317926   9.1716061  77.3380691  73.4596253
  10.4668498  76.5697838  73.6144187   2.4785298  63.3469479  77.3556168
   3.0019700  63.5931776  78.1182477   2.2597632  64.1789514  76.9359305
   7.1232158  77.2528056  69.7322278   6.9757121  76.3244764  69.9129848
   7.9485652  77.2748147  69.2479353   0.9894403  65.9046123  65.5902770
   1.3290475  66.4332045  64.8681379   1.4366523  66.2426529  66.3661337
  10.7266280  78.0756615  70.8187151  11.6512828  77.8699476  70.6811602
  10.5581584  77.8273016  71.7276492   3.6837843  64.2883174  75.0405838
   3.3434664  63.4890987  75.4426518   2.9776850  64.5884885  74.4682672
   4.3354315  61.3732486  73.4933161   5.1580385  60.8992965  73.3712052
   4.5792379  62.1522970  73.9931848   2.9762550  64.4020745  63.7896063
   3.6970912  64.7801998  63.2859780   2.3527854  65.1209622  63.8931041
   7.1193673  65.1065894  64.7254395   7.3357287  65.9890532  64.4243224
   6.6387740  64.7152107  63.9960037   1.8592894  68.0651607  71.3025140
   1.7137475  68.3791910  72.1949422   1.3818098  68.6836507  70.7496039
   3.7189277  65.0554155  71.3506030   3.7050846  64.1595248  71.0138327
   4.4361705  65.0624819  71.9844316   5.5715408  65.4891495  73.3959157
   5.3133185  66.4108566  73.3943487   5.0400448  65.0921930  74.0859621
  10.5161596  78.5942282  66.1749242  10.6898474  78.0288705  65.4223095
  11.0090488  79.3943177  65.9928732   3.1226173  63.9368535  66.6193600
   3.2442084  63.0085182  66.8184487   2.8328215  63.9507221  65.7071915
   5.9917363  61.6223446  69.7560320   6.0139060  61.6862779  68.8012299
   6.4085422  60.7827954  69.9500826  16.3700988  71.3578705  67.7939542
  16.8132134  70.6086031  67.3958665  15.4927498  71.3488842  67.4113274
  11.5036769  77.9109047  63.2746141  12.1987673  78.5315740  63.4933455
  11.8459919  77.0604398  63.5498519  13.4028192  75.3608752  64.8033471
  13.9279516  75.6996025  64.0782791  13.3150545  74.4255768  64.6196606
   5.0648241  79.2742826  76.9323348   5.3735367  79.0291973  77.8046048
   5.8623723  79.4789465  76.4442218   5.0868853  81.4280736  69.1628725
   4.6473843  80.9357114  69.8561581   5.8376970  80.8853703  68.9220800
   2.5342725  76.9718745  71.2351026   1.9122734  76.3089450  70.9353254
   3.2047592  76.9979877  70.5524674   2.6067252  65.4500533  80.8283532
   2.6555408  66.3262656  80.4461302   3.1489767  64.9077926  80.2555176
  13.2119973  72.8434122  77.4217398  13.2617978  72.6784130  78.3632921
  13.1033896  71.9761381  77.0315279   2.0956232  75.5222668  64.7109487
   2.2444352  76.2058132  64.0576160   2.9022675  75.5027758  65.2258943
  10.5023735  68.8265050  78.7376705  11.4033598  68.6871515  78.4460702
  10.5771710  68.9919505  79.6774882   4.8366541  66.2031905  77.5829891
   3.9669850  66.4965471  77.3112479   5.0726021  66.7872350  78.3037155
  14.7138170  75.2631064  77.6659419  14.4222978  75.6261044  78.5022880
  14.1010301  74.5498072  77.4872752  15.9133852  72.8283944  70.1861990
  16.7480744  73.2673748  70.3499550  16.0492981  72.3522597  69.3670235
  12.9625358  70.3863679  76.1339477  13.4379480  70.5791325  75.3258329
  12.0390924  70.4422864  75.8882861   7.5405575  62.4211522  75.0995311
   8.0587519  63.1572549  74.7741800   7.1860707  62.7275515  75.9342070
   7.7918169  58.8411805  70.6196208   8.0719923  58.1734994  71.2456634
   8.5768776  59.0340900  70.1070872   5.5951637  78.0170799  62.1821234
   5.0225604  78.6360986  61.7291706   6.1684431  78.5670160  62.7161156
  11.6627027  67.2629439  74.3667783  12.6144450  67.3627536  74.3880007
  11.4930478  66.4707707  74.8765867   9.6841407  64.3485022  74.5527184
   9.0891339  64.6290035  73.8573673   9.3991103  64.8378923  75.3243925
   8.8148897  78.3007949  63.3129817   9.7479570  78.2353510  63.5162692
   8.7272110  79.1364216  62.8544349  11.4436914  77.6173819  60.2733764
  11.3650545  77.2833683  61.1669522  12.2646581  78.1095587  60.2725236
  14.1415105  70.4835558  73.4810083  14.1091425  69.5451559  73.6669767
  14.7515729  70.5619595  72.7475908   5.9798436  69.3531611  59.5237287
   6.9257541  69.2237819  59.5925705   5.6012681  68.6146273  60.0006715
  14.2909593  67.2746602  73.5268366  13.7748642  66.4905058  73.3398295
  15.1749542  66.9465318  73.6914885  11.9520320  61.0187617  69.4864179
  11.7545141  60.7102706  70.3707511  12.5620026  61.7449256  69.6162108
   5.8637128  73.4049357  80.9837944   6.7840138  73.5827956  81.1777990
   5.8286711  72.4605403  80.8317643   4.1641353  67.2781588  59.4592172
   3.2572808  66.9814700  59.5354886   4.4417334  66.9811406  58.5926458
   5.7803419  61.8218477  65.6136413   4.9704147  61.4765562  65.9891659
   6.4687836  61.5126021  66.2024025   7.7093967  60.8996524  67.2360710
   8.2625006  61.3191978  67.8950733   7.9464053  59.9732272  67.2783666
   3.7327066  66.8883598  83.0163474   3.6323793  67.8377955  82.9475565
   3.5148608  66.5601837  82.1439544   2.9340138  64.1368523  59.6004151
   3.7959302  64.4623421  59.8599968   3.1190482  63.3500019  59.0877217
  11.0872774  63.0097049  66.7439374  10.5071443  63.6681853  66.3617427
  10.8208707  62.1874394  66.3326792   9.5376340  62.4102107  68.9460694
  10.0376119  62.5218642  68.1375013  10.1811948  62.1063160  69.5861503
   3.5958336  70.3180737  81.8328535   3.1125418  71.1181097  82.0392424
   3.6819275  70.3288682  80.8795979   9.8697652  65.1697140  65.7995722
   8.9823507  65.4546790  65.5815917  10.2851641  65.0090903  64.9522999
  13.2212188  65.1943661  69.5150062  13.9972578  65.6840113  69.7874678
  12.4960322  65.6201715  69.9721931  15.6584747  65.9071280  70.5724002
  16.2529238  65.6667016  69.8617311  15.7311331  65.1878411  71.1997539
   9.0140866  74.9341814  59.8943742   9.7176716  75.1391817  60.5101398
   8.2903514  75.5018576  60.1592826   9.8438676  70.6851676  66.0146013
   9.7873877  71.1420227  65.1753645  10.3967018  69.9242360  65.8368855
  13.6543482  66.4741408  66.8396132  13.3980416  66.0738043  67.6704340
  13.0296350  67.1885201  66.7146271  17.9655820  69.2137481  69.3467423
  17.4055378  69.2830670  70.1198986  17.3599323  69.0378465  68.6266920
  10.9227563  75.3724344  61.9442202  11.7573167  74.9405542  61.7619677
  10.7611906  75.2006357  62.8719097  10.5773455  71.8756457  63.3098542
  10.5222259  71.7100728  62.3686986   9.9519510  72.5832490  63.4660731
   7.8919362  74.1805369  82.6352105   8.7610522  74.3546021  82.2738739
   7.4126114  74.9999786  82.5127834   3.8869581  61.3764566  62.8883860
   3.8748250  62.3206406  63.0452131   4.7793002  61.1934711  62.5943321
   2.0605543  81.3002470  74.3141538   2.9632789  81.3326080  74.6308033
   1.8342913  80.3702921  74.3287874   3.8159145  80.0533456  70.9751617
   2.8654776  80.0535318  70.8615989   4.1191631  79.3066191  70.4587651
   7.7021700  57.9707343  67.1429797   6.9354096  57.4165829  67.2886479
   8.1132405  58.0429211  68.0043949  16.3601544  85.8421423  71.9758904
  16.0220056  85.7262488  71.0879439  17.2291313  85.4412588  71.9559910
  12.2188360  87.6956899  67.9655795  11.6553225  87.6046836  67.1972083
  12.1040755  86.8756804  68.4458287  16.8421327  86.9956275  77.9345109
  16.8309968  86.6009073  77.0625613  17.0041967  86.2622347  78.5278881
   9.7652792  89.1908091  70.8040015  10.5574084  88.8498915  70.3886315
  10.0049442  89.3003066  71.7242169  17.7987919  91.3627867  63.2770260
  17.1475899  91.9481947  62.8904274  18.5932282  91.8934062  63.3365297
  11.7243546  88.4517004  63.6757394  12.4974422  87.9045991  63.5370270
  12.0768945  89.3161253  63.8871855  13.5628588  89.7793386  76.8824293
  13.2718454  90.6839017  76.7670960  14.1985573  89.8209914  77.5968363
  14.4884795  87.1570235  73.4725653  15.0848368  86.9326257  72.7582616
  14.5459767  86.4154980  74.0751101  14.0609824  84.6109670  61.3075844
  14.3135344  84.0891191  60.5459307  13.1234383  84.4475816  61.4102528
  13.7806112  86.5137776  63.5100219  13.6642371  85.8382680  64.1781303
  13.8908372  86.0270150  62.6932372  15.7643140  81.0037823  62.2108257
  15.9317543  81.8718059  62.5778728  15.5740309  81.1665105  61.2869546
  11.9730955  85.9168599  69.9110792  11.0481452  85.7844813  70.1188483
  12.2215368  86.6962818  70.4080734  15.7432361  83.4595480  63.1954924
  15.6231986  83.9052531  64.0340404  15.0484950  83.8080798  62.6368462
   9.3339766  85.5601872  70.7454581   9.4632147  85.8136351  71.6593992
   8.6537217  86.1529580  70.4259236  13.5039253  96.2299122  66.8445055
  13.4263283  97.1806947  66.9233535  12.9000897  95.8844995  67.5019981
  14.2502855  86.2112441  79.0624389  14.9917540  86.7497485  78.7859212
  13.5439841  86.8378730  79.2195940  16.0789265  83.2914188  75.0330107
  16.9250460  83.7153602  75.1764756  16.0187903  82.6347813  75.7268670
  12.4939053  88.1988662  71.6178687  13.0640410  88.6275930  70.9796172
  13.0847164  87.9171246  72.3162873  14.5383858  84.7740333  65.4888489
  15.2407901  85.2261376  65.9562416  14.2064486  84.1324151  66.1168382
  12.9864219  83.3652089  79.8639699  12.3562880  84.0468370  80.0975095
  12.8800307  83.2535171  78.9192837   8.2809192  83.0323885  70.7905623
   7.4908246  83.2881414  70.3145733   8.7720439  83.8472223  70.8957663
  10.2323937  83.3968464  67.7489100   9.4355100  83.5087159  68.2672595
  10.0049529  83.7355117  66.8829990   6.5646895  83.2854376  73.2220614
   6.8154933  84.1701386  73.4878190   7.1006443  83.1058977  72.4495705
  15.7777622  91.5881275  65.5650595  15.6423297  92.4332811  65.9935442
  16.3187435  91.7900553  64.8016528   9.2307020  89.1056713  66.1378520
   9.7431540  89.8999963  66.2884084   9.8829732  88.4083004  66.0712121
  11.0401904  92.2222470  68.2201273  11.2168533  93.1440434  68.0322257
  11.8358738  91.9080889  68.6495653  10.3254261  84.2687101  78.0963436
  10.2107776  83.3672359  78.3970535   9.4698779  84.5150798  77.7448253
  12.1633220  93.7400643  74.2211615  12.7140645  93.6117707  73.4488609
  11.3244696  94.0395532  73.8706508  15.9600391  90.0051771  78.5655846
  16.4928728  89.2440059  78.3355154  15.4314472  89.7125423  79.3080001
   7.1955936  87.4345368  66.9138090   8.0331158  87.8442376  66.6971798
   7.3734204  86.4944810  66.8838284  16.6767480  79.9470149  67.6607161
  15.8209076  79.5576999  67.4812800  17.0894431  80.0262110  66.8006947
  24.0654643  87.8552803  64.5375097  23.2884085  87.5163962  64.0930259
  24.7446124  87.8605426  63.8630062  12.0571831  79.7957430  68.4381270
  12.6315583  79.5732611  67.7054463  12.6442814  79.8646124  69.1909871
  12.3841418  81.8261891  62.4577155  11.5478731  82.1636577  62.7786430
  12.2446188  81.6910871  61.5204292  14.3594499  76.6698679  67.1656339
  13.7058911  76.3547696  66.5412954  14.3174973  76.0474419  67.8916162
  15.4705704  86.9517974  59.0809631  14.5632765  86.7207227  59.2800780
  15.9676736  86.1555593  59.2683613  18.3773783  95.6615481  62.0006317
  17.7035481  95.9647178  62.6091275  18.7639605  96.4644561  61.6511774
  18.3767287  84.5572028  66.6206667  19.1239106  85.0693425  66.3113789
  18.6458877  84.2356081  67.4811061  16.6493937  87.0530569  63.6033621
  15.7405156  86.7689602  63.7006091  16.6789021  87.4729647  62.7436928
   7.2182108  84.7736083  67.5848824   7.0206507  84.1805444  66.8599890
   6.6628772  84.4688293  68.3024762  15.1978831  84.6659189  69.7043417
  15.2527441  83.7133026  69.6285893  14.3870033  84.8218628  70.1884715
  16.3470025  88.5939312  60.9421700  15.9089455  87.8775171  60.4827337
  17.0880466  88.8215427  60.3806791  13.1371191  83.2836249  67.4633796
  12.3239057  83.5830420  67.8698988  13.6330185  82.8891938  68.1808278
  15.2879769  93.2794006  69.3968060  15.2455948  93.5054852  68.4676592
  16.2042468  93.0457381  69.5453861  12.6285266  80.8554605  73.0795031
  13.2684645  80.7143364  72.3817994  11.7962796  80.5689118  72.7033633
  13.4045570  90.1557035  69.1930023  14.1986168  89.6607355  68.9912598
  12.6937262  89.6274898  68.8297729   9.7128333  84.3000117  65.2689776
   8.7825921  84.2384572  65.4859738   9.8085805  83.7776070  64.4726417
   9.6313882  80.8254930  67.8568017   9.8920700  81.7400263  67.7477178
  10.4531055  80.3579372  68.0064630  11.1038808  82.2392687  75.0266842
  11.7761861  82.0310049  74.3779491  10.2768594  82.0414773  74.5872074
  17.0064380  78.8654628  77.0432503  16.3592295  79.5644577  76.9496979
  17.7765395  79.2990772  77.4108751  17.1828514  86.7035393  75.1029322
  18.1120574  86.8546552  74.9298290  16.7619544  86.7919413  74.2477969
  16.5764998  95.8295153  64.2153397  16.7516753  95.3583197  65.0299019
  15.8897786  96.4560920  64.4434657  11.5066305  85.5135290  75.7869279
  11.3686103  84.7815529  76.3880818  12.4171228  85.4244190  75.5053467
  20.4681253  87.4523694  60.5353758  19.8510423  86.7270522  60.4386810
  19.9997741  88.2133054  60.1920832  14.1348606  85.2255249  75.2752959
  14.8448224  84.5848441  75.2339577  14.0917914  85.4768144  76.1979139
  12.8477540  82.2120467  77.0948598  12.3114897  81.7611205  77.7470194
  12.2594248  82.3466376  76.3519063  11.1426083  98.9784516  70.9893257
  11.3822681  99.6103040  71.6672275  10.2995280  98.6272556  71.2758616
  12.2579799  81.6709118  59.6575062  11.3809265  81.5497919  59.2937308
  12.7337552  80.8795197  59.4053950   3.7781939  86.4586278  69.7516569
   4.4652978  86.1448008  69.1637584   3.6230067  87.3627643  69.4783820
   8.5816661  81.3476475  74.1801593   8.4974850  80.7402144  73.4452003
   7.7599367  81.8385493  74.1811089  15.6553945  94.7863639  73.3934761
  15.5824116  95.5918610  73.9054065  15.2131338  94.9855604  72.5682782
  15.4443725  94.0235409  66.9037582  14.6611246  94.5657089  66.9975807
  16.1436470  94.5409388  67.3031823  15.3375343  81.9747421  69.2743472
  14.9673131  81.4218462  69.9624378  15.8334436  81.3705555  68.7218472
  21.2918938  90.7762866  64.6546397  21.5678782  90.6619461  65.5640271
  20.4223437  90.3780351  64.6158570  18.2615167  93.9517402  65.5594259
  18.7902934  93.4409857  64.9464421  18.5243387  93.6359932  66.4239792
   8.7632260  91.9681271  73.3029593   9.3485697  91.2224959  73.4357497
   8.5657098  92.2785228  74.1866257  11.6170915  95.0032519  68.3192035
  10.9481291  95.4878646  67.8356075  11.4783785  95.2501739  69.2335414
   3.3549915  84.5386871  72.0234036   3.3934014  84.0050462  72.8171154
   2.8490208  84.0122077  71.4045013  10.7340677  79.3851412  75.5196578
  10.7982004  80.2466243  75.1073976  10.6707797  78.7725414  74.7868937
  10.2092950  81.4574544  79.1669613  10.8364988  81.0751622  79.7807137
   9.3520868  81.2388746  79.5325305   6.9858492  83.2650974  65.0987967
   7.2811933  82.3561652  65.0455021   6.0846528  83.2438713  64.7768970
  10.5152739  81.3406970  71.0815516   9.7939325  81.9542938  70.9422989
  11.3045995  81.8764735  71.0032162  13.3179053  78.6761397  77.3556168
  13.8413455  78.9223693  78.1182477  13.0991386  79.5081431  76.9359305
   8.7146334  80.9465071  65.2227293   8.3859040  80.0662450  65.0402399
   9.0685705  80.8912740  66.1103682  11.8288157  81.2338041  65.5902770
  12.1684230  81.7623962  64.8681379  12.2760278  81.5718447  66.3661337
  14.5231598  79.6175092  75.0405838  14.1828418  78.8182905  75.4426518
  13.8170604  79.9176803  74.4682672  13.8156304  79.7312663  63.7896063
  14.5364667  80.1093915  63.2859780  13.1921608  80.4501539  63.8931041
  17.9587427  80.4357812  64.7254395  18.1751042  81.3182449  64.4243224
  17.4781494  80.0444025  63.9960037  12.6986649  83.3943525  71.3025140
  12.5531229  83.7083828  72.1949422  12.2211852  84.0128425  70.7496039
  14.5583031  80.3846073  71.3506030  14.5444600  79.4887166  71.0138327
  15.2755460  80.3916737  71.9844316  21.3555351  93.9234200  66.1749242
  21.5292228  93.3580623  65.4223095  21.8484242  94.7235095  65.9928732
   7.1732311  85.9348869  74.2412801   6.6285779  86.7108677  74.3733076
   8.0511661  86.2819674  74.0831923  13.9619927  79.2660453  66.6193600
  14.0835839  78.3377099  66.8184487  13.6721970  79.2799139  65.7071915
  22.3430523  93.2400965  63.2746141  23.0381428  93.8607657  63.4933455
  22.6853673  92.3896316  63.5498519   7.9598333  85.0618765  77.1342958
   7.2180069  85.2101401  77.7207588   7.6391077  85.3227031  76.2709707
  15.9262607  96.7572653  69.1628725  15.4867598  96.2649032  69.8561581
  16.6770724  96.2145621  68.9220800   8.4054946  92.9484194  69.1653353
   9.2312966  92.6487966  68.7851996   8.0548998  92.1791817  69.6143141
  13.3736479  92.3010662  71.2351026  12.7516489  91.6381367  70.9353254
  14.0441346  92.3271794  70.5524674   6.6063551  90.8670521  70.1242286
   5.7695460  90.4392695  69.9426288   6.5787197  91.0602964  71.0613077
  13.4461007  80.7792450  80.8283532  13.4949162  81.6554573  80.4461302
  13.9883521  80.2369844  80.2555176  12.9349986  90.8514586  64.7109487
  13.0838107  91.5350050  64.0576160  13.7416430  90.8319676  65.2258943
  15.6760295  81.5323823  77.5829891  14.8063605  81.8257389  77.3112479
  15.9119776  82.1164268  78.3037155  10.6902619  86.8779763  65.7170556
  10.4448661  85.9742093  65.9150766  10.8598534  86.8796914  64.7750034
   9.9598267  82.6108121  63.2156717   9.2667512  82.6852476  62.5596753
   9.7150019  81.8468465  63.7378234  16.4345392  93.3462716  62.1821234
  15.8619359  93.9652903  61.7291706  17.0078185  93.8962078  62.7161156
  19.6542652  93.6299866  63.3129817  20.5873325  93.5645428  63.5162692
  19.5665864  94.4656133  62.8544349  22.2830668  92.9465737  60.2733764
  22.2044300  92.6125600  61.1669522  23.1040335  93.4387505  60.2725236
  16.8192190  84.6823529  59.5237287  17.7651295  84.5529737  59.5925705
  16.4406435  83.9438191  60.0006715  15.0035107  82.6073505  59.4592172
  14.0966563  82.3106618  59.5354886  15.2811088  82.3103323  58.5926458
   5.9213048  83.9279869  69.9091218   5.6015832  83.0745177  69.6165592
   5.3746476  84.1428447  70.6649186   9.6992955  86.6442310  73.6260725
   9.9178965  87.5759418  73.6448759  10.1118729  86.2850284  74.4115529
  16.6197173  77.1510395  65.6136413  15.8097902  76.8057480  65.9891659
  17.3081590  76.8417939  66.2024025  13.7733892  79.4660441  59.6004151
  14.6353056  79.7915339  59.8599968  13.9584236  78.6791936  59.0877217
   5.7901308  87.5482780  71.8784340   5.0964779  87.1336733  71.3654294
   6.5374299  87.5903317  71.2817759  21.9266529  78.3388967  66.7439374
  21.3465198  78.9973771  66.3617427  21.6602461  77.5166312  66.3326792
  14.4352091  85.6472654  81.8328535  13.9519172  86.4473014  82.0392424
  14.5213030  85.6580599  80.8795979   7.7038050  87.4801034  69.7550355
   7.6808738  87.5788721  68.8032238   8.0138687  88.3266185  70.0767521
  10.3625428  89.5377189  73.8696969  11.3168682  89.5061131  73.8026901
  10.1637952  89.0767813  74.6847195  10.9524810  88.1078305  76.4367767
  11.7717699  88.6022384  76.4602604  11.2261618  87.1910273  76.4085334
   8.7175657  95.0796809  70.8867167   8.5830125  94.3197209  70.3205165
   8.3007719  95.8037708  70.4195956  19.8534620  90.2633732  59.8943742
  20.5570470  90.4683735  60.5101398  19.1297269  90.8310494  60.1592826
  11.8744783  95.9766126  71.0985610  11.7577167  96.9211558  70.9964300
  11.0537229  95.6739687  71.4871409  21.7621317  90.7016261  61.9442202
  22.5966921  90.2697460  61.7619677  21.6005660  90.5298275  62.8719097
   6.2059725  82.4416439  77.1359964   6.8518588  81.9315393  77.6247189
   5.9976876  83.1785121  77.7103389  14.7263335  76.7056484  62.8883860
  14.7142005  77.6498324  63.0452131  15.6186757  76.5226629  62.5943321
  14.6552899  95.3825374  70.9751617  13.7048530  95.3827236  70.8615989
  14.9585385  94.6358109  70.4587651  18.5415455  73.2999260  67.1429797
  17.7747850  72.7457747  67.2886479  18.9526160  73.3721129  68.0043949
  10.5457216  79.5884056  81.2334978  11.4088677  79.2320861  81.4438303
   9.9722626  79.2497951  81.9210382  23.0582115 103.0248817  67.9655795
  22.4946980 102.9338754  67.1972083  22.9434510 102.2048721  68.4458287
  20.6046546 104.5200009  70.8040015  21.3967838 104.1790833  70.3886315
  20.8443197 104.6294984  71.7242169  28.6381673 106.6919785  63.2770260
  27.9869653 107.2773865  62.8904274  29.4326036 107.2225980  63.3365297
  22.5637300 103.7808922  63.6757394  23.3368176 103.2337909  63.5370270
  22.9162699 104.6453171  63.8871855  24.9003578  99.9401588  61.3075844
  25.1529099  99.4183109  60.5459307  23.9628137  99.7767733  61.4102528
  30.1156938 104.3810217  63.8139244  29.4802771 104.4544843  64.5260149
  29.7854345 104.9703815  63.1358323  24.6199867 101.8429694  63.5100219
  24.5036125 101.1674597  64.1781303  24.7302127 101.3562068  62.6932372
  26.9631408 101.3039841  67.2146908  26.5989615 100.7770462  67.9259830
  27.8198524 100.9138310  67.0413394  26.6036895  96.3329741  62.2108257
  26.7711297  97.2009977  62.5778728  26.4134064  96.4957022  61.2869546
  22.8124710 101.2460516  69.9110792  21.8875206 101.1136731  70.1188483
  23.0609123 102.0254736  70.4080734  26.5826116  98.7887398  63.1954924
  26.4625741  99.2344449  64.0340404  25.8878704  99.1372716  62.6368462
  20.1733521 100.8893790  70.7454581  20.3025902 101.1428269  71.6593992
  19.4930972 101.4821498  70.4259236  24.3433008 111.5591040  66.8445055
  24.2657038 112.5098865  66.9233535  23.7394651 111.2136912  67.5019981
  32.2811182  99.2608871  64.0235258  33.1929038  99.4936258  63.8482955
  31.7720829  99.8445916  63.4610336  30.8880764 104.2434690  71.4148839
  30.2589627 104.4080404  70.7124907  30.5006426 104.6576299  72.1859803
  34.7669996 105.1789128  68.7693203  34.0821034 105.5588029  68.2190236
  34.8513845 105.7884454  69.5025151  26.4408726 103.9809098  68.6798924
  26.9047072 104.2596801  67.8903547  26.1765524 103.0792542  68.4972015
  23.3332807 103.5280579  71.6178687  23.9034164 103.9567848  70.9796172
  23.9240919 103.2463164  72.3162873  25.3777612 100.1032250  65.4888489
  26.0801655 100.5553294  65.9562416  25.0458241  99.4616069  66.1168382
  19.1202946  98.3615803  70.7905623  18.3302000  98.6173331  70.3145733
  19.6114193  99.1764141  70.8957663  33.1366756 105.7021042  73.5410904
  33.9584199 105.3001229  73.2593585  33.1329159 105.5989276  74.4927019
  21.0717691  98.7260382  67.7489100  20.2748855  98.8379076  68.2672595
  20.8443284  99.0647034  66.8829990  26.6171377 106.9173193  65.5650595
  26.4817052 107.7624729  65.9935442  27.1581189 107.1192471  64.8016528
  20.0700774 104.4348631  66.1378520  20.5825295 105.2291881  66.2884084
  20.7223487 103.7374921  66.0712121  21.8795659 107.5514387  68.2201273
  22.0562287 108.4732352  68.0322257  22.6752492 107.2372806  68.6495653
  23.0026974 109.0692561  74.2211615  23.5534399 108.9409624  73.4488609
  22.1638450 109.3687450  73.8706508  18.0349691 102.7637285  66.9138090
  18.8724913 103.1734294  66.6971798  18.2127959 101.8236727  66.8838284
  29.9314123 100.4312366  62.6021923  29.4160746 101.2016970  62.8410310
  29.6591431  99.7577502  63.2254985  34.9048397 103.1844721  64.5375097
  34.1277840 102.8455880  64.0930259  35.5839878 103.1897344  63.8630062
  29.7200426  98.3039458  64.4281704  29.4150562  98.6185607  65.2791847
  30.6730868  98.3820878  64.4709037  28.1646858 104.4629681  66.0774658
  27.6368220 103.7282441  65.7647896  27.6634361 105.2404358  65.8314627
  23.2235173  97.1553809  62.4577155  22.3872485  97.4928495  62.7786430
  23.0839942  97.0202788  61.5204292  26.3099458 102.2809892  59.0809631
  25.4026520 102.0499145  59.2800780  26.8070490 101.4847511  59.2683613
  29.2167537 110.9907399  62.0006317  28.5429236 111.2939095  62.6091275
  29.6033359 111.7936479  61.6511774  29.2161041  99.8863946  66.6206667
  29.9632860 100.3985343  66.3113789  29.4852631  99.5647998  67.4811061
  27.4887692 102.3822486  63.6033621  26.5798911 102.0981519  63.7006091
  27.5182775 102.8021565  62.7436928  32.7206959 105.9929076  67.3724789
  32.2669286 105.1519986  67.4289979  32.0900926 106.6290474  67.7099569
  31.1639898 107.8305573  68.3074607  31.4562873 108.3910630  67.5886973
  31.6738519 108.1234134  69.0627766  18.0575862 100.1028001  67.5848824
  17.8600262  99.5097361  66.8599890  17.5022526  99.7980211  68.3024762
  27.1863779 103.9231230  60.9421700  26.7483209 103.2067089  60.4827337
  27.9274220 104.1507345  60.3806791  23.9764946  98.6128167  67.4633796
  23.1632811  98.9122337  67.8698988  24.4723940  98.2183856  68.1808278
  26.1273524 108.6085924  69.3968060  26.0849702 108.8346770  68.4676592
  27.0436222 108.3749298  69.5453861  35.3036894 102.1988427  66.9998019
  35.1654793 102.3890023  66.0719208  34.9473113 102.9607810  67.4566070
  24.2439324 105.4848953  69.1930023  25.0379923 104.9899273  68.9912598
  23.5331017 104.9566816  68.8297729  29.0634169 107.8667048  73.5442391
  29.1171191 108.4357985  74.3120107  28.1948950 108.0368933  73.1796428
  20.5522088  99.6292034  65.2689776  19.6219676  99.5676490  65.4859738
  20.6479560  99.1067987  64.4726417  20.4707637  96.1546847  67.8568017
  20.7314454  97.0692181  67.7477178  21.2924809  95.6871290  68.0064630
  27.4158752 111.1587071  64.2153397  27.5910508 110.6875114  65.0299019
  26.7291540 111.7852837  64.4434657  28.3715815 105.4359577  70.2616698
  28.0365648 105.3960347  71.1574348  27.8719761 104.7704293  69.7887108
  31.3075007 102.7815612  60.5353758  30.6904178 102.0562440  60.4386810
  30.8391496 103.5424972  60.1920832  21.9819838 114.3076434  70.9893257
  22.2216436 114.9394958  71.6672275  21.1389034 113.9564474  71.2758616
  23.0973553  97.0001036  59.6575062  22.2203019  96.8789837  59.2937308
  23.5731306  96.2087114  59.4053950  14.6175693 101.7878196  69.7516569
  15.3046733 101.4739926  69.1637584  14.4623822 102.6919560  69.4783820
  26.4947699 110.1155556  73.3934761  26.4217871 110.9210528  73.9054065
  26.0525093 110.3147522  72.5682782  26.2837479 109.3527326  66.9037582
  25.5005001 109.8949007  66.9975807  26.9830224 109.8701306  67.3031823
  28.9546383 110.0142390  75.5492919  29.6674355 110.6489855  75.4768821
  28.4636412 110.1106256  74.7332921  30.6763910 103.9193643  67.1210211
  29.7420189 104.0395106  66.9514915  30.8540578 103.0166110  66.8570221
  34.0636461  99.7610962  67.6560245  34.5296913 100.5938954  67.5820548
  34.5143962  99.2955944  68.3605504  32.1312692 106.1054784  64.6546397
  32.4072536 105.9911378  65.5640271  31.2617191 105.7072268  64.6158570
  28.7666756 110.3541134  68.2979211  28.9489151 109.5362790  68.7606963
  29.5899742 110.5708827  67.8604101  29.1008922 109.2809320  65.5594259
  29.6296688 108.7701774  64.9464421  29.3637141 108.9651850  66.4239792
  19.6026015 107.2973189  73.3029593  20.1879451 106.5516877  73.4357497
  19.4050853 107.6077146  74.1866257  22.4564670 110.3324436  68.3192035
  21.7875045 110.8170564  67.8356075  22.3177539 110.5793657  69.2335414
  26.5969938 112.3668180  74.9174694  27.1488246 112.5299801  75.6823779
  26.9376132 112.9572618  74.2454719  17.8252247  98.5942891  65.0987967
  18.1205688  97.6853570  65.0455021  16.9240283  98.5730631  64.7768970
  29.7338326 110.3150155  71.9038376  29.6089465 109.5139895  71.3949321
  30.3917417 110.8096349  71.4152346  31.7973234 108.1159175  73.5317926
  30.8503570 107.9964527  73.4596253  32.1456007 107.2281673  73.6144187
  19.5540088  96.2756989  65.2227293  19.2252795  95.3954368  65.0402399
  19.9079459  96.2204658  66.1103682  28.8019667 107.9111892  69.7322278
  28.6544630 106.9828599  69.9129848  29.6273161 107.9331982  69.2479353
  22.6681912  96.5629959  65.5902770  23.0077984  97.0915880  64.8681379
  23.1154032  96.9010365  66.3661337  32.4053789 108.7340450  70.8187151
  33.3300337 108.5283312  70.6811602  32.2369093 108.4856852  71.7276492
  24.6550059  95.0604580  63.7896063  25.3758421  95.4385833  63.2859780
  24.0315363  95.7793457  63.8931041  28.7981182  95.7649729  64.7254395
  29.0144796  96.6474367  64.4243224  28.3175249  95.3735943  63.9960037
  32.1949105 109.2526118  66.1749242  32.3685983 108.6872540  65.4223095
  32.6877997 110.0527013  65.9928732  33.1824278 108.5692882  63.2746141
  33.8775182 109.1899575  63.4933455  33.5247428 107.7188233  63.5498519
  35.0815701 106.0192588  64.8033471  35.6067025 106.3579861  64.0782791
  34.9938054 105.0839603  64.6196606  26.7435750 109.9326661  76.9323348
  27.0522876 109.6875808  77.8046048  27.5411232 110.1373300  76.4442218
  26.7656362 112.0864571  69.1628725  26.3261352 111.5940950  69.8561581
  27.5164479 111.5437539  68.9220800  19.2448701 108.2776112  69.1653353
  20.0706721 107.9779884  68.7851996  18.8942753 107.5083734  69.6143141
  24.2130234 107.6302580  71.2351026  23.5910243 106.9673285  70.9353254
  24.8835101 107.6563712  70.5524674  17.4457306 106.1962438  70.1242286
  16.6089214 105.7684613  69.9426288  17.4180951 106.3894882  71.0613077
  23.7743741 106.1806503  64.7109487  23.9231861 106.8641968  64.0576160
  24.5810184 106.1611594  65.2258943  21.5296374 102.2071681  65.7170556
  21.2842416 101.3034011  65.9150766  21.6992288 102.2088832  64.7750034
  20.7992021  97.9400039  63.2156717  20.1061266  98.0144394  62.5596753
  20.5543773  97.1760382  63.7378234  27.2739146 108.6754634  62.1821234
  26.7013113 109.2944821  61.7291706  27.8471940 109.2253996  62.7161156
  30.4936406 108.9591784  63.3129817  31.4267079 108.8937346  63.5162692
  30.4059619 109.7948051  62.8544349  33.1224423 108.2757654  60.2733764
  33.0438054 107.9417518  61.1669522  33.9434090 108.7679422  60.2725236
  27.6585945 100.0115447  59.5237287  28.6045050  99.8821655  59.5925705
  27.2800190  99.2730109  60.0006715  25.8428862  97.9365423  59.4592172
  24.9360317  97.6398536  59.5354886  26.1204843  97.6395241  58.5926458
  16.7606802  99.2571786  69.9091218  16.4409587  98.4037095  69.6165592
  16.2140231  99.4720365  70.6649186  24.6127647  94.7952358  59.6004151
  25.4746811  95.1207257  59.8599968  24.7977991  94.0083854  59.0877217
  16.6295062 102.8774698  71.8784340  15.9358534 102.4628651  71.3654294
  17.3768053 102.9195234  71.2817759  18.5431805 102.8092952  69.7550355
  18.5202493 102.9080639  68.8032238  18.8532441 103.6558103  70.0767521
  31.5485161  95.8280975  65.7995722  30.6611016  96.1130626  65.5815917
  31.9639150  95.6674738  64.9522999  19.5569412 110.4088726  70.8867167
  19.4223879 109.6489127  70.3205165  19.1401474 111.1329626  70.4195956
  30.6928375 105.5925650  59.8943742  31.3964225 105.7975652  60.5101398
  29.9691023 106.1602412  60.1592826  31.5226185 101.3435511  66.0146013
  31.4661386 101.8004062  65.1753645  32.0754527 100.5826196  65.8368855
  35.3330991  97.1325243  66.8396132  35.0767925  96.7321879  67.6704340
  34.7083859  97.8469037  66.7146271  22.7138537 111.3058043  71.0985610
  22.5970922 112.2503476  70.9964300  21.8930984 111.0031605  71.4871409
  32.6015072 106.0308179  61.9442202  33.4360676 105.5989377  61.7619677
  32.4399415 105.8590193  62.8719097  32.2560964 102.5340292  63.3098542
  32.2009768 102.3684564  62.3686986  31.6307019 103.2416325  63.4660731
  25.5657090  92.0348401  62.8883860  25.5535759  92.9790241  63.0452131
  26.4580511  91.8518547  62.5943321  23.7393052 111.9586305  74.3141538
  24.6420298 111.9909915  74.6308033  23.5130422 111.0286756  74.3287874
  25.4946654 110.7117292  70.9751617  24.5442285 110.7119153  70.8615989
  25.7979140 109.9650026  70.4587651  41.2299347 116.5477830  72.0397379
  41.8677757 116.4284577  71.3360719  41.1120190 117.4958674  72.0985331
  38.0389053 116.5005258  71.9758904  37.7007565 116.3846323  71.0879439
  38.9078822 116.0996423  71.9559910  33.8975869 118.3540735  67.9655795
  33.3340734 118.2630672  67.1972083  33.7828264 117.5340639  68.4458287
  38.5208836 117.6540110  77.9345109  38.5097477 117.2592908  77.0625613
  38.6829476 116.9206183  78.5278881  31.4440301 119.8491926  70.8040015
  32.2361593 119.5082751  70.3886315  31.6836951 119.9586901  71.7242169
  39.4775428 122.0211702  63.2770260  38.8263407 122.6065783  62.8904274
  40.2719791 122.5517897  63.3365297  33.4031055 119.1100839  63.6757394
  34.1761931 118.5629827  63.5370270  33.7556454 119.9745089  63.8871855
  35.2416097 120.4377222  76.8824293  34.9505963 121.3422853  76.7670960
  35.8773082 120.4793749  77.5968363  36.1672304 117.8154070  73.4725653
  36.7635877 117.5910093  72.7582616  36.2247276 117.0738816  74.0751101
  35.7397333 115.2693506  61.3075844  35.9922853 114.7475027  60.5459307
  34.8021892 115.1059651  61.4102528  40.7840616 114.2729284  69.1150587
  41.5703705 113.8548707  68.7641004  41.0479320 115.1775376  69.2832236
  40.9550693 119.7102134  63.8139244  40.3196526 119.7836761  64.5260149
  40.6248099 120.2995733  63.1358323  46.1849043 114.2104517  70.0183566
  46.9174215 113.6403734  70.2521395  45.4288398 113.8226118  70.4590071
  35.4593621 117.1721612  63.5100219  35.3429880 116.4966515  64.1781303
  35.5695881 116.6853985  62.6932372  37.8025162 116.6331759  67.2146908
  37.4383370 116.1062380  67.9259830  38.6592278 116.2430228  67.0413394
  37.4430649 111.6621658  62.2108257  37.6105052 112.5301895  62.5778728
  37.2527818 111.8248940  61.2869546  40.2005983 120.1238637  73.8774087
  39.9006706 121.0263676  73.7689894  39.8557042 119.8570820  74.7295240
  33.6518464 116.5752434  69.9110792  32.7268960 116.4428648  70.1188483
  33.9002877 117.3546653  70.4080734  43.6003126 112.6421177  71.5571524
  42.6920004 112.5736586  71.2630285  43.5490722 113.1193122  72.3853350
  37.4219870 114.1179316  63.1954924  37.3019495 114.5636367  64.0340404
  36.7272459 114.4664634  62.6368462  31.0127275 116.2185708  70.7454581
  31.1419656 116.4720187  71.6593992  30.3324726 116.8113416  70.4259236
  35.1826762 126.8882958  66.8445055  35.1050792 127.8390783  66.9233535
  34.5788406 126.5428830  67.5019981  37.6743992 114.0610823  79.5006422
  36.8977326 114.6204743  79.4909286  38.3134555 114.5467606  80.0221292
  45.4664773 110.8437616  73.3349398  44.8239153 111.1370149  72.6889193
  44.9619701 110.7290536  74.1402595  43.1204936 114.5900789  64.0235258
  44.0322792 114.8228176  63.8482955  42.6114583 115.1737833  63.4610336
  35.9290364 116.8696276  79.0624389  36.6705049 117.4081320  78.7859212
  35.2227350 117.4962565  79.2195940  41.4045704 119.0125417  77.6596550
  41.8129060 118.5707827  76.9151183  40.6822966 118.4378044  77.9130743
  37.7576774 113.9498024  75.0330107  38.6037969 114.3737437  75.1764756
  37.6975412 113.2931648  75.7268670  41.7274519 119.5726607  71.4148839
  41.0983381 119.7372322  70.7124907  41.3400181 119.9868217  72.1859803
  45.6063751 120.5081045  68.7693203  44.9214789 120.8879947  68.2190236
  45.6907600 121.1176372  69.5025151  40.9076219 111.6102392  76.6911281
  40.6637151 112.3644452  76.1545556  41.1836150 111.9887740  77.5258528
  42.8614682 118.1541004  75.3688546  43.0731577 118.7972764  74.6922927
  42.8144430 117.3203321  74.9010476  40.4640911 110.7658825  72.2725118
  39.6025390 111.0640079  72.5641856  40.4903346 110.9829224  71.3406151
  37.2802481 119.3101016  68.6798924  37.7440826 119.5888719  67.8903547
  37.0159279 118.4084460  68.4972015  34.1726562 118.8572497  71.6178687
  34.7427919 119.2859765  70.9796172  34.7634673 118.5755082  72.3162873
  36.2171367 115.4324168  65.4888489  36.9195410 115.8845212  65.9562416
  35.8851995 114.7907987  66.1168382  34.6651728 114.0235925  79.8639699
  34.0350389 114.7052205  80.0975095  34.5587816 113.9119006  78.9192837
  29.9596701 113.6907721  70.7905623  29.1695755 113.9465249  70.3145733
  30.4507948 114.5056058  70.8957663  43.9760510 121.0312960  73.5410904
  44.7977954 120.6293147  73.2593585  43.9722913 120.9281194  74.4927019
  31.9111446 114.0552300  67.7489100  31.1142609 114.1670994  68.2672595
  31.6837038 114.3938952  66.8829990  37.7417114 120.5797003  75.6971614
  37.8061546 121.0417410  76.5329786  37.0328037 119.9494368  75.8253924
  28.2434404 113.9438211  73.2220614  28.4942442 114.8285221  73.4878190
  28.7793952 113.7642813  72.4495705  52.0666503 117.3751708  69.8895875
  51.3130212 116.8059106  69.7339880  52.2014044 117.3414373  70.8366510
  37.4565131 122.2465111  65.5650595  37.3210806 123.0916646  65.9935442
  37.9974944 122.4484388  64.8016528  30.9094529 119.7640549  66.1378520
  31.4219049 120.5583799  66.2884084  31.5617241 119.0666839  66.0712121
  32.7189413 122.8806305  68.2201273  32.8956042 123.8024270  68.0322257
  33.5146247 122.5664724  68.6495653  32.0041770 114.9270937  78.0963436
  31.8895285 114.0256194  78.3970535  31.1486288 115.1734634  77.7448253
  39.0833608 122.8688677  79.6950937  38.6397462 122.0825056  79.3771841
  39.7450821 123.0567828  79.0294827  33.8420729 124.3984479  74.2211615
  34.3928154 124.2701542  73.4488609  33.0032205 124.6979368  73.8706508
  41.1814846 123.1491477  77.7232338  41.1633321 123.9700358  77.2312607
  42.1034766 123.0245552  77.9482479  37.6387900 120.6635606  78.5655846
  38.1716237 119.9023895  78.3355154  37.1101981 120.3709258  79.3080001
  28.8743445 118.0929203  66.9138090  29.7118667 118.5026211  66.6971798
  29.0521713 117.1528645  66.8838284  40.7707878 115.7604284  62.6021923
  40.2554501 116.5308888  62.8410310  40.4985186 115.0869420  63.2254985
  38.3554989 110.6053984  67.6607161  37.4996585 110.2160835  67.4812800
  38.7681940 110.6845945  66.8006947  36.1297021 108.2239057  71.0664903
  36.9950018 108.0281866  70.7070792  36.1974530 107.9949409  71.9934260
  45.7442152 118.5136638  64.5375097  44.9671594 118.1747798  64.0930259
  46.4233633 118.5189261  63.8630062  40.5594181 113.6331376  64.4281704
  40.2544316 113.9477525  65.2791847  41.5124623 113.7112796  64.4709037
  39.0040613 119.7921599  66.0774658  38.4761974 119.0574359  65.7647896
  38.5028115 120.5696275  65.8314627  43.9833459 117.9870619  71.1941705
  43.3257133 118.6769881  71.2821833  44.7873858 118.3767051  71.5375691
  33.7359340 110.4541265  68.4381270  34.3103092 110.2316447  67.7054463
  34.3230323 110.5229960  69.1909871  42.7938917 116.3414992  69.2445646
  43.3070799 116.9744984  69.7467356  43.4440141 115.7416188  68.8789006
  34.0628927 112.4845726  62.4577155  33.2266240 112.8220413  62.7786430
  33.9233697 112.3494706  61.5204292  36.0382008 107.3282514  67.1656339
  35.3846420 107.0131531  66.5412954  35.9962482 106.7058255  67.8916162
  37.1493213 117.6101809  59.0809631  36.2420274 117.3791063  59.2800780
  37.6464245 116.8139428  59.2683613  40.0561292 126.3199316  62.0006317
  39.3822990 126.6231013  62.6091275  40.4427114 127.1228397  61.6511774
  39.2719748 113.8164448  71.4903987  38.3542310 114.0379395  71.3325675
  39.6879892 113.8910758  70.6315694  40.0554796 115.2155863  66.6206667
  40.8026615 115.7277261  66.3113789  40.3246386 114.8939916  67.4811061
  38.3281446 117.7114404  63.6033621  37.4192665 117.4273437  63.7006091
  38.3576530 118.1313483  62.7436928  43.5600714 121.3220994  67.3724789
  43.1063041 120.4811903  67.4289979  42.9294680 121.9582392  67.7099569
  42.5033633 112.2512980  68.6025456  41.7656390 111.7390366  68.9335699
  42.7560407 111.8113361  67.7908733  42.0033653 123.1597490  68.3074607
  42.2956627 123.7202547  67.5886973  42.5132273 123.4526051  69.0627766
  28.8969617 115.4319918  67.5848824  28.6994016 114.8389279  66.8599890
  28.3416281 115.1272128  68.3024762  36.8766340 115.3243025  69.7043417
  36.9314950 114.3716861  69.6285893  36.0657542 115.4802464  70.1884715
  38.0257534 119.2523148  60.9421700  37.5876964 118.5359007  60.4827337
  38.7667975 119.4799263  60.3806791  34.8158700 113.9420084  67.4633796
  34.0026566 114.2414255  67.8698988  35.3117694 113.5475773  68.1808278
  36.9667278 123.9377841  69.3968060  36.9243457 124.1638688  68.4676592
  37.8829977 123.7041216  69.5453861  40.4132912 114.4061909  76.2948689
  40.7682300 114.6333382  77.1543155  41.0605043 114.7380286  75.6725945
  46.1430649 117.5280345  66.9998019  46.0048547 117.7181941  66.0719208
  45.7866868 118.2899728  67.4566070  34.3072775 111.5138440  73.0795031
  34.9472154 111.3727199  72.3817994  33.4750305 111.2272953  72.7033633
  46.1700028 119.5956872  72.0109290  46.6036535 119.5032161  72.8592344
  46.8831609 119.5714372  71.3729306  35.0833079 120.8140870  69.1930023
  35.8773677 120.3191191  68.9912598  34.3724771 120.2858733  68.8297729
  39.9027923 123.1958966  73.5442391  39.9564946 123.7649902  74.3120107
  39.0342705 123.3660851  73.1796428  31.3915842 114.9583952  65.2689776
  30.4613430 114.8968408  65.4859738  31.4873314 114.4359905  64.4726417
  31.3101391 111.4838765  67.8568017  31.5708209 112.3984098  67.7477178
  32.1318564 111.0163208  68.0064630  32.7826317 112.8976522  75.0266842
  33.4549370 112.6893884  74.3779491  31.9556103 112.6998608  74.5872074
  47.0315578 119.6380572  74.5442175  47.2251468 120.5426383  74.7901450
  46.9316196 119.1787992  75.3780760  38.6851889 109.5238463  77.0432503
  38.0379804 110.2228413  76.9496979  39.4552904 109.9574607  77.4108751
  42.0930687 119.7887315  80.1183056  41.9416193 119.5597867  79.2013140
  42.0835366 120.7457917  80.1314401  38.8616023 117.3619228  75.1029322
  39.7908083 117.5130388  74.9298290  38.4407053 117.4503249  74.2477969
  37.6604355 121.3869892  72.8727860  37.5215440 121.0188677  73.7453798
  36.8718951 121.9017532  72.7011818  38.2552507 126.4878989  64.2153397
  38.4304262 126.0167032  65.0299019  37.5685295 127.1144755  64.4434657
  39.2109570 120.7651495  70.2616698  38.8759403 120.7252265  71.1574348
  38.7113516 120.0996211  69.7887108  33.1853814 116.1719125  75.7869279
  33.0473612 115.4399364  76.3880818  34.0958737 116.0828025  75.5053467
  42.1468762 118.1107529  60.5353758  41.5297932 117.3854358  60.4386810
  41.6785250 118.8716890  60.1920832  35.8136115 115.8839084  75.2752959
  36.5235733 115.2432277  75.2339577  35.7705423 116.1351979  76.1979139
  43.8022893 122.8206438  78.1959538  43.7435439 122.1365658  77.5290121
  44.2042412 123.5625428  77.7440164  34.5265049 112.8704302  77.0948598
  33.9902406 112.4195041  77.7470194  33.9381757 113.0050211  76.3519063
  32.8213592 129.6368352  70.9893257  33.0610190 130.2686876  71.6672275
  31.9782789 129.2856392  71.2758616  33.9367307 112.3292954  59.6575062
  33.0596774 112.2081754  59.2937308  34.4125061 111.5379032  59.4053950
  43.8040301 120.7846022  76.4273518  42.9167079 120.4471943  76.5499916
  44.3738852 120.0529053  76.6642283  25.4569448 117.1170113  69.7516569
  26.1440487 116.8031843  69.1637584  25.3017576 118.0211478  69.4783820
  30.2604170 112.0060310  74.1801593  30.1762359 111.3985980  73.4452003
  29.4386876 112.4969328  74.1811089  37.3341454 125.4447474  73.3934761
  37.2611625 126.2502446  73.9054065  36.8918847 125.6439440  72.5682782
  37.1231234 124.6819244  66.9037582  36.3398755 125.2240924  66.9975807
  37.8223979 125.1993224  67.3031823  40.4327884 110.4913874  69.5471788
  40.9296583 109.7383836  69.2272858  39.6614865 110.5278190  68.9814997
  48.2857641 116.1954239  71.1890079  48.2747517 117.0778954  70.8184012
  47.4175020 115.8425790  70.9944616  39.7940137 125.3434308  75.5492919
  40.5068110 125.9781773  75.4768821  39.3030166 125.4398174  74.7332921
  41.5157664 119.2485561  67.1210211  40.5813943 119.3687023  66.9514915
  41.6934333 118.3458028  66.8570221  37.0162852 112.6331257  69.2743472
  36.6460640 112.0802297  69.9624378  37.5121945 112.0289390  68.7218472
  44.9030216 115.0902880  67.6560245  45.3690668 115.9230872  67.5820548
  45.3537716 114.6247862  68.3605504  34.8452051 123.0928752  76.3698490
  35.5461510 123.7265234  76.5227884  34.3747166 123.4343483  75.6094130
  42.9706447 121.4346701  64.6546397  43.2466291 121.3203296  65.5640271
  42.1010946 121.0364186  64.6158570  42.6453337 115.6473359  74.1951041
  41.9924787 115.8949266  73.5403493  43.0233717 114.8337497  73.8613518
  39.6060511 125.6833052  68.2979211  39.7882905 124.8654708  68.7606963
  40.4293497 125.9000744  67.8604101  39.9402676 124.6101237  65.5594259
  40.4690443 124.0993692  64.9464421  40.2030896 124.2943767  66.4239792
  38.6940910 116.3893170  80.6817078  38.0181547 116.2887299  81.3519453
  39.5168544 116.2332384  81.1453075  30.4419769 122.6265107  73.3029593
  31.0273206 121.8808794  73.4357497  30.2444607 122.9369063  74.1866257
  33.2958424 125.6616354  68.3192035  32.6268800 126.1462482  67.8356075
  33.1571294 125.9085574  69.2335414  25.0337424 115.1970707  72.0234036
  25.0721523 114.6634297  72.8171154  24.5277717 114.6705912  71.4045013
  37.4363693 127.6960097  74.9174694  37.9882001 127.8591719  75.6823779
  37.7769886 128.2864535  74.2454719  32.4128186 110.0435247  75.5196578
  32.4769513 110.9050078  75.1073976  32.3495306 109.4309249  74.7868937
  31.8880459 112.1158380  79.1669613  32.5152497 111.7335457  79.7807137
  31.0308377 111.8972582  79.5325305  42.2874567 122.5221355  80.7723348
  42.8314471 123.1351313  80.2778303  41.7061412 123.0800933  81.2890361
  28.6646001 113.9234809  65.0987967  28.9599442 113.0145487  65.0455021
  27.7634037 113.9022548  64.7768970  40.5732080 125.6442073  71.9038376
  40.4483220 124.8431813  71.3949321  41.2311171 126.1388266  71.4152346
  32.1940248 111.9990806  71.0815516  31.4726834 112.6126773  70.9422989
  32.9833504 112.5348570  71.0032162  42.6366988 123.4451093  73.5317926
  41.6897324 123.3256444  73.4596253  42.9849762 122.5573591  73.6144187
  34.9966562 109.3345232  77.3556168  35.5200964 109.5807529  78.1182477
  34.7778895 110.1665267  76.9359305  30.3933843 111.6048907  65.2227293
  30.0646549 110.7246286  65.0402399  30.7473214 111.5496575  66.1103682
  39.6413422 123.2403809  69.7322278  39.4938384 122.3120517  69.9129848
  40.4666915 123.2623900  69.2479353  33.5075666 111.8921876  65.5902770
  33.8471739 112.4207798  64.8681379  33.9547787 112.2302283  66.3661337
  43.2447544 124.0632368  70.8187151  44.1694091 123.8575229  70.6811602
  43.0762847 123.8148769  71.7276492  36.2019107 110.2758927  75.0405838
  35.8615927 109.4766740  75.4426518  35.4958113 110.5760638  74.4682672
  35.4943813 110.3896498  63.7896063  36.2152176 110.7677751  63.2859780
  34.8709117 111.1085375  63.8931041  39.6374936 111.0941647  64.7254395
  39.8538550 111.9766285  64.4243224  39.1569003 110.7027860  63.9960037
  34.3774157 114.0527360  71.3025140  34.2318738 114.3667663  72.1949422
  33.8999361 114.6712261  70.7496039  36.2370540 111.0429908  71.3506030
  36.2232109 110.1471001  71.0138327  36.9542968 111.0500572  71.9844316
  38.0896671 111.4767248  73.3959157  37.8314449 112.3984319  73.3943487
  37.5581711 111.0797683  74.0859621  43.0342860 124.5818035  66.1749242
  43.2079737 124.0164458  65.4223095  43.5271751 125.3818930  65.9928732
  28.8519820 116.5932705  74.2412801  28.3073288 117.3692513  74.3733076
  29.7299170 116.9403509  74.0831923  35.6407436 109.9244288  66.6193600
  35.7623347 108.9960935  66.8184487  35.3509479 109.9382974  65.7071915
  38.5098627 107.6099199  69.7560320  38.5320324 107.6738532  68.8012299
  38.9266686 106.7703708  69.9500826  48.8882251 117.3454458  67.7939542
  49.3313397 116.5961784  67.3958665  48.0108761 117.3364595  67.4113274
  44.0218032 123.8984800  63.2746141  44.7168937 124.5191493  63.4933455
  44.3641182 123.0480151  63.5498519  29.6385842 115.7202601  77.1342958
  28.8967578 115.8685236  77.7207588  29.3178586 115.9810866  76.2709707
  45.9209455 121.3484505  64.8033471  46.4460780 121.6871778  64.0782791
  45.8331808 120.4131521  64.6196606  37.5829504 125.2618579  76.9323348
  37.8916631 125.0167726  77.8046048  38.3804986 125.4665218  76.4442218
  37.6050116 127.4156489  69.1628725  37.1655106 126.9232867  69.8561581
  38.3558233 126.8729456  68.9220800  30.0842455 123.6068030  69.1653353
  30.9100475 123.3071801  68.7851996  29.7336507 122.8375652  69.6143141
  35.0523988 122.9594498  71.2351026  34.4303998 122.2965203  70.9353254
  35.7228855 122.9855630  70.5524674  28.2851060 121.5254356  70.1242286
  27.4482969 121.0976530  69.9426288  28.2574706 121.7186799  71.0613077
  35.1248516 111.4376286  80.8283532  35.1736671 112.3138409  80.4461302
  35.6671030 110.8953679  80.2555176  45.6103362 121.9817409  80.1084669
  44.8198905 121.9641548  79.5689169  45.3736716 122.5205703  80.8633706
  45.7301237 118.8309875  77.4217398  45.7799241 118.6659883  78.3632921
  45.6215160 117.9637134  77.0315279  34.6137495 121.5098421  64.7109487
  34.7625616 122.1933886  64.0576160  35.4203939 121.4903511  65.2258943
  43.0204999 114.8140803  78.7376705  43.9214862 114.6747268  78.4460702
  43.0952973 114.9795258  79.6774882  37.3547804 112.1907658  77.5829891
  36.4851114 112.4841224  77.3112479  37.5907285 112.7748103  78.3037155
  47.2319433 121.2506817  77.6659419  46.9404242 121.6136798  78.5022880
  46.6191565 120.5373825  77.4872752  48.4315116 118.8159697  70.1861990
  49.2662007 119.2549501  70.3499550  48.5674245 118.3398350  69.3670235
  45.4806622 116.3739432  76.1339477  45.9560743 116.5667078  75.3258329
  44.5572187 116.4298617  75.8882861  32.3690128 117.5363599  65.7170556
  32.1236170 116.6325929  65.9150766  32.5386043 117.5380749  64.7750034
  40.0586838 108.4087275  75.0995311  40.5768782 109.1448302  74.7741800
  39.7041971 108.7151268  75.9342070  31.6385776 113.2691956  63.2156717
  30.9455021 113.3436311  62.5596753  31.3937528 112.5052300  63.7378234
  38.1132901 124.0046552  62.1821234  37.5406868 124.6236739  61.7291706
  38.6865694 124.5545913  62.7161156  44.1808291 113.2505192  74.3667783
  45.1325714 113.3503289  74.3880007  44.0111741 112.4583460  74.8765867
  42.2022670 110.3360775  74.5527184  41.6072602 110.6165788  73.8573673
  41.9172367 110.8254676  75.3243925  41.3330161 124.2883702  63.3129817
  42.2660834 124.2229263  63.5162692  41.2453373 125.1239969  62.8544349
  43.9618177 123.6049572  60.2733764  43.8831809 123.2709436  61.1669522
  44.7827844 124.0971340  60.2725236  46.6596368 116.4711311  73.4810083
  46.6272689 115.5327312  73.6669767  47.2696992 116.5495348  72.7475908
  38.4979699 115.3407364  59.5237287  39.4438804 115.2113572  59.5925705
  38.1193944 114.6022026  60.0006715  46.8090857 113.2622355  73.5268366
  46.2929906 112.4780811  73.3398295  47.6930805 112.9341071  73.6914885
  52.4772918 117.5327318  72.6216119  53.2076307 117.2712606  73.1823823
  51.8679864 116.7956040  72.6618187  50.5588215 115.6735181  73.2190571
  49.8321379 115.5391146  72.6107062  50.1435502 115.9812009  74.0247289
  38.3818392 119.3925110  80.9837944  39.3021401 119.5703709  81.1777990
  38.3467975 118.4481156  80.8317643  36.6822616 113.2657341  59.4592172
  35.7754072 112.9690453  59.5354886  36.9598597 112.9687159  58.5926458
  27.6000557 114.5863704  69.9091218  27.2803341 113.7329012  69.6165592
  27.0533985 114.8012282  70.6649186  31.3780464 117.3026145  73.6260725
  31.5966474 118.2343253  73.6448759  31.7906238 116.9434120  74.4115529
  38.2984682 107.8094230  65.6136413  37.4885410 107.4641315  65.9891659
  38.9869099 107.5001774  66.2024025  40.2275230 106.8872277  67.2360710
  40.7806269 107.3067731  67.8950733  40.4645317 105.9608025  67.2783666
  36.2508330 112.8759351  83.0163474  36.1505057 113.8253708  82.9475565
  36.0329872 112.5477590  82.1439544  35.4521401 110.1244276  59.6004151
  36.3140565 110.4499174  59.8599968  35.6371745 109.3375772  59.0877217
  27.4688817 118.2066616  71.8784340  26.7752288 117.7920568  71.3654294
  28.2161808 118.2487152  71.2817759  43.6054038 108.9972802  66.7439374
  43.0252707 109.6557606  66.3617427  43.3389970 108.1750147  66.3326792
  36.1139600 116.3056490  81.8328535  35.6306681 117.1056850  82.0392424
  36.2000539 116.3164435  80.8795979  29.3825559 118.1384869  69.7550355
  29.3596247 118.2372557  68.8032238  29.6926196 118.9850020  70.0767521
  32.0412937 120.1961024  73.8696969  32.9956191 120.1644967  73.8026901
  31.8425461 119.7351648  74.6847195  32.6312319 118.7662140  76.4367767
  33.4505208 119.2606219  76.4602604  32.9049127 117.8494109  76.4085334
  42.3878916 111.1572893  65.7995722  41.5004771 111.4422543  65.5815917
  42.8032905 110.9966656  64.9522999  45.7393452 111.1819414  69.5150062
  46.5153842 111.6715866  69.7874678  45.0141586 111.6077468  69.9721931
  48.1766010 111.8947033  70.5724002  48.7710501 111.6542769  69.8617311
  48.2492594 111.1754164  71.1997539  30.3963166 125.7380644  70.8867167
  30.2617634 124.9781045  70.3205165  29.9795228 126.4621544  70.4195956
  41.5322129 120.9217567  59.8943742  42.2357979 121.1267570  60.5101398
  40.8084778 121.4894329  60.1592826  42.3619939 116.6727429  66.0146013
  42.3055141 117.1295980  65.1753645  42.9148282 115.9118113  65.8368855
  46.1724745 112.4617161  66.8396132  45.9161679 112.0613796  67.6704340
  45.5477613 113.1760955  66.7146271  50.4837083 115.2013234  69.3467423
  49.9236641 115.2706423  70.1198986  49.8780586 115.0254218  68.6266920
  33.5532292 126.6349961  71.0985610  33.4364676 127.5795393  70.9964300
  32.7324738 126.3323522  71.4871409  43.4408826 121.3600097  61.9442202
  44.2754430 120.9281295  61.7619677  43.2793169 121.1882110  62.8719097
  43.0954719 117.8632210  63.3098542  43.0403522 117.6976481  62.3686986
  42.4700774 118.5708243  63.4660731  27.8847234 113.1000274  77.1359964
  28.5306097 112.5899228  77.6247189  27.6764385 113.8368956  77.7103389
  40.4100626 120.1681122  82.6352105  41.2791785 120.3421774  82.2738739
  39.9307377 120.9875539  82.5127834  36.4050844 107.3640319  62.8883860
  36.3929514 108.3082159  63.0452131  37.2974266 107.1810464  62.5943321
  34.5786806 127.2878223  74.3141538  35.4814053 127.3201833  74.6308033
  34.3524176 126.3578674  74.3287874  36.3340408 126.0409209  70.9751617
  35.3836039 126.0411071  70.8615989  36.6372894 125.2941944  70.4587651
  40.2202964 103.9583096  67.1429797  39.4535359 103.4041582  67.2886479
  40.6313668 104.0304964  68.0043949  32.2244725 110.2467891  81.2334978
  33.0876186 109.8904696  81.4438303  31.6510135 109.9081786  81.9210382
  52.0693102 131.8769748  72.0397379  52.7071511 131.7576495  71.3360719
  51.9513944 132.8250592  72.0985331  48.8782808 131.8297176  71.9758904
  48.5401319 131.7138241  71.0879439  49.7472576 131.4288341  71.9559910
  44.7369623 133.6832652  67.9655795  44.1734489 133.5922589  67.1972083
  44.6222019 132.8632557  68.4458287  49.3602591 132.9832028  77.9345109
  49.3491232 132.5884826  77.0625613  49.5223230 132.2498100  78.5278881
  42.2834055 135.1783844  70.8040015  43.0755347 134.8374669  70.3886315
  42.5230706 135.2878819  71.7242169  44.2424809 134.4392757  63.6757394
  45.0155685 133.8921744  63.5370270  44.5950208 135.3037006  63.8871855
  47.0066059 133.1445988  73.4725653  47.6029631 132.9202010  72.7582616
  47.0641030 132.4030733  74.0751101  46.5791087 130.5985423  61.3075844
  46.8316608 130.0766945  60.5459307  45.6415646 130.4351569  61.4102528
  51.6234370 129.6021202  69.1150587  52.4097459 129.1840625  68.7641004
  51.8873074 130.5067294  69.2832236  51.7944447 135.0394052  63.8139244
  51.1590280 135.1128678  64.5260149  51.4641854 135.6287651  63.1358323
  57.0242797 129.5396435  70.0183566  57.7567969 128.9695652  70.2521395
  56.2682153 129.1518035  70.4590071  46.2987376 132.5013529  63.5100219
  46.1823634 131.8258433  64.1781303  46.4089636 132.0145903  62.6932372
  48.6418917 131.9623676  67.2146908  48.2777124 131.4354297  67.9259830
  49.4986033 131.5722145  67.0413394  54.5468217 123.2518009  74.4778174
  54.2151542 124.1213420  74.2539389  53.9513831 122.9354293  75.1572205
  48.2824404 126.9913576  62.2108257  48.4498806 127.8593812  62.5778728
  48.0921573 127.1540858  61.2869546  51.0399737 135.4530555  73.8774087
  50.7400460 136.3555594  73.7689894  50.6950797 135.1862738  74.7295240
  44.4912218 131.9044352  69.9110792  43.5662715 131.7720566  70.1188483
  44.7396632 132.6838571  70.4080734  54.4396881 127.9713095  71.5571524
  53.5313758 127.9028504  71.2630285  54.3884477 128.4485040  72.3853350
  48.2613625 129.4471234  63.1954924  48.1413250 129.8928284  64.0340404
  47.5666213 129.7956551  62.6368462  41.8521030 131.5477625  70.7454581
  41.9813411 131.8012104  71.6593992  41.1718481 132.1405333  70.4259236
  48.5137747 129.3902741  79.5006422  47.7371081 129.9496661  79.4909286
  49.1528310 129.8759524  80.0221292  56.3058527 126.1729533  73.3349398
  55.6632907 126.4662067  72.6889193  55.8013456 126.0582454  74.1402595
  53.9598691 129.9192707  64.0235258  54.8716547 130.1520093  63.8482955
  53.4508338 130.5029751  63.4610336  46.7684119 132.1988194  79.0624389
  47.5098803 132.7373238  78.7859212  46.0621104 132.8254483  79.2195940
  52.2439459 134.3417335  77.6596550  52.6522815 133.8999745  76.9151183
  51.5216720 133.7669962  77.9130743  48.5970529 129.2789941  75.0330107
  49.4431724 129.7029355  75.1764756  48.5369166 128.6223566  75.7268670
  52.5668273 134.9018525  71.4148839  51.9377136 135.0664239  70.7124907
  52.1793935 135.3160135  72.1859803  56.4457505 135.8372963  68.7693203
  55.7608543 136.2171864  68.2190236  56.5301354 136.4468290  69.5025151
  51.7469974 126.9394310  76.6911281  51.5030906 127.6936370  76.1545556
  52.0229904 127.3179657  77.5258528  53.7008437 133.4832922  75.3688546
  53.9125332 134.1264682  74.6922927  53.6538185 132.6495239  74.9010476
  51.3034666 126.0950743  72.2725118  50.4419145 126.3931996  72.5641856
  51.3297100 126.3121142  71.3406151  48.1196235 134.6392933  68.6798924
  48.5834581 134.9180636  67.8903547  47.8553033 133.7376378  68.4972015
  45.0120316 134.1864415  71.6178687  45.5821673 134.6151683  70.9796172
  45.6028428 133.9046999  72.3162873  47.0565121 130.7616086  65.4888489
  47.7589164 131.2137129  65.9562416  46.7245750 130.1199904  66.1168382
  45.5045483 129.3527842  79.8639699  44.8744143 130.0344123  80.0975095
  45.3981571 129.2410924  78.9192837  40.7990455 129.0199638  70.7905623
  40.0089509 129.2757167  70.3145733  41.2901702 129.8347976  70.8957663
  54.8154265 136.3604877  73.5410904  55.6371708 135.9585065  73.2593585
  54.8116667 136.2573112  74.4927019  42.7505200 129.3844218  67.7489100
  41.9536364 129.4962912  68.2672595  42.5230793 129.7230870  66.8829990
  48.5810868 135.9088921  75.6971614  48.6455301 136.3709328  76.5329786
  47.8721792 135.2786286  75.8253924  39.0828158 129.2730129  73.2220614
  39.3336196 130.1577139  73.4878190  39.6187706 129.0934730  72.4495705
  62.9060258 132.7043626  69.8895875  62.1523966 132.1351024  69.7339880
  63.0407799 132.6706290  70.8366510  44.7826225 123.6548608  82.2264950
  44.3893171 123.1014807  82.9012594  45.5992366 123.9659187  82.6171467
  47.6994186 125.0706487  79.8185206  48.4403900 125.6713640  79.7389669
  47.9312109 124.3284125  79.2603249  42.8435524 130.2562854  78.0963436
  42.7289040 129.3548112  78.3970535  41.9880042 130.5026551  77.7448253
  48.4781654 135.9927524  78.5655846  49.0109991 135.2315812  78.3355154
  47.9495735 135.7001176  79.3080001  51.6451349 121.0987590  74.0949488
  51.3015619 121.9889232  74.0188599  52.0130312 120.9089248  73.2319073
  39.7137200 133.4221121  66.9138090  40.5512422 133.8318129  66.6971798
  39.8915468 132.4820563  66.8838284  51.6101632 131.0896201  62.6021923
  51.0948255 131.8600806  62.8410310  51.3378940 130.4161337  63.2254985
  49.1948743 125.9345902  67.6607161  48.3390339 125.5452752  67.4812800
  49.6075695 126.0137863  66.8006947  50.7247890 123.4692245  72.0598721
  50.2212685 123.4322380  71.2466527  51.0178497 124.3784988  72.1195378
  46.9690776 123.5530975  71.0664903  47.8343772 123.3573784  70.7070792
  47.0368284 123.3241327  71.9934260  56.5835906 133.8428556  64.5375097
  55.8065349 133.5039715  64.0930259  57.2627387 133.8481179  63.8630062
  51.3987935 128.9623293  64.4281704  51.0938071 129.2769442  65.2791847
  52.3518377 129.0404713  64.4709037  49.8434367 135.1213517  66.0774658
  49.3155729 134.3866276  65.7647896  49.3421870 135.8988193  65.8314627
  54.8227213 133.3162537  71.1941705  54.1650887 134.0061799  71.2821833
  55.6267612 133.7058969  71.5375691  44.5753095 125.7833183  68.4381270
  45.1496847 125.5608364  67.7054463  45.1624077 125.8521877  69.1909871
  53.6332672 131.6706910  69.2445646  54.1464554 132.3036902  69.7467356
  54.2833896 131.0708105  68.8789006  44.9022682 127.8137644  62.4577155
  44.0659994 128.1512330  62.7786430  44.7627451 127.6786624  61.5204292
  46.8775762 122.6574432  67.1656339  46.2240175 122.3423449  66.5412954
  46.8356237 122.0350172  67.8916162  47.9886967 132.9393727  59.0809631
  47.0814029 132.7082980  59.2800780  48.4857999 132.1431346  59.2683613
  50.1113503 129.1456365  71.4903987  49.1936064 129.3671312  71.3325675
  50.5273646 129.2202676  70.6315694  50.8948550 130.5447781  66.6206667
  51.6420369 131.0569178  66.3113789  51.1640140 130.2231834  67.4811061
  49.1675201 133.0406322  63.6033621  48.2586420 132.7565355  63.7006091
  49.1970284 133.4605400  62.7436928  54.3994468 136.6512911  67.3724789
  53.9456795 135.8103821  67.4289979  53.7688435 137.2874310  67.7099569
  53.3427388 127.5804897  68.6025456  52.6050144 127.0682283  68.9335699
  53.5954161 127.1405279  67.7908733  52.8427407 138.4889408  68.3074607
  53.1350382 139.0494465  67.5886973  53.3526028 138.7817969  69.0627766
  53.4439015 120.3581149  69.1967226  53.7497892 119.4978513  68.9093141
  54.1691620 120.9498769  68.9966220  39.7363371 130.7611836  67.5848824
  39.5387771 130.1681197  66.8599890  39.1810035 130.4564046  68.3024762
  47.7160095 130.6534942  69.7043417  47.7708704 129.7008779  69.6285893
  46.9051297 130.8094381  70.1884715  48.8651288 134.5815065  60.9421700
  48.4270718 133.8650924  60.4827337  49.6061729 134.8091180  60.3806791
  45.6552455 129.2712002  67.4633796  44.8420320 129.5706173  67.8698988
  46.1511449 128.8767691  68.1808278  51.2526666 129.7353827  76.2948689
  51.6076054 129.9625300  77.1543155  51.8998798 130.0672203  75.6725945
  56.9824403 132.8572262  66.9998019  56.8442302 133.0473858  66.0719208
  56.6260622 133.6191645  67.4566070  45.1466529 126.8430358  73.0795031
  45.7865909 126.7019117  72.3817994  44.3144060 126.5564871  72.7033633
  57.0093783 134.9248789  72.0109290  57.4430290 134.8324079  72.8592344
  57.7225364 134.9006290  71.3729306  45.9226833 136.1432788  69.1930023
  46.7167432 135.6483108  68.9912598  45.2118526 135.6150651  68.8297729
  42.2309597 130.2875870  65.2689776  41.3007185 130.2260325  65.4859738
  42.3267069 129.7651823  64.4726417  42.1495146 126.8130683  67.8568017
  42.4101963 127.7276016  67.7477178  42.9712318 126.3455125  68.0064630
  43.6220071 128.2268440  75.0266842  44.2943125 128.0185802  74.3779491
  42.7949858 128.0290526  74.5872074  57.8709332 134.9672490  74.5442175
  58.0645222 135.8718301  74.7901450  57.7709951 134.5079909  75.3780760
  49.5245643 124.8530381  77.0432503  48.8773558 125.5520330  76.9496979
  50.2946659 125.2866525  77.4108751  52.9324441 135.1179233  80.1183056
  52.7809947 134.8889785  79.2013140  52.9229121 136.0749834  80.1314401
  49.7009777 132.6911146  75.1029322  50.6301837 132.8422305  74.9298290
  49.2800808 132.7795166  74.2477969  50.0503324 136.0943413  70.2616698
  49.7153157 136.0544183  71.1574348  49.5507270 135.4288129  69.7887108
  44.0247568 131.5011043  75.7869279  43.8867366 130.7691282  76.3880818
  44.9352492 131.4119943  75.5053467  52.9862516 133.4399447  60.5353758
  52.3691687 132.7146275  60.4386810  52.5179005 134.2008807  60.1920832
  46.6529869 131.2131002  75.2752959  47.3629488 130.5724194  75.2339577
  46.6099177 131.4643897  76.1979139  54.6416648 138.1498355  78.1959538
  54.5829194 137.4657576  77.5290121  55.0436166 138.8917345  77.7440164
  45.3658803 128.1996220  77.0948598  44.8296160 127.7486958  77.7470194
  44.7775511 128.3342129  76.3519063  44.7761062 127.6584871  59.6575062
  43.8990528 127.5373672  59.2937308  45.2518815 126.8670950  59.4053950
  54.6434055 136.1137939  76.4273518  53.7560834 135.7763861  76.5499916
  55.2132606 135.3820971  76.6642283  41.0997924 127.3352228  74.1801593
  41.0156113 126.7277897  73.4452003  40.2780631 127.8261246  74.1811089
  51.2721638 125.8205791  69.5471788  51.7690338 125.0675754  69.2272858
  50.5008620 125.8570108  68.9814997  59.1251396 131.5246157  71.1890079
  59.1141272 132.4070872  70.8184012  58.2568775 131.1717708  70.9944616
  52.3551419 134.5777478  67.1210211  51.4207698 134.6978941  66.9514915
  52.5328087 133.6749945  66.8570221  47.8556607 127.9623174  69.2743472
  47.4854394 127.4094215  69.9624378  48.3515699 127.3581308  68.7218472
  55.7423970 130.4194798  67.6560245  56.2084422 131.2522789  67.5820548
  56.1931471 129.9539779  68.3605504  53.8100201 136.7638619  64.6546397
  54.0860045 136.6495214  65.5640271  52.9404700 136.3656104  64.6158570
  53.7140633 122.7875385  71.6951147  52.8003713 123.0179612  71.8633354
  54.1433734 122.8713829  72.5465179  53.4847091 130.9765277  74.1951041
  52.8318542 131.2241184  73.5403493  53.8627471 130.1629415  73.8613518
  49.5334664 131.7185088  80.6817078  48.8575301 131.6179217  81.3519453
  50.3562298 131.5624301  81.1453075  35.8731178 130.5262624  72.0234036
  35.9115278 129.9926215  72.8171154  35.3671471 129.9997830  71.4045013
  43.2521941 125.3727165  75.5196578  43.3163267 126.2341996  75.1073976
  43.1889061 124.7601167  74.7868937  42.7274213 127.4450298  79.1669613
  43.3546252 127.0627375  79.7807137  41.8702132 127.2264499  79.5325305
  53.1268322 137.8513273  80.7723348  53.6708226 138.4643231  80.2778303
  52.5455166 138.4092851  81.2890361  39.5039756 129.2526727  65.0987967
  39.7993197 128.3437405  65.0455021  38.6027792 129.2314466  64.7768970
  43.0334003 127.3282723  71.0815516  42.3120589 127.9418691  70.9422989
  43.8227259 127.8640488  71.0032162  53.4760743 138.7743011  73.5317926
  52.5291079 138.6548362  73.4596253  53.8243516 137.8865509  73.6144187
  45.8360316 124.6637150  77.3556168  46.3594718 124.9099446  78.1182477
  45.6172650 125.4957184  76.9359305  41.2327597 126.9340824  65.2227293
  40.9040304 126.0538203  65.0402399  41.5866968 126.8788493  66.1103682
  44.3469421 127.2213794  65.5902770  44.6865493 127.7499715  64.8681379
  44.7941541 127.5594200  66.3661337  54.0841298 139.3924286  70.8187151
  55.0087846 139.1867147  70.6811602  53.9156601 139.1440687  71.7276492
  47.0412861 125.6050845  75.0405838  46.7009682 124.8058658  75.4426518
  46.3351868 125.9052556  74.4682672  47.6929333 122.6900157  73.4933161
  48.5155403 122.2160635  73.3712052  47.9367397 123.4690641  73.9931848
  46.3337568 125.7188416  63.7896063  47.0545930 126.0969668  63.2859780
  45.7102872 126.4377292  63.8931041  50.4768691 126.4233565  64.7254395
  50.6932305 127.3058203  64.4243224  49.9962758 126.0319778  63.9960037
  45.2167912 129.3819278  71.3025140  45.0712493 129.6959581  72.1949422
  44.7393116 130.0004178  70.7496039  47.0764295 126.3721826  71.3506030
  47.0625864 125.4762919  71.0138327  47.7936723 126.3792490  71.9844316
  48.9290426 126.8059166  73.3959157  48.6708203 127.7276237  73.3943487
  48.3975466 126.4089601  74.0859621  39.6913574 131.9224622  74.2412801
  39.1467042 132.6984430  74.3733076  40.5692924 132.2695427  74.0831923
  46.4801191 125.2536206  66.6193600  46.6017102 124.3252852  66.8184487
  46.1903233 125.2674892  65.7071915  49.3492381 122.9391117  69.7560320
  49.3714078 123.0030450  68.8012299  49.7660440 122.0995625  69.9500826
  59.7276006 132.6746376  67.7939542  60.1707152 131.9253701  67.3958665
  58.8502516 132.6656512  67.4113274  54.8611787 139.2276718  63.2746141
  55.5562691 139.8483410  63.4933455  55.2034937 138.3772069  63.5498519
  40.4779596 131.0494519  77.1342958  39.7361332 131.1977154  77.7207588
  40.1572340 131.3102784  76.2709707  56.7603210 136.6776423  64.8033471
  57.2854534 137.0163696  64.0782791  56.6725562 135.7423438  64.6196606
  45.9642270 126.7668203  80.8283532  46.0130426 127.6430326  80.4461302
  46.5064785 126.2245597  80.2555176  56.4497116 137.3109327  80.1084669
  55.6592660 137.2933466  79.5689169  56.2130471 137.8497620  80.8633706
  56.5694991 134.1601793  77.4217398  56.6192996 133.9951801  78.3632921
  56.4608914 133.2929052  77.0315279  53.8598753 130.1432721  78.7376705
  54.7608616 130.0039186  78.4460702  53.9346728 130.3087176  79.6774882
  48.1941559 127.5199576  77.5829891  47.3244868 127.8133142  77.3112479
  48.4301039 128.1040021  78.3037155  58.0713188 136.5798735  77.6659419
  57.7797996 136.9428715  78.5022880  57.4585319 135.8665743  77.4872752
  59.2708870 134.1451614  70.1861990  60.1055762 134.5841418  70.3499550
  59.4067999 133.6690268  69.3670235  56.3200376 131.7031349  76.1339477
  56.7954498 131.8958996  75.3258329  55.3965942 131.7590535  75.8882861
  43.2083883 132.8655516  65.7170556  42.9629925 131.9617846  65.9150766
  43.3779797 132.8672667  64.7750034  50.8980593 123.7379193  75.0995311
  51.4162536 124.4740220  74.7741800  50.5435725 124.0443186  75.9342070
  42.4779530 128.5983874  63.2156717  41.7848775 128.6728229  62.5596753
  42.2331282 127.8344218  63.7378234  51.1493187 120.1579475  70.6196208
  51.4294941 119.4902664  71.2456634  51.9343794 120.3508571  70.1070872
  55.0202045 128.5797109  74.3667783  55.9719468 128.6795207  74.3880007
  54.8505496 127.7875378  74.8765867  53.0416425 125.6652693  74.5527184
  52.4466357 125.9457705  73.8573673  52.7566121 126.1546593  75.3243925
  54.8011932 138.9341490  60.2733764  54.7225563 138.6001353  61.1669522
  55.6221599 139.4263258  60.2725236  57.4990123 131.8003229  73.4810083
  57.4666443 130.8619230  73.6669767  58.1090747 131.8787266  72.7475908
  49.3373454 130.6699282  59.5237287  50.2832559 130.5405490  59.5925705
  48.9587699 129.9313944  60.0006715  57.6484611 128.5914272  73.5268366
  57.1323660 127.8072729  73.3398295  58.5324560 128.2632989  73.6914885
  55.3095338 122.3355288  69.4864179  55.1120159 122.0270376  70.3707511
  55.9195044 123.0616927  69.6162108  63.3166673 132.8619236  72.6216119
  64.0470061 132.6004524  73.1823823  62.7073618 132.1247958  72.6618187
  61.3981970 131.0027098  73.2190571  60.6715133 130.8683063  72.6107062
  60.9829257 131.3103927  74.0247289  49.2212146 134.7217028  80.9837944
  50.1415156 134.8995627  81.1777990  49.1861729 133.7773073  80.8317643
  47.5216371 128.5949258  59.4592172  46.6147826 128.2982371  59.5354886
  47.7992352 128.2979076  58.5926458  38.4394311 129.9155622  69.9091218
  38.1197096 129.0620930  69.6165592  37.8927739 130.1304200  70.6649186
  42.2174219 132.6318063  73.6260725  42.4360229 133.5635171  73.6448759
  42.6299993 132.2726037  74.4115529  49.1378437 123.1386148  65.6136413
  48.3279165 122.7933233  65.9891659  49.8262854 122.8293692  66.2024025
  51.0668985 122.2164195  67.2360710  51.6200024 122.6359648  67.8950733
  51.3039071 121.2899943  67.2783666  47.0902084 128.2051269  83.0163474
  46.9898811 129.1545626  82.9475565  46.8723626 127.8769507  82.1439544
  46.2915156 125.4536194  59.6004151  47.1534320 125.7791092  59.8599968
  46.4765500 124.6667690  59.0877217  38.3082571 133.5358533  71.8784340
  37.6146043 133.1212486  71.3654294  39.0555562 133.5779070  71.2817759
  54.4447792 124.3264720  66.7439374  53.8646461 124.9849524  66.3617427
  54.1783725 123.5042065  66.3326792  52.8951358 123.7269778  68.9460694
  53.3951137 123.8386312  68.1375013  53.5386966 123.4230831  69.5861503
  46.9533354 131.6348407  81.8328535  46.4700436 132.4348768  82.0392424
  47.0394293 131.6456352  80.8795979  40.2219314 133.4676787  69.7550355
  40.1990002 133.5664474  68.8032238  40.5319950 134.3141938  70.0767521
  43.4706074 134.0954058  76.4367767  44.2898963 134.5898137  76.4602604
  43.7442882 133.1786026  76.4085334  53.2272670 126.4864810  65.7995722
  52.3398525 126.7714461  65.5815917  53.6426659 126.3258574  64.9522999
  56.5787206 126.5111331  69.5150062  57.3547596 127.0007784  69.7874678
  55.8535340 126.9369386  69.9721931  59.0159765 127.2238951  70.5724002
  59.6104256 126.9834687  69.8617311  59.0886349 126.5046081  71.1997539
  52.3715884 136.2509485  59.8943742  53.0751734 136.4559488  60.5101398
  51.6478532 136.8186247  60.1592826  53.2013694 132.0019346  66.0146013
  53.1448895 132.4587898  65.1753645  53.7542036 131.2410031  65.8368855
  57.0118500 127.7909078  66.8396132  56.7555434 127.3905714  67.6704340
  56.3871368 128.5052872  66.7146271  61.3230838 130.5305152  69.3467423
  60.7630396 130.5998341  70.1198986  60.7174341 130.3546136  68.6266920
  54.2802581 136.6892014  61.9442202  55.1148185 136.2573213  61.7619677
  54.1186924 136.5174028  62.8719097  53.9348473 133.1924128  63.3098542
  53.8797277 133.0268399  62.3686986  53.3094528 133.9000161  63.4660731
  38.7240988 128.4292192  77.1359964  39.3699852 127.9191146  77.6247189
  38.5158139 129.1660874  77.7103389  51.2494380 135.4973039  82.6352105
  52.1185540 135.6713692  82.2738739  50.7701132 136.3167456  82.5127834
  47.2444599 122.6932237  62.8883860  47.2323268 123.6374077  63.0452131
  48.1368020 122.5102382  62.5943321  51.0596718 119.2875013  67.1429797
  50.2929114 118.7333500  67.2886479  51.4707423 119.3596882  68.0043949
  43.0638479 125.5759809  81.2334978  43.9269941 125.2196614  81.4438303
  42.4903890 125.2373704  81.9210382  65.3861972 138.5809927  74.4778174
  65.0545297 139.4505338  74.2539389  64.7907585 138.2646211  75.1572205
  67.1452282 141.5021451  73.3349398  66.5026662 141.7953984  72.6889193
  66.6407210 141.3874372  74.1402595  62.1428420 141.4242660  72.2725118
  61.2812899 141.7223914  72.5641856  62.1690855 141.6413059  71.3406151
  55.6219980 138.9840526  82.2264950  55.2286925 138.4306724  82.9012594
  56.4386120 139.2951104  82.6171467  58.5387941 140.3998405  79.8185206
  59.2797654 141.0005558  79.7389669  58.7705864 139.6576043  79.2603249
  62.4845104 136.4279508  74.0949488  62.1409373 137.3181149  74.0188599
  62.8524066 136.2381165  73.2319073  60.0342498 141.2637820  67.6607161
  59.1784094 140.8744670  67.4812800  60.4469449 141.3429780  66.8006947
  61.5641644 138.7984163  72.0598721  61.0606440 138.7614298  71.2466527
  61.8572251 139.7076906  72.1195378  57.8084530 138.8822893  71.0664903
  58.6737527 138.6865701  70.7070792  57.8762039 138.6533244  71.9934260
  57.7169517 137.9866349  67.1656339  57.0633929 137.6715367  66.5412954
  57.6749991 137.3642090  67.8916162  64.1821142 142.9096815  68.6025456
  63.4443899 142.3974201  68.9335699  64.4347916 142.4697197  67.7908733
  64.2832769 135.6873067  69.1967226  64.5891646 134.8270430  68.9093141
  65.0085374 136.2790687  68.9966220  60.3639398 140.1822298  77.0432503
  59.7167313 140.8812248  76.9496979  61.1340413 140.6158442  77.4108751
  62.1115393 141.1497709  69.5471788  62.6084092 140.3967671  69.2272858
  61.3402374 141.1862026  68.9814997  64.5534387 138.1167302  71.6951147
  63.6397467 138.3471529  71.8633354  64.9827489 138.2005746  72.5465179
  58.5323088 138.0192075  73.4933161  59.3549157 137.5452553  73.3712052
  58.7761151 138.7982559  73.9931848  60.1886136 138.2683034  69.7560320
  60.2107832 138.3322367  68.8012299  60.6054195 137.4287543  69.9500826
  61.7374347 139.0671110  75.0995311  62.2556291 139.8032137  74.7741800
  61.3829480 139.3735104  75.9342070  61.9886941 135.4871393  70.6196208
  62.2688695 134.8194582  71.2456634  62.7737548 135.6800489  70.1070872
  63.8810179 140.9944610  74.5527184  63.2860111 141.2749623  73.8573673
  63.5959876 141.4838511  75.3243925  68.4878366 143.9206190  73.5268366
  67.9717415 143.1364647  73.3398295  69.3718314 143.5924907  73.6914885
  66.1489093 137.6647206  69.4864179  65.9513914 137.3562294  70.3707511
  66.7588798 138.3908845  69.6162108  59.9772191 138.4678066  65.6136413
  59.1672919 138.1225151  65.9891659  60.6656608 138.1585610  66.2024025
  61.9062739 137.5456113  67.2360710  62.4593778 137.9651566  67.8950733
  62.1432826 136.6191861  67.2783666  65.2841547 139.6556638  66.7439374
  64.7040216 140.3141442  66.3617427  65.0177479 138.8333982  66.3326792
  63.7345113 139.0561695  68.9460694  64.2344891 139.1678230  68.1375013
  64.3780721 138.7522748  69.5861503  64.0666425 141.8156728  65.7995722
  63.1792280 142.1006379  65.5815917  64.4820414 141.6550492  64.9522999
  67.4180961 141.8403249  69.5150062  68.1941351 142.3299702  69.7874678
  66.6929095 142.2661303  69.9721931  69.8553519 142.5530868  70.5724002
  70.4498010 142.3126604  69.8617311  69.9280103 141.8337999  71.1997539
  67.8512254 143.1200996  66.8396132  67.5949188 142.7197632  67.6704340
  67.2265122 143.8344790  66.7146271  58.0838353 138.0224154  62.8883860
  58.0717023 138.9665994  63.0452131  58.9761775 137.8394300  62.5943321
  61.8990473 134.6166931  67.1429797  61.1322868 134.0625418  67.2886479
  62.3101177 134.6888800  68.0043949   2.8274026  29.8998969  56.7428872
   3.5599198  29.3298186  56.9766702   2.0713382  29.5120569  57.1835378
   2.1089756  26.5332068  60.0594705   1.4664136  26.8264601  59.4134500
   1.6044685  26.4184988  60.8647902   2.2488734  36.1975497  55.4938509
   1.5639772  36.5774399  54.9435543   2.3332583  36.8070824  56.2270457
   0.6185493  36.7207412  60.2656210   1.4402937  36.3187599  59.9838892
   0.6147896  36.6175646  61.2172326   8.7091486  33.0646160  56.6141182
   7.9555195  32.4953558  56.4585186   8.8439028  33.0308825  57.5611816
   2.3867135  34.2031090  51.2620403   1.6096578  33.8642250  50.8175565
   3.0658616  34.2083713  50.5875368   2.7855632  33.2174797  53.7243325
   2.6473531  33.4076393  52.7964514   2.4291851  33.9794179  54.1811376
   2.8125012  35.2851324  58.7354597   3.2461518  35.1926613  59.5837651
   3.5256592  35.2608824  58.0974613   3.6740561  35.3275024  61.2687482
   3.8676451  36.2320835  61.5146757   3.5741179  34.8682443  62.1026067
   4.9282624  31.8848691  57.9135386   4.9172501  32.7673406  57.5429319
   4.0600004  31.5320242  57.7189923   1.5455199  30.7797332  54.3805552
   2.0115651  31.6125323  54.3065855   1.9962699  30.3142313  55.0850810
   5.5307234  33.0348910  54.5184849   5.9738380  32.2856236  54.1203972
   4.6533745  33.0259047  54.1358581   0.6643016  39.5879252  49.9991447
   1.3593920  40.2085944  50.2178762   1.0066166  38.7374603  50.2743825
   2.5634439  37.0378957  51.5278778   3.0885763  37.3766230  50.8028098
   2.4756791  36.1025973  51.3441913   2.2528345  37.6711861  66.8329976
   1.4623889  37.6536000  66.2934475   2.0161699  38.2100155  67.5879013
   2.3726220  34.5204327  64.1462705   2.4224225  34.3554335  65.0878227
   2.2640143  33.6531586  63.7560585   3.8744417  36.9401269  64.3904726
   3.5829225  37.3031249  65.2268187   3.2616548  36.2268277  64.2118058
   5.0740099  34.5054149  56.9107296   5.9086990  34.9443953  57.0744857
   5.2099228  34.0292802  56.0915542   2.1231605  32.0633883  62.8584784
   2.5985727  32.2561530  62.0503635   1.1997170  32.1193069  62.6128168
   0.8233274  28.9399644  61.0913090   1.7750697  29.0397741  61.1125314
   0.6536724  28.1477912  61.6011174   0.6043161  39.2944024  46.9979071
   0.5256792  38.9603888  47.8914829   1.4252827  39.7865792  46.9970543
   3.3021352  32.1605763  60.2055389   3.2697672  31.2221764  60.3915073
   3.9121975  32.2389800  59.4721214   3.4515840  28.9516807  60.2513673
   2.9354889  28.1675263  60.0643601   4.3355789  28.6235523  60.4160192
   1.1126567  22.6957822  56.2109485   0.9151388  22.3872910  57.0952817
   1.7226273  23.4219461  56.3407415   9.1197902  33.2221770  59.3461426
   9.8501290  32.9607058  59.9069129   8.5104847  32.4850492  59.3863494
   7.2013199  31.3629633  59.9435877   6.4746362  31.2285598  59.3352369
   6.7860486  31.6706461  60.7492595   2.3818435  26.8713866  56.2395368
   3.1578825  27.3610318  56.5119985   1.6566569  27.2971920  56.6967238
   4.8190994  27.5841485  57.2969309   5.4135484  27.3437221  56.5862617
   4.8917577  26.8648615  57.9242845   2.8149729  28.1511612  53.5641439
   2.5586663  27.7508248  54.3949646   2.1902597  28.8655406  53.4391578
   7.1262066  30.8907686  56.0712730   6.5661624  30.9600875  56.8444292
   6.5205570  30.7148670  55.3512226   8.7118085  47.5664200  58.7642686
   9.3496495  47.4470947  58.0606026   8.5938928  48.5145044  58.8230638
   5.5207791  47.5191628  58.7004211   5.1826303  47.4032692  57.8124745
   6.3897559  47.1182793  58.6805217   1.3794607  49.3727104  54.6901101
   0.8159472  49.2817041  53.9217389   1.2647002  48.5527009  55.1703594
   6.0027574  48.6726479  64.6590416   5.9916215  48.2779278  63.7870920
   6.1648214  47.9392552  65.2524188   6.9594166  53.0398072  50.0015566
   6.3082145  53.6252152  49.6149580   7.7538528  53.5704267  50.0610604
   0.8849793  50.1287209  50.4002701   1.6580669  49.5816196  50.2615577
   1.2375192  50.9931458  50.6117162   2.7234835  51.4563591  63.6069600
   2.4324701  52.3609222  63.4916266   3.3591820  51.4980119  64.3213670
   3.6491042  48.8340440  60.1970960   4.2454614  48.6096462  59.4827923
   3.7066014  48.0925185  60.7996408   3.2216070  46.2879875  48.0321151
   3.4741591  45.7661396  47.2704614   2.2840630  46.1246021  48.1347834
   8.2659353  45.2915653  55.8395894   9.0522443  44.8735077  55.4886311
   8.5298058  46.1961746  56.0077542   8.4369431  50.7288504  50.5384551
   7.8015264  50.8023130  51.2505455   8.1066837  51.3182103  49.8603630
  13.6667780  45.2290887  56.7428872  14.3992952  44.6590104  56.9766702
  12.9107136  44.8412487  57.1835378   2.9412359  48.1907981  50.2345526
   2.8248617  47.5152884  50.9026610   3.0514619  47.7040355  49.4177679
   5.2843900  47.6518128  53.9392215   4.9202107  47.1248749  54.6505136
   6.1411016  47.2616597  53.7658700  11.1893201  38.9412461  61.2023481
  10.8576526  39.8107872  60.9784696  10.5938814  38.6248745  61.8817511
   4.9249387  42.6808028  48.9353563   5.0923789  43.5488264  49.3024034
   4.7346556  42.8435310  48.0114853   7.6824720  51.1425007  60.6019394
   7.3825443  52.0450046  60.4935201   7.3375780  50.8757190  61.4540547
  11.0821864  43.6607547  58.2816831  10.1738741  43.5922955  57.9875592
  11.0309460  44.1379492  59.1098657   4.9038608  45.1365685  49.9200230
   4.7838233  45.5822736  50.7585710   4.2091196  45.4851003  49.3613768
   2.6645500  57.9069327  53.5690361   2.5869530  58.8577152  53.6478842
   2.0607144  57.5615200  54.2265288   5.1562730  45.0797193  66.2251728
   4.3796064  45.6391113  66.2154593   5.7953293  45.5653976  66.7466598
  12.9483511  41.8623985  60.0594705  12.3057891  42.1556519  59.4134500
  12.4438439  41.7476906  60.8647902  10.6023674  45.6087159  50.7480564
  11.5141530  45.8414545  50.5728262  10.0933321  46.1924203  50.1855643
   3.4109102  47.8882646  65.7869695   4.1523787  48.4267690  65.5104519
   2.7046088  48.5148935  65.9441247   8.8864442  50.0311786  64.3841857
   9.2947798  49.5894197  63.6396489   8.1641703  49.4564414  64.6376050
   5.2395512  44.9684393  61.7575414   6.0856707  45.3923807  61.9010063
   5.1794150  44.3118017  62.4513977   9.2093256  50.5912977  58.1394146
   8.5802119  50.7558691  57.4370214   8.8218919  51.0054587  58.9105110
  13.0882488  51.5267415  55.4938509  12.4033527  51.9066316  54.9435543
  13.1726338  52.1362742  56.2270457   8.3894957  42.6288762  63.4156587
   8.1455889  43.3830822  62.8790863   8.6654888  43.0074109  64.2503834
  10.3433420  49.1727374  62.0933853  10.5550315  49.8159134  61.4168234
  10.2963168  48.3389690  61.6255783   7.9459649  41.7845195  58.9970425
   7.0844128  42.0826448  59.2887163   7.9722084  42.0015593  58.0651458
   4.7621218  50.3287385  55.4044231   5.2259564  50.6075088  54.6148853
   4.4978016  49.4270830  55.2217321   1.6545299  49.8758867  58.3423994
   2.2246656  50.3046135  57.7041479   2.2453411  49.5941451  59.0408180
   3.6990104  46.4510537  52.2133796   4.4014148  46.9031581  52.6807722
   3.3670733  45.8094356  52.8413689   2.1470466  45.0422294  66.5885005
   1.5169127  45.7238575  66.8220402   2.0406554  44.9305376  65.6438144
  11.4579248  52.0499329  60.2656210  12.2796692  51.6479517  59.9838892
  11.4541651  51.9467563  61.2172326   5.2235851  51.5983373  62.4216921
   5.2880284  52.0603780  63.2575093   4.5146775  50.9680738  62.5499231
  19.5485241  48.3938078  56.6141182  18.7948949  47.8245476  56.4585186
  19.6832782  48.3600742  57.5611816   4.9383869  53.2651480  52.2895901
   4.8029544  54.1103016  52.7180749   5.4793682  53.4670758  51.5261835
   1.4251209  39.3443060  68.9510256   1.0318154  38.7909259  69.6257901
   2.2417349  39.6553638  69.3416774   4.3419170  40.7600939  66.5430513
   5.0828883  41.3608092  66.4634975   4.5737092  40.0178577  65.9848556
   6.5652345  53.8875047  66.4196243   6.1216200  53.1011425  66.1017148
   7.2269559  54.0754197  65.7540134   1.3239467  55.4170848  60.9456922
   1.8746892  55.2887912  60.1733916   0.4850942  55.7165737  60.5951815
   8.6633583  54.1677847  64.4477645   8.6452059  54.9886728  63.9557914
   9.5853504  54.0431922  64.6727786   5.1206638  51.6821976  65.2901153
   5.6534974  50.9210264  65.0600461   4.5920719  51.3895628  66.0325307
   8.2876333  36.7882042  60.8194795   7.9440602  37.6783684  60.7433905
   8.6555295  36.5983700  59.9564380   8.2526615  46.7790653  49.3267230
   7.7373239  47.5495258  49.5655617   7.9803924  46.1055789  49.9500291
   5.8373726  41.6240354  54.3852468   4.9815323  41.2347204  54.2058107
   6.2500678  41.7032315  53.5252254   7.3672873  39.1586697  58.7844028
   6.8637669  39.1216832  57.9711833   7.6603480  40.0679440  58.8440685
   3.6115759  39.2425427  57.7910210   4.4768756  39.0468236  57.4316099
   3.6793268  39.0135779  58.7179566  13.2260889  49.5323008  51.2620403
  12.4490332  49.1934167  50.8175565  13.9052370  49.5375631  50.5875368
   8.0412918  44.6517745  51.1527011   7.7363054  44.9663894  52.0037154
   8.9943361  44.7299165  51.1954344   6.4859350  50.8107969  52.8019965
   5.9580712  50.0760728  52.4893202   5.9846853  51.5882645  52.5559933
  11.4652196  49.0056989  57.9187011  10.8075871  49.6956250  58.0067140
  12.2692596  49.3953421  58.2620998   1.2178078  41.4727635  55.1626576
   1.7921830  41.2502816  54.4299769   1.8049060  41.5416329  55.9155178
  10.2757655  47.3601362  55.9690953  10.7889537  47.9931354  56.4712663
  10.9258879  46.7602557  55.6034313   1.5447665  43.5032096  49.1822462
   0.7084977  43.8406782  49.5031736   1.4052435  43.3681076  48.2449599
   3.5200746  38.3468884  53.8901646   2.8665158  38.0317901  53.2658261
   3.4781220  37.7244624  54.6161469   4.6311951  48.6288179  45.8054938
   3.7239012  48.3977432  46.0046087   5.1282983  47.8325798  45.9928919
   7.5380029  57.3385686  48.7251624   6.8641728  57.6417383  49.3336582
   7.9245851  58.1414766  48.3757081   6.7538486  44.8350817  58.2149293
   5.8361047  45.0565764  58.0570982   7.1698630  44.9097128  57.3561001
   7.5373534  46.2342233  53.3451974   8.2845353  46.7463630  53.0359096
   7.8065123  45.9126286  54.2056367   5.8100184  48.7300774  50.3278928
   4.9011403  48.4459806  50.4251398   5.8395268  49.1499852  49.4682235
  11.0419451  52.3407363  54.0970096  10.5881778  51.4998273  54.1535286
  10.4113418  52.9768762  54.4344876   9.9852371  43.2699349  55.3270763
   9.2475128  42.7576735  55.6581006  10.2379144  42.8299731  54.5154040
   9.4852391  54.1783860  55.0319914   9.7775365  54.7388917  54.3132279
   9.9951011  54.4712421  55.7873073  10.0863998  36.0475601  55.9212532
  10.3922875  35.1872965  55.6338447  10.8116603  36.6393221  55.7211526
   4.3585078  46.3429394  56.4288723   4.4133688  45.3903231  56.3531200
   3.5476280  46.4988833  56.9130022   5.5076272  50.2709517  47.6667007
   5.0695702  49.5545376  47.2072644   6.2486713  50.4985632  47.1052098
   2.2977438  44.9606454  54.1879102   1.4845303  45.2600625  54.5944294
   2.7936432  44.5662143  54.9053584   4.4486016  54.9564211  56.1213367
   4.4062195  55.1825057  55.1921899   5.3648715  54.7227586  56.2699168
   7.8951650  45.4248278  63.0193996   8.2501037  45.6519752  63.8788462
   8.5423781  45.7566655  62.3971251  13.6249387  48.5466714  53.7243325
  13.4867285  48.7368310  52.7964514  13.2685605  49.3086097  54.1811376
   1.7891513  42.5324810  59.8040337   2.4290892  42.3913569  59.1063301
   0.9569043  42.2459323  59.4278939  13.6518766  50.6143241  58.7354597
  14.0855273  50.5218530  59.5837651  14.3650347  50.5900742  58.0974613
   2.5651817  51.8327240  55.9175330   3.3592415  51.3377560  55.7157905
   1.8543509  51.3045103  55.5543035   7.3846661  54.2145335  60.2687697
   7.4383683  54.7836272  61.0365413   6.5161442  54.3847221  59.9041734
  14.5134316  50.6566942  61.2687482  14.7070206  51.5612753  61.5146757
  14.4134934  50.1974361  62.1026067   6.1670626  40.5424833  63.7677809
   5.5198541  41.2414782  63.6742286   6.9371642  40.9760977  64.1354058
   9.5749424  50.8073685  66.8428363   9.4234931  50.5784236  65.9258446
   9.5654104  51.7644286  66.8559708   6.3434761  48.3805597  61.8274629
   7.2726821  48.5316757  61.6543596   5.9225791  48.4689618  60.9723276
   5.1423093  52.4056262  59.5973167   5.0034178  52.0375046  60.4699105
   4.3537689  52.9203901  59.4257125   5.7371245  57.5065358  50.9398703
   5.9123000  57.0353402  51.7544326   5.0504033  58.1331125  51.1679964
   6.6928308  51.7837865  56.9862005   6.3578140  51.7438635  57.8819654
   6.1932253  51.1182581  56.5132415   0.6672552  47.1905495  62.5114586
   0.5292350  46.4585733  63.1126125   1.5777475  47.1014395  62.2298773
   9.6287499  49.1293899  47.2599064   9.0116670  48.4040727  47.1632117
   9.1603988  49.8903259  46.9166138   3.2954852  46.9025454  61.9998265
   4.0054471  46.2618646  61.9584884   3.2524161  47.1538349  62.9224446
  11.2841631  53.8392807  64.9204845  11.2254177  53.1552027  64.2535428
  11.6861149  54.5811797  64.4685471   2.0083786  43.8890672  63.8193905
   1.4721143  43.4381410  64.4715501   1.4200495  44.0236581  63.0764369
   1.4186045  43.3479323  46.3820368   0.5415512  43.2268124  46.0182615
   1.8943798  42.5565402  46.1299257  11.2859038  51.8032391  63.1518824
  10.3985817  51.4658313  63.2745223  11.8557589  51.0715422  63.3887590
   4.8160192  56.4633844  60.1180067   4.7430363  57.2688815  60.6299372
   4.3737585  56.6625809  59.2928089   4.6049971  55.7005614  53.6282889
   3.8217493  56.2427294  53.7221113   5.3042716  56.2179593  54.0277130
   7.9146621  41.5100243  56.2717094   8.4115321  40.7570205  55.9518165
   7.1433603  41.5464560  55.7060304  15.7676379  47.2140609  57.9135386
  15.7566255  48.0965324  57.5429319  14.8993758  46.8612159  57.7189923
   7.2758875  56.3620678  62.2738226   7.9886847  56.9968142  62.2014128
   6.7848904  56.4584544  61.4578228   8.9976402  50.2671930  53.8455518
   8.0632681  50.3873393  53.6760222   9.1753071  49.3644397  53.5815528
   4.4981590  43.6517626  55.9988779   4.1279378  43.0988666  56.6869685
   4.9940683  43.0475760  55.4463779  12.3848953  46.1089250  54.3805552
  12.8509406  46.9417241  54.3065855  12.8356454  45.6434231  55.0850810
   2.3270789  54.1115121  63.0943797   3.0280248  54.7451604  63.2473191
   1.8565904  54.4529853  62.3339436  10.4525185  52.4533071  51.3791704
  10.7285028  52.3389665  52.2885578   9.5829683  52.0550556  51.3403877
  10.3565616  38.4769837  58.4196453   9.4428696  38.7074063  58.5878660
  10.7858718  38.5608281  59.2710486  10.1272075  46.6659729  60.9196347
   9.4743525  46.9135636  60.2648800  10.5052455  45.8523867  60.5858825
   7.0879249  56.7019422  55.0224518   7.2701643  55.8841078  55.4852270
   7.9112235  56.9187114  54.5849408   7.4221414  55.6287607  52.2839566
   7.9509181  55.1180061  51.6709728   7.6849634  55.3130137  53.1485099
   6.1759648  47.4079540  67.4062384   5.5000285  47.3073669  68.0764760
   6.9987282  47.2518753  67.8698382   4.9182431  58.7146467  61.6420000
   5.4700739  58.8778089  62.4069086   5.2588624  59.3050905  60.9700025
   9.7693305  53.5407725  67.4968655  10.3133209  54.1537683  67.0023610
   9.1880150  54.0987303  68.0135668   8.0550818  56.6628443  58.6283683
   7.9301957  55.8618182  58.1194628   8.7129909  57.1574636  58.1397652
  10.1185726  54.4637463  60.2563233   9.1716062  54.3442814  60.1841559
  10.4668499  53.5759961  60.3389494   2.4785300  40.3531602  64.0801474
   3.0019701  40.5993898  64.8427784   2.2597633  41.1851636  63.6604612
   7.1232160  54.2590179  56.4567585   6.9757122  53.3306886  56.6375155
   7.9485653  54.2810270  55.9724660   0.9894404  42.9108246  52.3148077
   1.3290476  43.4394167  51.5926685   1.4366524  43.2488652  53.0906643
  10.7266281  55.0818738  57.5432458  11.6512829  54.8761599  57.4056909
  10.5581585  54.8335139  58.4521799   3.6837845  41.2945297  61.7651145
   3.3434665  40.4953110  62.1671825   2.9776851  41.5947008  61.1927978
   4.3354317  38.3794609  60.2178468   5.1580386  37.9055087  60.0957358
   4.5792380  39.1585093  60.7177154   2.9762551  41.4082868  50.5141370
   3.6970914  41.7864120  50.0105087   2.3527855  42.1271744  50.6176348
   7.1193674  42.1128017  51.4499702   7.3357288  42.9952654  51.1488530
   6.6387741  41.7214230  50.7205344   1.8592895  45.0713730  58.0270447
   1.7137476  45.3854033  58.9194728   1.3818099  45.6898630  57.4741345
   3.7189278  42.0616278  58.0751336   3.7050847  41.1657371  57.7383634
   4.4361706  42.0686941  58.7089622   5.5715409  42.4953618  60.1204464
   5.3133187  43.4170689  60.1188794   5.0400449  42.0984052  60.8104928
  10.5161598  55.6004405  52.8994549  10.6898475  55.0350828  52.1468401
  11.0090489  56.4005300  52.7174039   3.1226174  40.9430658  53.3438906
   3.2442085  40.0147304  53.5429794   2.8328216  40.9569344  52.4317222
   5.9917364  38.6285568  56.4805626   6.0139061  38.6924902  55.5257606
   6.4085423  37.7890077  56.6746132  16.3700989  48.3640828  54.5184849
  16.8132135  47.6148153  54.1203972  15.4927499  48.3550964  54.1358581
  11.5036770  54.9171169  49.9991447  12.1987675  55.5377862  50.2178762
  11.8459920  54.0666521  50.2743825  13.4028193  52.3670875  51.5278778
  13.9279517  52.7058148  50.8028098  13.3150546  51.4317890  51.3441913
   5.0648242  56.2804949  63.6568655   5.3735368  56.0354095  64.5291354
   5.8623724  56.4851587  63.1687525   5.0868854  58.4342858  55.8874031
   4.6473844  57.9419237  56.5806888   5.8376971  57.8915826  55.6466106
   2.5342726  53.9780867  57.9596333   1.9122735  53.3151572  57.6598561
   3.2047593  54.0041999  57.2769981   2.6067254  42.4562655  67.5528839
   2.6555409  43.3324778  67.1706609   3.1489768  41.9140048  66.9800482
  13.0922099  53.0003779  66.8329976  12.3017643  52.9827917  66.2934475
  12.8555454  53.5392072  67.5879013  13.2119974  49.8496245  64.1462705
  13.2617979  49.6846252  65.0878227  13.1033898  48.9823504  63.7560585
   2.0956233  52.5284791  51.4354793   2.2444353  53.2120255  50.7821466
   2.9022677  52.5089881  51.9504249  10.5023737  45.8327173  65.4622011
  11.4033600  45.6933638  65.1706009  10.5771711  45.9981628  66.4020189
   4.8366542  43.2094028  64.3075198   3.9669851  43.5027594  64.0357786
   5.0726022  43.7934473  65.0282461  14.7138171  52.2693187  64.3904726
  14.4222979  52.6323167  65.2268187  14.1010302  51.5560195  64.2118058
  15.9133853  49.8346066  56.9107296  16.7480745  50.2735870  57.0744857
  16.0492982  49.3584720  56.0915542  12.9625359  47.3925801  62.8584784
  13.4379481  47.5853447  62.0503635  12.0390925  47.4484987  62.6128168
   7.5405576  39.4273645  61.8240618   8.0587520  40.1634672  61.4987107
   7.1860709  39.7337638  62.6587377   7.7918170  35.8473927  57.3441515
   8.0719924  35.1797116  57.9701941   8.5768777  36.0403023  56.8316178
   5.5951639  55.0232921  48.9066541   5.0225606  55.6423108  48.4537013
   6.1684432  55.5732283  49.4406463  11.6627028  44.2691561  61.0913090
  12.6144451  44.3689659  61.1125314  11.4930479  43.4769830  61.6011174
   9.6841408  41.3547144  61.2772491   9.0891340  41.6352157  60.5818979
   9.3991105  41.8441045  62.0489232   8.8148898  55.3070071  50.0375123
   9.7479572  55.2415633  50.2407999   8.7272111  56.1426338  49.5789656
  11.4436915  54.6235942  46.9979071  11.3650547  54.2895805  47.8914829
  12.2646582  55.1157710  46.9970543  14.1415106  47.4897681  60.2055389
  14.1091426  46.5513682  60.3915073  14.7515730  47.5681718  59.4721214
   5.9798437  46.3593734  46.2482593   6.9257542  46.2299942  46.3171011
   5.6012682  45.6208396  46.7252022  14.2909595  44.2808724  60.2513673
  13.7748643  43.4967181  60.0643601  15.1749543  43.9527441  60.4160192
  11.9520322  38.0249740  56.2109485  11.7545143  37.7164828  57.0952817
  12.5620027  38.7511379  56.3407415  19.9591656  48.5513688  59.3461426
  20.6895045  48.2898976  59.9069129  19.3498602  47.8142410  59.3863494
  18.0406953  46.6921550  59.9435877  17.3140117  46.5577515  59.3352369
  17.6254240  46.9998379  60.7492595   5.8637130  50.4111480  67.7083250
   6.7840139  50.5890079  67.9023297   5.8286713  49.4667525  67.5562950
   4.1641354  44.2843710  46.1837479   3.2572810  43.9876823  46.2600192
   4.4417335  43.9873528  45.3171765   5.7803420  38.8280600  52.3381720
   4.9704148  38.4827685  52.7136966   6.4687837  38.5188144  52.9269331
   7.7093968  37.9058647  53.9606017   8.2625007  38.3254100  54.6196040
   7.9464055  36.9794395  54.0028973   3.7327067  43.8945720  69.7408780
   3.6323794  44.8440077  69.6720872   3.5148610  43.5663959  68.8684851
   2.9340139  41.1430646  46.3249458   3.7959303  41.4685544  46.5845275
   3.1190483  40.3562141  45.8122524  11.0872775  40.0159172  53.4684681
  10.5071444  40.6743976  53.0862733  10.8208708  39.1936517  53.0572098
   9.5376342  39.4164230  55.6706001  10.0376120  39.5280764  54.8620320
  10.1811950  39.1125283  56.3106810   3.5958338  47.3242859  68.5573842
   3.1125419  48.1243219  68.7637731   3.6819277  47.3350804  67.6041286
   9.8697653  42.1759262  52.5241029   8.9823508  42.4608913  52.3061224
  10.2851642  42.0153026  51.6768306  13.2212189  42.2005783  56.2395368
  13.9972580  42.6902236  56.5119985  12.4960324  42.6263838  56.6967238
  15.6584748  42.9133403  57.2969309  16.2529239  42.6729139  56.5862617
  15.7311332  42.1940533  57.9242845   9.0140867  51.9403937  46.6189049
   9.7176717  52.1453940  47.2346705   8.2903516  52.5080699  46.8838133
   9.8438677  47.6913798  52.7391319   9.7873878  48.1482350  51.8998952
  10.3967020  46.9304483  52.5614162  13.6543483  43.4803530  53.5641439
  13.3980417  43.0800166  54.3949646  13.0296351  44.1947324  53.4391578
  17.9655821  46.2199603  56.0712730  17.4055379  46.2892793  56.8444292
  17.3599324  46.0440588  55.3512226  10.9227564  52.3786466  48.6687509
  11.7573168  51.9467665  48.4864984  10.7611907  52.2068480  49.5964404
  10.5773456  48.8818580  50.0343848  10.5222260  48.7162851  49.0932293
   9.9519512  49.5894612  50.1906038   7.8919364  51.1867491  69.3597411
   8.7610523  51.3608144  68.9984046   7.4126115  52.0061908  69.2373141
   3.8869582  38.3826689  49.6129167   3.8748252  39.3268528  49.7697438
   4.7793004  38.1996834  49.3188628   2.0605544  58.3064592  61.0386845
   2.9632791  58.3388203  61.3553340   1.8342914  57.3765043  61.0533181
   3.8159146  57.0595579  57.6996923   2.8654777  57.0597441  57.5861296
   4.1191632  56.3128314  57.1832958   7.7021701  34.9769465  53.8675104
   6.9354097  34.4227952  54.0131786   8.1132406  35.0491334  54.7289255
  19.5511839  62.8956117  58.7642686  20.1890249  62.7762865  58.0606026
  19.4332682  63.8436961  58.8230638  16.3601546  62.8483545  58.7004211
  16.0220057  62.7324610  57.8124745  17.2291314  62.4474711  58.6805217
  12.2188361  64.7019022  54.6901101  11.6553226  64.6108959  53.9217389
  12.1040756  63.8818926  55.1703594  16.8421329  64.0018397  64.6590416
  16.8309969  63.6071195  63.7870920  17.0041968  63.2684470  65.2524188
   9.7652793  66.1970213  57.5285322  10.5574085  65.8561038  57.1131621
  10.0049443  66.3065188  58.4487475  17.7987920  68.3689990  50.0015566
  17.1475900  68.9544070  49.6149580  18.5932283  68.8996184  50.0610604
  11.7243547  65.4579127  50.4002701  12.4974423  64.9108114  50.2615577
  12.0768946  66.3223376  50.6117162  13.5628590  66.7855509  63.6069600
  13.2718456  67.6901140  63.4916266  14.1985574  66.8272037  64.3213670
  14.4884797  64.1632357  60.1970960  15.0848369  63.9388380  59.4827923
  14.5459768  63.4217103  60.7996408  14.0609825  61.6171793  48.0321151
  14.3135346  61.0953314  47.2704614  13.1234384  61.4537938  48.1347834
  19.1053108  60.6207571  55.8395894  19.8916197  60.2026994  55.4886311
  19.3691812  61.5253663  56.0077542  19.2763185  66.0580421  50.5384551
  18.6409018  66.1315048  51.2505455  18.9460592  66.6474020  49.8603630
  24.5061535  60.5582804  56.7428872  25.2386707  59.9882021  56.9766702
  23.7500891  60.1704405  57.1835378  13.7806114  63.5199899  50.2345526
  13.6642372  62.8444802  50.9026610  13.8908374  63.0332273  49.4177679
  16.1237655  62.9810046  53.9392215  15.7595862  62.4540667  54.6505136
  16.9804771  62.5908515  53.7658700  22.0286955  54.2704378  61.2023481
  21.6970280  55.1399789  60.9784696  21.4332569  53.9540662  61.8817511
  15.7643142  58.0099946  48.9353563  15.9317544  58.8780182  49.3024034
  15.5740311  58.1727227  48.0114853  18.5218475  66.4716924  60.6019394
  18.2219198  67.3741963  60.4935201  18.1769534  66.2049108  61.4540547
  11.9730956  62.9230721  56.6356098  11.0481453  62.7906935  56.8433790
  12.2215369  63.7024941  57.1326041  21.9215619  58.9899465  58.2816831
  21.0132496  58.9214873  57.9875592  21.8703214  59.4671410  59.1098657
  15.7432363  60.4657603  49.9200230  15.6231988  60.9114654  50.7585710
  15.0484951  60.8142921  49.3613768   9.3339767  62.5663995  57.4699887
   9.4632148  62.8198474  58.3839299   8.6537219  63.1591703  57.1504542
  13.5039255  73.2361245  53.5690361  13.4263284  74.1869070  53.6478842
  12.9000898  72.8907117  54.2265288  15.9956484  60.4089110  66.2251728
  15.2189818  60.9683030  66.2154593  16.6347047  60.8945893  66.7466598
  23.7877265  57.1915903  60.0594705  23.1451645  57.4848436  59.4134500
  23.2832194  57.0768823  60.8647902  21.4417429  60.9379076  50.7480564
  22.3535285  61.1706463  50.5728262  20.9327076  61.5216120  50.1855643
  14.2502857  63.2174564  65.7869695  14.9917541  63.7559608  65.5104519
  13.5439842  63.8440852  65.9441247  19.7258196  65.3603704  64.3841857
  20.1341552  64.9186115  63.6396489  19.0035458  64.7856332  64.6376050
  16.0789266  60.2976311  61.7575414  16.9250462  60.7215724  61.9010063
  16.0187904  59.6409935  62.4513977  20.0487011  65.9204895  58.1394146
  19.4195873  66.0850609  57.4370214  19.6612673  66.3346504  58.9105110
  23.9276243  66.8559333  55.4938509  23.2427281  67.2358234  54.9435543
  24.0120092  67.4654659  56.2270457  19.2288712  57.9580679  63.4156587
  18.9849644  58.7122740  62.8790863  19.5048642  58.3366027  64.2503834
  21.1827174  64.5019292  62.0933853  21.3944070  65.1451051  61.4168234
  21.1356923  63.6681608  61.6255783  18.7853403  57.1137112  58.9970425
  17.9237882  57.4118366  59.2887163  18.8115838  57.3307511  58.0651458
  15.6014973  65.6579303  55.4044231  16.0653318  65.9367006  54.6148853
  15.3371771  64.7562747  55.2217321  12.4939054  65.2050784  58.3423994
  13.0640411  65.6338053  57.7041479  13.0847166  64.9233369  59.0408180
  14.5383859  61.7802455  52.2133796  15.2407902  62.2323499  52.6807722
  14.2064487  61.1386274  52.8413689  12.9864220  60.3714212  66.5885005
  12.3562881  61.0530493  66.8220402  12.8800308  60.2597293  65.6438144
   8.2809193  60.0386008  57.5150929   7.4908247  60.2943536  57.0391040
   8.7720440  60.8534346  57.6202970  22.2973002  67.3791247  60.2656210
  23.1190446  66.9771434  59.9838892  22.2935405  67.2759481  61.2172326
  10.2323938  60.4030587  54.4734406   9.4355102  60.5149281  54.9917902
  10.0049530  60.7417239  53.6075297  16.0629606  66.9275290  62.4216921
  16.1274038  67.3895698  63.2575093  15.3540530  66.2972655  62.5499231
   6.5646896  60.2916498  59.9465920   6.8154934  61.1763508  60.2123496
   7.1006444  60.1121100  59.1741012  30.3878995  63.7229995  56.6141182
  29.6342704  63.1537394  56.4585186  30.5226537  63.6892660  57.5611816
  15.7777624  68.5943398  52.2895901  15.6423298  69.4394934  52.7180749
  16.3187436  68.7962675  51.5261835  12.2644963  54.6734978  68.9510256
  11.8711909  54.1201176  69.6257901  13.0811103  54.9845556  69.3416774
   9.2307021  66.1118836  52.8623826   9.7431541  66.9062086  53.0129391
   9.8829734  65.4145126  52.7957428  11.0401906  69.2284592  54.9446579
  11.2168534  70.1502557  54.7567563  11.8358739  68.9143011  55.3740959
  15.1812924  56.0892857  66.5430513  15.9222638  56.6900010  66.4634975
  15.4130847  55.3470495  65.9848556  10.3254262  61.2749224  64.8208743
  10.2107777  60.3734481  65.1215842   9.4698780  61.5212921  64.4693559
  17.4046100  69.2166964  66.4196243  16.9609954  68.4303343  66.1017148
  18.0663313  69.4046115  65.7540134  12.1633221  70.7462766  60.9456922
  12.7140646  70.6179829  60.1733916  11.3244697  71.0457655  60.5951815
  19.5027338  69.4969764  64.4477645  19.4845813  70.3178645  63.9557914
  20.4247258  69.3723839  64.6727786  15.9600392  67.0113894  65.2901153
  16.4928729  66.2502182  65.0600461  15.4314473  66.7187546  66.0325307
  19.1270087  52.1173960  60.8194795  18.7834356  53.0075601  60.7433905
  19.4949050  51.9275617  59.9564380   7.1955938  64.4407490  53.6383397
   8.0331160  64.8504498  53.4217104   7.3734205  63.5006932  53.6083591
  19.0920370  62.1082571  49.3267230  18.5766993  62.8787175  49.5655617
  18.8197678  61.4347707  49.9500291  16.6767481  56.9532272  54.3852468
  15.8209077  56.5639122  54.2058107  17.0894433  57.0324232  53.5252254
  18.2066627  54.4878615  58.7844028  17.7031423  54.4508750  57.9711833
  18.4997234  55.3971358  58.8440685  14.4509513  54.5717345  57.7910210
  15.3162510  54.3760153  57.4316099  14.5187022  54.3427696  58.7179566
  24.0654644  64.8614925  51.2620403  23.2884087  64.5226085  50.8175565
  24.7446125  64.8667549  50.5875368  18.8806673  59.9809663  51.1527011
  18.5756809  60.2955812  52.0037154  19.8337115  60.0591083  51.1954344
  17.3253105  66.1399886  52.8019965  16.7974466  65.4052646  52.4893202
  16.8240608  66.9174563  52.5559933  22.3045951  64.3348907  57.9187011
  21.6469625  65.0248168  58.0067140  23.1086350  64.7245339  58.2620998
  12.0571832  56.8019552  55.1626576  12.6315584  56.5794734  54.4299769
  12.6442815  56.8708247  55.9155178  21.1151410  62.6893279  55.9690953
  21.6283291  63.3223271  56.4712663  21.7652634  62.0894475  55.6034313
  12.3841420  58.8324013  49.1822462  11.5478732  59.1698700  49.5031736
  12.2446189  58.6972993  48.2449599  14.3594500  53.6760801  53.8901646
  13.7058912  53.3609819  53.2658261  14.3174974  53.0536542  54.6161469
  15.4705705  63.9580096  45.8054938  14.5632767  63.7269350  46.0046087
  15.9676737  63.1617716  45.9928919  18.3773784  72.6677604  48.7251624
  17.7035483  72.9709300  49.3336582  18.7639606  73.4706684  48.3757081
  17.5932241  60.1642735  58.2149293  16.6754802  60.3857682  58.0570982
  18.0092384  60.2389045  57.3561001  18.3767288  61.5634151  53.3451974
  19.1239107  62.0755548  53.0359096  18.6458878  61.2418203  54.2056367
  16.6493938  64.0592691  50.3278928  15.7405158  63.7751724  50.4251398
  16.6789022  64.4791770  49.4682235  21.8813206  67.6699281  54.0970096
  21.4275533  66.8290191  54.1535286  21.2507173  68.3060679  54.4344876
  20.8246125  58.5991267  55.3270763  20.0868882  58.0868653  55.6581006
  21.0772899  58.1591648  54.5154040  20.3246145  69.5075778  55.0319914
  20.6169119  70.0680835  54.3132279  20.8344766  69.8004339  55.7873073
  20.9257753  51.3767519  55.9212532  21.2316630  50.5164882  55.6338447
  21.6510358  51.9685139  55.7211526   7.2182109  61.7798205  54.3094130
   7.0206509  61.1867566  53.5845197   6.6628773  61.4750416  55.0270069
  15.1978832  61.6721312  56.4288723  15.2527442  60.7195148  56.3531200
  14.3870035  61.8280751  56.9130022  16.3470026  65.6001435  47.6667007
  15.9089456  64.8837294  47.2072644  17.0880467  65.8277550  47.1052098
  13.1371192  60.2898372  54.1879102  12.3239058  60.5892542  54.5944294
  13.6330187  59.8954060  54.9053584  15.2879770  70.2856129  56.1213367
  15.2455949  70.5116975  55.1921899  16.2042469  70.0519503  56.2699168
  18.7345404  60.7540196  63.0193996  19.0894792  60.9811669  63.8788462
  19.3817535  61.0858573  62.3971251  24.4643141  63.8758632  53.7243325
  24.3261040  64.0660228  52.7964514  24.1079360  64.6378015  54.1811376
  12.6285267  57.8616727  59.8040337  13.2684646  57.7205486  59.1063301
  11.7962798  57.5751241  59.4278939  24.4912521  65.9435159  58.7354597
  24.9249027  65.8510448  59.5837651  25.2044101  65.9192659  58.0974613
  13.4045571  67.1619158  55.9175330  14.1986170  66.6669478  55.7157905
  12.6937263  66.6337021  55.5543035  18.2240416  69.5437253  60.2687697
  18.2777438  70.1128189  61.0365413  17.3555197  69.7139138  59.9041734
   9.7128335  61.3062239  51.9935082   8.7825923  61.2446695  52.2105044
   9.8085807  60.7838192  51.1971724   9.6313884  57.8317052  54.5813324
   9.8920701  58.7462385  54.4722484  10.4531056  57.3641495  54.7309937
  11.1038809  59.2454809  61.7512149  11.7761862  59.0372171  61.1024797
  10.2768595  59.0476895  61.3117381  25.3528070  65.9858860  61.2687482
  25.5463960  66.8904670  61.5146757  25.2528688  65.5266279  62.1026067
  17.0064381  55.8716750  63.7677809  16.3592296  56.5706700  63.6742286
  17.7765396  56.3052894  64.1354058  20.4143179  66.1365602  66.8428363
  20.2628685  65.9076154  65.9258446  20.4047858  67.0936204  66.8559708
  17.1828515  63.7097515  61.8274629  18.1120575  63.8608675  61.6543596
  16.7619545  63.7981536  60.9723276  15.9816847  67.7348180  59.5973167
  15.8427933  67.3666964  60.4699105  15.1931443  68.2495819  59.4257125
  16.5764999  72.8357276  50.9398703  16.7516755  72.3645319  51.7544326
  15.8897787  73.4623042  51.1679964  17.5322062  67.1129782  56.9862005
  17.1971895  67.0730552  57.8819654  17.0326008  66.4474498  56.5132415
  11.5066306  62.5197412  62.5114586  11.3686104  61.7877651  63.1126125
  12.4171230  62.4306312  62.2298773  20.4681254  64.4585817  47.2599064
  19.8510424  63.7332645  47.1632117  19.9997742  65.2195177  46.9166138
  14.1348607  62.2317372  61.9998265  14.8448225  61.5910564  61.9584884
  14.0917915  62.4830266  62.9224446  22.1235386  69.1684725  64.9204845
  22.0647932  68.4843945  64.2535428  22.5254904  69.9103715  64.4685471
  12.8477541  59.2182590  63.8193905  12.3114898  58.7673328  64.4715501
  12.2594249  59.3528498  63.0764369  11.1426084  75.9846639  57.7138563
  11.3822683  76.6165163  58.3917582  10.2995281  75.6334679  58.0003923
  12.2579800  58.6771241  46.3820368  11.3809266  58.5560042  46.0182615
  12.7337553  57.8857319  46.1299257  22.1252793  67.1324309  63.1518824
  21.2379572  66.7950231  63.2745223  22.6951344  66.4007340  63.3887590
   3.7781940  63.4648401  56.4761876   4.4652980  63.1510131  55.8882891
   3.6230069  64.3689765  56.2029127   8.5816662  58.3538597  60.9046899
   8.4974851  57.7464267  60.1697309   7.7599368  58.8447616  60.9056396
  15.6553946  71.7925761  60.1180067  15.5824118  72.5980733  60.6299372
  15.2131339  71.9917727  59.2928089  15.4443726  71.0297531  53.6282889
  14.6611248  71.5719211  53.7221113  16.1436471  71.5471511  54.0277130
  18.7540376  56.8392161  56.2717094  19.2509075  56.0862123  55.9518165
  17.9827357  56.8756477  55.7060304  26.6070133  62.5432526  57.9135386
  26.5960010  63.4257242  57.5429319  25.7387513  62.1904077  57.7189923
  18.1152630  71.6912595  62.2738226  18.8280602  72.3260060  62.2014128
  17.6242658  71.7876461  61.4578228  19.8370157  65.5963848  53.8455518
  18.9026435  65.7165310  53.6760222  20.0146825  64.6936315  53.5815528
  15.3375345  58.9809544  55.9988779  14.9673132  58.4280584  56.6869685
  15.8334437  58.3767677  55.4463779  23.2242708  61.4381167  54.3805552
  23.6903160  62.2709159  54.3065855  23.6750208  60.9726149  55.0850810
  13.1664543  69.4407039  63.0943797  13.8674003  70.0743522  63.2473191
  12.6959658  69.7821770  62.3339436  21.2918939  67.7824989  51.3791704
  21.5678783  67.6681583  52.2885578  20.4223438  67.3842473  51.3403877
  21.1959371  53.8061754  58.4196453  20.2822451  54.0365981  58.5878660
  21.6252472  53.8900198  59.2710486  20.9665829  61.9951646  60.9196347
  20.3137279  62.2427554  60.2648800  21.3446209  61.1815784  60.5858825
  17.9273003  72.0311339  55.0224518  18.1095398  71.2132995  55.4852270
  18.7505989  72.2479032  54.5849408  18.2615169  70.9579525  52.2839566
  18.7902935  70.4471979  51.6709728  18.5243388  70.6422055  53.1485099
  17.0153402  62.7371457  67.4062384  16.3394039  62.6365587  68.0764760
  17.8381036  62.5810671  67.8698382   8.7632261  68.9743394  60.0274900
   9.3485698  68.2287082  60.1602804   8.5657100  69.2847351  60.9111563
  11.6170917  72.0094641  55.0437342  10.9481292  72.4940769  54.5601382
  11.4783786  72.2563862  55.9580721   3.3549916  61.5448994  58.7479343
   3.3934016  61.0112585  59.5416461   2.8490209  61.0184200  58.1290320
  15.7576185  74.0438385  61.6420000  16.3094493  74.2070006  62.4069086
  16.0982379  74.6342823  60.9700025  10.7340678  56.3913535  62.2441885
  10.7982005  57.2528365  61.8319283  10.6707799  55.7787536  61.5114244
  10.2092951  58.4636667  65.8914919  10.8364990  58.0813744  66.5052444
   9.3520870  58.2450869  66.2570612  20.6087059  68.8699642  67.4968655
  21.1526963  69.4829601  67.0023610  20.0273904  69.4279221  68.0135668
   6.9858494  60.2713096  51.8233274   7.2811935  59.3623775  51.7700328
   6.0846529  60.2500836  51.5014276  18.8944572  71.9920360  58.6283683
  18.7695712  71.1910100  58.1194628  19.5523663  72.4866554  58.1397652
  10.5152741  58.3469093  57.8060823   9.7939326  58.9605060  57.6668296
  11.3045996  58.8826858  57.7277469  20.9579481  69.7929380  60.2563233
  20.0109816  69.6734732  60.1841559  21.3062254  68.9051878  60.3389494
  13.3179054  55.6823519  64.0801474  13.8413456  55.9285816  64.8427784
  13.0991387  56.5143554  63.6604612   8.7146335  57.9527194  51.9472599
   8.3859041  57.0724573  51.7647705   9.0685706  57.8974863  52.8348989
  17.9625914  69.5882097  56.4567585  17.8150876  68.6598804  56.6375155
  18.7879408  69.6102187  55.9724660  11.8288158  58.2400164  52.3148077
  12.1684231  58.7686085  51.5926685  12.2760279  58.5780570  53.0906643
  21.5660036  70.4110655  57.5432458  22.4906583  70.2053517  57.4056909
  21.3975339  70.1627056  58.4521799  14.5231599  56.6237214  61.7651145
  14.1828420  55.8245027  62.1671825  13.8170605  56.9238925  61.1927978
  15.1748071  53.7086527  60.2178468  15.9974140  53.2347005  60.0957358
  15.4186135  54.4877011  60.7177154  13.8156306  56.7374785  50.5141370
  14.5364668  57.1156038  50.0105087  13.1921610  57.4563662  50.6176348
  17.9587428  57.4419934  51.4499702  18.1751043  58.3244572  51.1488530
  17.4781496  57.0506148  50.7205344  12.6986650  60.4005647  58.0270447
  12.5531230  60.7145950  58.9194728  12.2211853  61.0190548  57.4741345
  14.5583033  57.3908195  58.0751336  14.5444601  56.4949289  57.7383634
  15.2755461  57.3978859  58.7089622  16.4109163  57.8245536  60.1204464
  16.1526941  58.7462606  60.1188794  15.8794204  57.4275970  60.8104928
  21.3555352  70.9296323  52.8994549  21.5292230  70.3642745  52.1468401
  21.8484243  71.7297218  52.7174039   7.1732312  62.9410992  60.9658108
   6.6285780  63.7170800  61.0978382   8.0511662  63.2881796  60.8077229
  13.9619929  56.2722576  53.3438906  14.0835840  55.3439222  53.5429794
  13.6721971  56.2861262  52.4317222  16.8311119  53.9577486  56.4805626
  16.8532816  54.0216819  55.5257606  17.2479178  53.1181995  56.6746132
  27.2094743  63.6932746  54.5184849  27.6525889  62.9440071  54.1203972
  26.3321254  63.6842882  54.1358581  22.3430525  70.2463087  49.9991447
  23.0381429  70.8669780  50.2178762  22.6853675  69.3958438  50.2743825
   7.9598334  62.0680888  63.8588265   7.2180070  62.2163523  64.4452895
   7.6391078  62.3289154  62.9955014  24.2421948  67.6962793  51.5278778
  24.7673272  68.0350065  50.8028098  24.1544300  66.7609808  51.3441913
  15.9041996  71.6096866  63.6568655  16.2129123  71.3646013  64.5291354
  16.7017478  71.8143505  63.1687525  15.9262608  73.7634776  55.8874031
  15.4867599  73.2711155  56.5806888  16.6770725  73.2207744  55.6466106
   8.4054947  69.9546317  55.8898659   9.2312967  69.6550089  55.5097303
   8.0548999  69.1853939  56.3388448  13.3736481  69.3072785  57.9596333
  12.7516490  68.6443490  57.6598561  14.0441348  69.3333917  57.2769981
   6.6063553  67.8732643  56.8487593   5.7695461  67.4454818  56.6671594
   6.5787198  68.0665087  57.7858384  13.4461008  57.7854573  67.5528839
  13.4949164  58.6616696  67.1706609  13.9883522  57.2431966  66.9800482
  23.9315854  68.3295696  66.8329976  23.1411398  68.3119835  66.2934475
  23.6949208  68.8683990  67.5879013  24.0513729  65.1788163  64.1462705
  24.1011734  65.0138170  65.0878227  23.9427652  64.3115422  63.7560585
  12.9349988  67.8576708  51.4354793  13.0838108  68.5412173  50.7821466
  13.7416431  67.8381798  51.9504249  21.3417491  61.1619091  65.4622011
  22.2427354  61.0225556  65.1706009  21.4165466  61.3273546  66.4020189
  15.6760297  58.5385945  64.3075198  14.8063606  58.8319512  64.0357786
  15.9119777  59.1226390  65.0282461  25.5531926  67.5985104  64.3904726
  25.2616734  67.9615085  65.2268187  24.9404057  66.8852112  64.2118058
  26.7527608  65.1637984  56.9107296  27.5874499  65.6027788  57.0744857
  26.8886737  64.6876637  56.0915542  23.8019114  62.7217719  62.8584784
  24.2773236  62.9145365  62.0503635  22.8784679  62.7776905  62.6128168
  10.6902621  63.8841886  52.4415862  10.4448662  62.9804216  52.6396073
  10.8598535  63.8859036  51.4995340  18.3799330  54.7565562  61.8240618
  18.8981274  55.4926589  61.4987107  18.0254463  55.0629556  62.6587377
   9.9598268  59.6170244  49.9402024   9.2667513  59.6914599  49.2842060
   9.7150020  58.8530587  50.4623541  18.6311925  51.1765845  57.3441515
  18.9113678  50.5089034  57.9701941  19.4162531  51.3694941  56.8316178
  16.4345393  70.3524839  48.9066541  15.8619360  70.9715026  48.4537013
  17.0078187  70.9024201  49.4406463  22.5020783  59.5983479  61.0913090
  23.4538206  59.6981577  61.1125314  22.3324233  58.8061747  61.6011174
  20.5235162  56.6839062  61.2772491  19.9285094  56.9644075  60.5818979
  20.2384859  57.1732963  62.0489232  19.6542653  70.6361989  50.0375123
  20.5873326  70.5707551  50.2407999  19.5665866  71.4718256  49.5789656
  22.2830670  69.9527859  46.9979071  22.2044301  69.6187723  47.8914829
  23.1040336  70.4449627  46.9970543  24.9808861  62.8189599  60.2055389
  24.9485181  61.8805599  60.3915073  25.5909484  62.8973635  59.4721214
  16.8192192  61.6885652  46.2482593  17.7651296  61.5591860  46.3171011
  16.4406437  60.9500313  46.7252022  25.1303349  59.6100642  60.2513673
  24.6142398  58.8259099  60.0643601  26.0143298  59.2819359  60.4160192
  22.7914076  53.3541658  56.2109485  22.5938897  53.0456746  57.0952817
  23.4013782  54.0803297  56.3407415  30.7985411  63.8805605  59.3461426
  31.5288799  63.6190894  59.9069129  30.1892356  63.1434327  59.3863494
  28.8800708  62.0213468  59.9435877  28.1533871  61.8869433  59.3352369
  28.4647995  62.3290297  60.7492595  16.7030884  65.7403398  67.7083250
  17.6233894  65.9181997  67.9023297  16.6680467  64.7959443  67.5562950
  15.0035109  59.6135628  46.1837479  14.0966564  59.3168741  46.2600192
  15.2811090  59.3165446  45.3171765   5.9213049  60.9341991  56.6336525
   5.6015833  60.0807300  56.3410899   5.3746477  61.1490570  57.3894492
   9.6992957  63.6504432  60.3506032   9.9178966  64.5821540  60.3694065
  10.1118730  63.2912407  61.1360835  16.6197174  54.1572518  52.3381720
  15.8097903  53.8119603  52.7136966  17.3081591  53.8480061  52.9269331
  18.5487723  53.2350564  53.9606017  19.1018761  53.6546018  54.6196040
  18.7857809  52.3086313  54.0028973  14.5720822  59.2237638  69.7408780
  14.4717549  60.1731995  69.6720872  14.3542364  58.8955877  68.8684851
  13.7733893  56.4722563  46.3249458  14.6353057  56.7977461  46.5845275
  13.9584237  55.6854059  45.8122524   5.7901309  64.5544903  58.6029647
   5.0964781  64.1398856  58.0899601   6.5374300  64.5965439  58.0063065
  21.9266530  55.3451090  53.4684681  21.3465199  56.0035894  53.0862733
  21.6602463  54.5228434  53.0572098  20.3770096  54.7456147  55.6706001
  20.8769875  54.8572682  54.8620320  21.0205704  54.4417200  56.3106810
  14.4352092  62.6534777  68.5573842  13.9519174  63.4535137  68.7637731
  14.5213031  62.6642722  67.6041286   7.7038052  64.4863157  56.4795661
   7.6808740  64.5850844  55.5277545   8.0138688  65.3328307  56.8012828
  10.3625430  66.5439312  60.5942276  11.3168683  66.5123254  60.5272207
  10.1637953  66.0829935  61.4092502  10.9524812  65.1140428  63.1613074
  11.7717701  65.6084506  63.1847911  11.2261619  64.1972396  63.1330641
  20.7091408  57.5051180  52.5241029  19.8217263  57.7900831  52.3061224
  21.1245397  57.3444943  51.6768306  24.0605944  57.5297701  56.2395368
  24.8366334  58.0194153  56.5119985  23.3354078  57.9555755  56.6967238
  26.4978503  58.2425320  57.2969309  27.0922993  58.0021056  56.5862617
  26.5705086  57.5232451  57.9242845   8.7175658  72.0858931  57.6112474
   8.5830126  71.3259332  57.0450472   8.3007721  72.8099831  57.1441263
  19.8534621  67.2695855  46.6189049  20.5570471  67.4745857  47.2346705
  19.1297270  67.8372617  46.8838133  20.6832432  63.0205716  52.7391319
  20.6267633  63.4774267  51.8998952  21.2360774  62.2596401  52.5614162
  24.4937237  58.8095448  53.5641439  24.2374172  58.4092083  54.3949646
  23.8690106  59.5239242  53.4391578  28.8049575  61.5491521  56.0712730
  28.2449133  61.6184710  56.8444292  28.1993079  61.3732506  55.3512226
  11.8744784  72.9828248  57.8230916  11.7577168  73.9273681  57.7209607
  11.0537230  72.6801810  58.2116716  21.7621319  67.7078384  48.6687509
  22.5966923  67.2759582  48.4864984  21.6005662  67.5360398  49.5964404
  21.4167211  64.2110497  50.0343848  21.3616015  64.0454769  49.0932293
  20.7913266  64.9186530  50.1906038   6.2059726  59.4478562  63.8605271
   6.8518589  58.9377516  64.3492496   5.9976877  60.1847243  64.4348696
  18.7313118  66.5159409  69.3597411  19.6004278  66.6900061  68.9984046
  18.2519870  67.3353826  69.2373141  14.7263336  53.7118606  49.6129167
  14.7142006  54.6560446  49.7697438  15.6186758  53.5288752  49.3188628
  12.8999298  73.6356510  61.0386845  13.8026545  73.6680120  61.3553340
  12.6736668  72.7056961  61.0533181  14.6552900  72.3887497  57.6996923
  13.7048531  72.3889358  57.5861296  14.9585386  71.6420231  57.1832958
  18.5415456  50.3061383  53.8675104  17.7747852  49.7519870  54.0131786
  18.9526161  50.3783252  54.7289255  10.5457217  56.5946179  67.9580285
  11.4088678  56.2382984  68.1683609   9.9722628  56.2560073  68.6455689
  30.3905594  78.2248035  58.7642686  31.0284004  78.1054782  58.0606026
  30.2726437  79.1728879  58.8230638  27.1995300  78.1775463  58.7004211
  26.8613812  78.0616528  57.8124745  28.0685068  77.7766628  58.6805217
  23.0582116  80.0310940  54.6901101  22.4946981  79.9400876  53.9217389
  22.9434511  79.2110844  55.1703594  20.6046548  81.5262131  57.5285322
  21.3967840  81.1852956  57.1131621  20.8443198  81.6357106  58.4487475
  28.6381675  83.6981907  50.0015566  27.9869654  84.2835988  49.6149580
  29.4326037  84.2288102  50.0610604  22.5637302  80.7871044  50.4002701
  23.3368178  80.2400031  50.2615577  22.9162701  81.6515294  50.6117162
  25.3278551  79.4924275  60.1970960  25.9242123  79.2680298  59.4827923
  25.3853523  78.7509021  60.7996408  24.9003579  76.9463710  48.0321151
  25.1529100  76.4245232  47.2704614  23.9628139  76.7829856  48.1347834
  29.9446862  75.9499489  55.8395894  30.7309952  75.5318912  55.4886311
  30.2085567  76.8545581  56.0077542  30.1156940  81.3872339  50.5384551
  29.4802773  81.4606966  51.2505455  29.7854346  81.9765938  49.8603630
  35.3455289  75.8874722  56.7428872  36.0780461  75.3173939  56.9766702
  34.5894645  75.4996323  57.1835378  24.6199868  78.8491816  50.2345526
  24.5036126  78.1736720  50.9026610  24.7302128  78.3624190  49.4177679
  26.9631409  78.3101964  53.9392215  26.5989616  77.7832585  54.6505136
  27.8198525  77.9200433  53.7658700  32.8680710  69.5996296  61.2023481
  32.5364035  70.4691707  60.9784696  32.2726323  69.2832580  61.8817511
  26.6036896  73.3391863  48.9353563  26.7711298  74.2072100  49.3024034
  26.4134065  73.5019145  48.0114853  29.3612229  81.8008842  60.6019394
  29.0612952  82.7033881  60.4935201  29.0163289  81.5341025  61.4540547
  22.8124711  78.2522639  56.6356098  21.8875207  78.1198853  56.8433790
  23.0609124  79.0316858  57.1326041  32.7609373  74.3191382  58.2816831
  31.8526250  74.2506791  57.9875592  32.7096969  74.7963327  59.1098657
  26.5826117  75.7949521  49.9200230  26.4625742  76.2406572  50.7585710
  25.8878705  76.1434838  49.3613768  20.1733522  77.8955913  57.4699887
  20.3025903  78.1490391  58.3839299  19.4930973  78.4883621  57.1504542
  24.3433009  88.5653163  53.5690361  24.2657039  89.5160988  53.6478842
  23.7394653  88.2199035  54.2265288  34.6271019  72.5207821  60.0594705
  33.9845400  72.8140354  59.4134500  34.1225948  72.4060741  60.8647902
  32.2811183  76.2670994  50.7480564  33.1929039  76.4998381  50.5728262
  31.7720830  76.8508038  50.1855643  26.9183021  75.6268229  61.7575414
  27.7644216  76.0507642  61.9010063  26.8581659  74.9701853  62.4513977
  30.0682466  73.2872597  63.4156587  29.8243398  74.0414657  62.8790863
  30.3442397  73.6657944  64.2503834  29.6247158  72.4429030  58.9970425
  28.7631637  72.7410283  59.2887163  29.6509593  72.6599429  58.0651458
  26.4408727  80.9871220  55.4044231  26.9047073  81.2658923  54.6148853
  26.1765525  80.0854665  55.2217321  23.3332808  80.5342702  58.3423994
  23.9034165  80.9629970  57.7041479  23.9240920  80.2525287  59.0408180
  25.3777613  77.1094373  52.2133796  26.0801657  77.5615417  52.6807722
  25.0458242  76.4678192  52.8413689  23.8257975  75.7006129  66.5885005
  23.1956635  76.3822410  66.8220402  23.7194063  75.5889211  65.6438144
  19.1202947  75.3677925  57.5150929  18.3302001  75.6235454  57.0391040
  19.6114195  76.1826263  57.6202970  21.0717693  75.7322505  54.4734406
  20.2748856  75.8441199  54.9917902  20.8443285  76.0709157  53.6075297
  26.9023360  82.2567208  62.4216921  26.9667793  82.7187615  63.2575093
  26.1934284  81.6264573  62.5499231  17.4040650  75.6208416  59.9465920
  17.6548689  76.5055426  60.2123496  17.9400199  75.4413017  59.1741012
  41.2272750  79.0521913  56.6141182  40.4736458  78.4829311  56.4585186
  41.3620291  79.0184578  57.5611816  26.6171378  83.9235315  52.2895901
  26.4817053  84.7686851  52.7180749  27.1581191  84.1254593  51.5261835
  23.1038718  70.0026895  68.9510256  22.7105663  69.4493094  69.6257901
  23.9204858  70.3137474  69.3416774  20.0700775  81.4410753  52.8623826
  20.5825296  82.2354004  53.0129391  20.7223488  80.7437044  52.7957428
  21.8795660  84.5576510  54.9446579  22.0562288  85.4794474  54.7567563
  22.6752494  84.2434929  55.3740959  26.0206679  71.4184774  66.5430513
  26.7616392  72.0191928  66.4634975  26.2524601  70.6762412  65.9848556
  21.1648017  76.6041142  64.8208743  21.0501532  75.7026399  65.1215842
  20.3092534  76.8504838  64.4693559  29.9663842  67.4465877  60.8194795
  29.6228111  68.3367519  60.7433905  30.3342804  67.2567535  59.9564380
  18.0349692  79.7699408  53.6383397  18.8724914  80.1796416  53.4217104
  18.2127960  78.8298850  53.6083591  29.9314124  77.4374488  49.3267230
  29.4160748  78.2079093  49.5655617  29.6591433  76.7639625  49.9500291
  27.5161235  72.2824189  54.3852468  26.6602832  71.8931040  54.2058107
  27.9288187  72.3616150  53.5252254  29.0460382  69.8170533  58.7844028
  28.5425178  69.7800668  57.9711833  29.3390989  70.7263275  58.8440685
  25.2903268  69.9009262  57.7910210  26.1556265  69.7052071  57.4316099
  25.3580777  69.6719614  58.7179566  34.9048398  80.1906843  51.2620403
  34.1277841  79.8518003  50.8175565  35.5839879  80.1959466  50.5875368
  29.7200427  75.3101581  51.1527011  29.4150563  75.6247730  52.0037154
  30.6730870  75.3883000  51.1954344  28.1646859  81.4691804  52.8019965
  27.6368221  80.7344563  52.4893202  27.6634362  82.2466480  52.5559933
  22.8965587  72.1311470  55.1626576  23.4709339  71.9086652  54.4299769
  23.4836569  72.2000165  55.9155178  31.9545164  78.0185197  55.9690953
  32.4677046  78.6515189  56.4712663  32.6046388  77.4186393  55.6034313
  23.2235174  74.1615931  49.1822462  22.3872486  74.4990618  49.5031736
  23.0839944  74.0264911  48.2449599  25.1988255  69.0052719  53.8901646
  24.5452667  68.6901736  53.2658261  25.1568729  68.3828460  54.6161469
  26.3099459  79.2872014  45.8054938  25.4026521  79.0561268  46.0046087
  26.8070491  78.4909633  45.9928919  29.2167538  87.9969521  48.7251624
  28.5429237  88.3001218  49.3336582  29.6033360  88.7998602  48.3757081
  28.4325995  75.4934653  58.2149293  27.5148556  75.7149600  58.0570982
  28.8486139  75.5680963  57.3561001  29.2161043  76.8926068  53.3451974
  29.9632862  77.4047465  53.0359096  29.4852632  76.5710121  54.2056367
  27.4887693  79.3884609  50.3278928  26.5798912  79.1043642  50.4251398
  27.5182777  79.8083688  49.4682235  31.6639880  73.9283185  55.3270763
  30.9262637  73.4160571  55.6581006  31.9166653  73.4883566  54.5154040
  31.1639900  84.8367695  55.0319914  31.4562874  85.3972752  54.3132279
  31.6738520  85.1296256  55.7873073  31.7651507  66.7059437  55.9212532
  32.0710384  65.8456800  55.6338447  32.4904112  67.2977057  55.7211526
  18.0575863  77.1090123  54.3094130  17.8600263  76.5159484  53.5845197
  17.5022527  76.8042333  55.0270069  26.0372587  77.0013230  56.4288723
  26.0921197  76.0487066  56.3531200  25.2263789  77.1572669  56.9130022
  27.1863781  80.9293353  47.6667007  26.7483211  80.2129212  47.2072644
  27.9274222  81.1569467  47.1052098  23.9764947  75.6190289  54.1879102
  23.1632812  75.9184460  54.5944294  24.4723941  75.2245978  54.9053584
  26.1273525  85.6148046  56.1213367  26.0849704  85.8408893  55.1921899
  27.0436224  85.3811421  56.2699168  29.5739159  76.0832114  63.0193996
  29.9288546  76.3103587  63.8788462  30.2211290  76.4150491  62.3971251
  35.3036896  79.2050550  53.7243325  35.1654794  79.3952146  52.7964514
  34.9473114  79.9669933  54.1811376  23.4679022  73.1908645  59.8040337
  24.1078401  73.0497404  59.1063301  22.6356552  72.9043158  59.4278939
  24.2439326  82.4911075  55.9175330  25.0379924  81.9961395  55.7157905
  23.5331018  81.9628938  55.5543035  29.0634170  84.8729171  60.2687697
  29.1171192  85.4420107  61.0365413  28.1948951  85.0431056  59.9041734
  20.5522089  76.6354157  51.9935082  19.6219677  76.5738613  52.2105044
  20.6479561  76.1130110  51.1971724  20.4707638  73.1608970  54.5813324
  20.7314455  74.0754303  54.4722484  21.2924810  72.6933412  54.7309937
  21.9432563  74.5746727  61.7512149  22.6155617  74.3664089  61.1024797
  21.1162350  74.3768813  61.3117381  27.8458135  71.2008668  63.7677809
  27.1986050  71.8998618  63.6742286  28.6159151  71.6344812  64.1354058
  28.0222270  79.0389433  61.8274629  28.9514330  79.1900592  61.6543596
  27.6013300  79.1273454  60.9723276  26.8210602  83.0640097  59.5973167
  26.6821687  82.6958882  60.4699105  26.0325198  83.5787737  59.4257125
  27.4158754  88.1649194  50.9398703  27.5910509  87.6937237  51.7544326
  26.7291542  88.7914960  51.1679964  28.3715817  82.4421700  56.9862005
  28.0365649  82.4022470  57.8819654  27.8719762  81.7766416  56.5132415
  22.3460061  77.8489330  62.5114586  22.2079859  77.1169569  63.1126125
  23.2564984  77.7598230  62.2298773  31.3075008  79.7877734  47.2599064
  30.6904179  79.0624562  47.1632117  30.8391497  80.5487095  46.9166138
  24.9742361  77.5609289  61.9998265  25.6841980  76.9202482  61.9584884
  24.9311669  77.8122184  62.9224446  23.6871295  74.5474507  63.8193905
  23.1508652  74.0965246  64.4715501  23.0988004  74.6820416  63.0764369
  21.9819839  91.3138557  57.7138563  22.2216437  91.9457081  58.3917582
  21.1389035  90.9626597  58.0003923  23.0973554  74.0063159  46.3820368
  22.2203021  73.8851959  46.0182615  23.5731307  73.2149237  46.1299257
  14.6175694  78.7940318  56.4761876  15.3046734  78.4802048  55.8882891
  14.4623823  79.6981683  56.2029127  19.4210417  73.6830515  60.9046899
  19.3368605  73.0756184  60.1697309  18.5993123  74.1739533  60.9056396
  26.4947701  87.1217679  60.1180067  26.4217872  87.9272650  60.6299372
  26.0525094  87.3209645  59.2928089  26.2837480  86.3589449  53.6282889
  25.5005002  86.9011129  53.7221113  26.9830225  86.8763429  54.0277130
  29.5934130  72.1684078  56.2717094  30.0902830  71.4154041  55.9518165
  28.8221112  72.2048395  55.7060304  30.6763911  80.9255766  53.8455518
  29.7420190  81.0457228  53.6760222  30.8540580  80.0228232  53.5815528
  26.1769099  74.3101461  55.9988779  25.8066887  73.7572502  56.6869685
  26.6728192  73.7059595  55.4463779  34.0636462  76.7673085  54.3805552
  34.5296915  77.6001077  54.3065855  34.5143963  76.3018067  55.0850810
  32.1312694  83.1116906  51.3791704  32.4072537  82.9973501  52.2885578
  31.2617192  82.7134391  51.3403877  32.0353125  69.1353672  58.4196453
  31.1216205  69.3657899  58.5878660  32.4646227  69.2192116  59.2710486
  31.8059584  77.3243564  60.9196347  31.1531034  77.5719471  60.2648800
  32.1839964  76.5107702  60.5858825  28.7666758  87.3603257  55.0224518
  28.9489152  86.5424913  55.4852270  29.5899744  87.5770949  54.5849408
  29.1008923  86.2871442  52.2839566  29.6296689  85.7763897  51.6709728
  29.3637143  85.9713972  53.1485099  19.6026016  84.3035311  60.0274900
  20.1879453  83.5578999  60.1602804  19.4050854  84.6139268  60.9111563
  22.4564671  87.3386559  55.0437342  21.7875046  87.8232687  54.5601382
  22.3177541  87.5855779  55.9580721  14.1943671  76.8740912  58.7479343
  14.2327770  76.3404502  59.5416461  13.6883963  76.3476117  58.1290320
  26.5969940  89.3730302  61.6420000  27.1488248  89.5361924  62.4069086
  26.9376133  89.9634740  60.9700025  21.5734433  71.7205452  62.2441885
  21.6375759  72.5820283  61.8319283  21.5101553  71.1079454  61.5114244
  21.0486705  73.7928585  65.8914919  21.6758744  73.4105662  66.5052444
  20.1914624  73.5742787  66.2570612  17.8252248  75.6005014  51.8233274
  18.1205689  74.6915692  51.7700328  16.9240284  75.5792753  51.5014276
  29.7338327  87.3212278  58.6283683  29.6089466  86.5202018  58.1194628
  30.3917418  87.8158471  58.1397652  21.3546495  73.6761010  57.8060823
  20.6333081  74.2896978  57.6668296  22.1439751  74.2118775  57.7277469
  24.1572809  71.0115437  64.0801474  24.6807210  71.2577733  64.8427784
  23.9385142  71.8435472  63.6604612  19.5540090  73.2819112  51.9472599
  19.2252796  72.4016490  51.7647705  19.9079460  73.2266780  52.8348989
  28.8019669  84.9174014  56.4567585  28.6544631  83.9890722  56.6375155
  29.6273162  84.9394105  55.9724660  22.6681913  73.5692081  52.3148077
  23.0077985  74.0978003  51.5926685  23.1154033  73.9072487  53.0906643
  25.3625354  71.9529132  61.7651145  25.0222174  71.1536945  62.1671825
  24.6564360  72.2530843  61.1927978  26.0141825  69.0378444  60.2178468
  26.8367895  68.5638923  60.0957358  26.2579889  69.8168928  60.7177154
  24.6550060  72.0666703  50.5141370  25.3758422  72.4447956  50.0105087
  24.0315364  72.7855580  50.6176348  28.7981183  72.7711852  51.4499702
  29.0144797  73.6536490  51.1488530  28.3175250  72.3798065  50.7205344
  23.5380404  75.7297565  58.0270447  23.3924985  76.0437868  58.9194728
  23.0605608  76.3482465  57.4741345  25.3976787  72.7200113  58.0751336
  25.3838356  71.8241206  57.7383634  26.1149215  72.7270777  58.7089622
  27.2502918  73.1537453  60.1204464  26.9920696  74.0754524  60.1188794
  26.7187958  72.7567888  60.8104928  32.1949107  86.2588240  52.8994549
  32.3685984  85.6934663  52.1468401  32.6877998  87.0589135  52.7174039
  18.0126066  78.2702909  60.9658108  17.4679534  79.0462717  61.0978382
  18.8905416  78.6173714  60.8077229  24.8013683  71.6014493  53.3438906
  24.9229594  70.6731140  53.5429794  24.5115725  71.6153179  52.4317222
  27.6704873  69.2869404  56.4805626  27.6926570  69.3508737  55.5257606
  28.0872932  68.4473912  56.6746132  38.0488498  79.0224663  54.5184849
  38.4919644  78.2731989  54.1203972  37.1715008  79.0134800  54.1358581
  33.1824279  85.5755005  49.9991447  33.8775184  86.1961697  50.2178762
  33.5247429  84.7250356  50.2743825  18.7992088  77.3972806  63.8588265
  18.0573824  77.5455441  64.4452895  18.4784833  77.6581071  62.9955014
  35.0815702  83.0254710  51.5278778  35.6067026  83.3641983  50.8028098
  34.9938055  82.0901726  51.3441913  26.7656363  89.0926694  55.8874031
  26.3261353  88.6003072  56.5806888  27.5164480  88.5499661  55.6466106
  19.2448702  85.2838234  55.8898659  20.0706722  84.9842006  55.5097303
  18.8942754  84.5145857  56.3388448  24.2130235  84.6364703  57.9596333
  23.5910244  83.9735408  57.6598561  24.8835102  84.6625835  57.2769981
  17.4457307  83.2024561  56.8487593  16.6089215  82.7746735  56.6671594
  17.4180952  83.3957004  57.7858384  24.2854763  73.1146491  67.5528839
  24.3342918  73.9908614  67.1706609  24.8277277  72.5723884  66.9800482
  23.7743742  83.1868626  51.4354793  23.9231862  83.8704090  50.7821466
  24.5810185  83.1673716  51.9504249  26.5154051  73.8677863  64.3075198
  25.6457360  74.1611429  64.0357786  26.7513531  74.4518308  65.0282461
  21.5296375  79.2133804  52.4415862  21.2842417  78.3096134  52.6396073
  21.6992290  79.2150954  51.4995340  29.2193085  70.0857480  61.8240618
  29.7375029  70.8218507  61.4987107  28.8648218  70.3921473  62.6587377
  20.7992023  74.9462161  49.9402024  20.1061267  75.0206516  49.2842060
  20.5543774  74.1822505  50.4623541  29.4705679  66.5057763  57.3441515
  29.7507433  65.8380952  57.9701941  30.2556286  66.6986858  56.8316178
  27.2739148  85.6816756  48.9066541  26.7013115  86.3006944  48.4537013
  27.8471941  86.2316118  49.4406463  33.3414537  74.9275397  61.0913090
  34.2931960  75.0273494  61.1125314  33.1717988  74.1353665  61.6011174
  31.3628917  72.0130980  61.2772491  30.7678849  72.2935993  60.5818979
  31.0778614  72.5024881  62.0489232  30.4936407  85.9653907  50.0375123
  31.4267080  85.8999468  50.2407999  30.4059620  86.8010173  49.5789656
  33.1224424  85.2819777  46.9979071  33.0438056  84.9479641  47.8914829
  33.9434091  85.7741545  46.9970543  27.6585946  77.0177569  46.2482593
  28.6045051  76.8883777  46.3171011  27.2800191  76.2792231  46.7252022
  33.6307831  68.6833575  56.2109485  33.4332652  68.3748663  57.0952817
  34.2407536  69.4095214  56.3407415  25.8428863  74.9427546  46.1837479
  24.9360319  74.6460658  46.2600192  26.1204844  74.6457364  45.3171765
  16.7606804  76.2633909  56.6336525  16.4409588  75.4099217  56.3410899
  16.2140232  76.4782487  57.3894492  20.5386711  78.9796350  60.3506032
  20.7572721  79.9113458  60.3694065  20.9512485  78.6204324  61.1360835
  27.4590929  69.4864435  52.3381720  26.6491657  69.1411520  52.7136966
  28.1475346  69.1771979  52.9269331  29.3881477  68.5642482  53.9606017
  29.9412516  68.9837936  54.6196040  29.6251564  67.6378230  54.0028973
  24.6127648  71.8014481  46.3249458  25.4746812  72.1269379  46.5845275
  24.7977992  71.0145977  45.8122524  16.6295064  79.8836821  58.6029647
  15.9358535  79.4690773  58.0899601  17.3768055  79.9257357  58.0063065
  32.7660284  70.6743007  53.4684681  32.1858953  71.3327811  53.0862733
  32.4996217  69.8520352  53.0572098  31.2163851  70.0748065  55.6706001
  31.7163629  70.1864600  54.8620320  31.8599459  69.7709118  56.3106810
  18.5431806  79.8155074  56.4795661  18.5202494  79.9142762  55.5277545
  18.8532443  80.6620225  56.8012828  21.2019184  81.8731229  60.5942276
  22.1562438  81.8415172  60.5272207  21.0031708  81.4121853  61.4092502
  31.5485162  72.8343098  52.5241029  30.6611017  73.1192748  52.3061224
  31.9639151  72.6736861  51.6768306  34.8999698  72.8589619  56.2395368
  35.6760089  73.3486071  56.5119985  34.1747833  73.2847673  56.6967238
  19.5569413  87.4150849  57.6112474  19.4223881  86.6551250  57.0450472
  19.1401475  88.1391749  57.1441263  30.6928376  82.5987772  46.6189049
  31.3964226  82.8037775  47.2346705  29.9691025  83.1664534  46.8838133
  31.5226186  78.3497634  52.7391319  31.4661387  78.8066185  51.8998952
  32.0754529  77.5888318  52.5614162  35.3330992  74.1387365  53.5641439
  35.0767926  73.7384001  54.3949646  34.7083860  74.8531159  53.4391578
  22.7138539  88.3120166  57.8230916  22.5970923  89.2565598  57.7209607
  21.8930985  88.0093727  58.2116716  32.6015073  83.0370302  48.6687509
  33.4360677  82.6051500  48.4864984  32.4399416  82.8652315  49.5964404
  32.2560965  79.5402415  50.0343848  32.2009769  79.3746686  49.0932293
  31.6307021  80.2478448  50.1906038  17.0453480  74.7770479  63.8605271
  17.6912344  74.2669433  64.3492496  16.8370631  75.5139161  64.4348696
  25.5657091  69.0410524  49.6129167  25.5535761  69.9852364  49.7697438
  26.4580513  68.8580669  49.3188628  23.7393053  88.9648428  61.0386845
  24.6420299  88.9972038  61.3553340  23.5130423  88.0348879  61.0533181
  25.4946655  87.7179414  57.6996923  24.5442286  87.7181276  57.5861296
  25.7979141  86.9712149  57.1832958  29.3809210  65.6353301  53.8675104
  28.6141606  65.0811787  54.0131786  29.7919915  65.7075169  54.7289255
  21.3850971  71.9238096  67.9580285  22.2482433  71.5674901  68.1683609
  20.8116382  71.5851991  68.6455689  41.2299348  93.5539953  58.7642686
  41.8677758  93.4346700  58.0606026  41.1120191  94.5020797  58.8230638
  38.0389055  93.5067381  58.7004211  37.7007566  93.3908445  57.8124745
  38.9078823  93.1058546  58.6805217  33.8975870  95.3602857  54.6901101
  33.3340735  95.2692794  53.9217389  33.7828265  94.5402762  55.1703594
  38.5208838  94.6602233  64.6590416  38.5097478  94.2655031  63.7870920
  38.6829477  93.9268305  65.2524188  31.4440302  96.8554049  57.5285322
  32.2361594  96.5144873  57.1131621  31.6836952  96.9649024  58.4487475
  39.4775429  99.0273825  50.0015566  38.8263409  99.6127905  49.6149580
  40.2719792  99.5580020  50.0610604  33.4031056  96.1162962  50.4002701
  34.1761932  95.5691949  50.2615577  33.7556455  96.9807211  50.6117162
  35.2416099  97.4439344  63.6069600  34.9505965  98.3484975  63.4916266
  35.8773083  97.4855872  64.3213670  36.1672306  94.8216193  60.1970960
  36.7635878  94.5972215  59.4827923  36.2247277  94.0800938  60.7996408
  35.7397334  92.2755628  48.0321151  35.9922855  91.7537149  47.2704614
  34.8021893  92.1121774  48.1347834  40.7840617  91.2791407  55.8395894
  41.5703706  90.8610830  55.4886311  41.0479321  92.1837499  56.0077542
  40.9550694  96.7164257  50.5384551  40.3196527  96.7898883  51.2505455
  40.6248101  97.3057856  49.8603630  46.1849044  91.2166640  56.7428872
  46.9174216  90.6465857  56.9766702  45.4288400  90.8288240  57.1835378
  35.4593623  94.1783734  50.2345526  35.3429881  93.5028638  50.9026610
  35.5695883  93.6916108  49.4177679  37.8025164  93.6393881  53.9392215
  37.4383371  93.1124502  54.6505136  38.6592280  93.2492350  53.7658700
  43.7074464  84.9288214  61.2023481  43.3757789  85.7983625  60.9784696
  43.1120078  84.6124498  61.8817511  37.4430651  88.6683781  48.9353563
  37.6105053  89.5364017  49.3024034  37.2527820  88.8311063  48.0114853
  40.2005984  97.1300760  60.6019394  39.9006707  98.0325799  60.4935201
  39.8557043  96.8632943  61.4540547  33.6518465  93.5814557  56.6356098
  32.7268962  93.4490771  56.8433790  33.9002878  94.3608776  57.1326041
  43.6003128  89.6483300  58.2816831  42.6920005  89.5798708  57.9875592
  43.5490723  90.1255245  59.1098657  37.4219871  91.1241438  49.9200230
  37.3019497  91.5698489  50.7585710  36.7272460  91.4726756  49.3613768
  31.0127276  93.2247830  57.4699887  31.1419657  93.4782309  58.3839299
  30.3324728  93.8175538  57.1504542  35.1826764 103.8945080  53.5690361
  35.1050793 104.8452905  53.6478842  34.5788407 103.5490953  54.2265288
  45.4664774  87.8499738  60.0594705  44.8239154  88.1432272  59.4134500
  44.9619703  87.7352659  60.8647902  43.1204938  91.5962912  50.7480564
  44.0322794  91.8290298  50.5728262  42.6114585  92.1799956  50.1855643
  35.9290366  93.8758399  65.7869695  36.6705050  94.4143443  65.5104519
  35.2227351  94.5024688  65.9441247  41.4045705  96.0187539  64.3841857
  41.8129061  95.5769950  63.6396489  40.6822967  95.4440167  64.6376050
  37.7576775  90.9560146  61.7575414  38.6037971  91.3799560  61.9010063
  37.6975413  90.2993771  62.4513977  41.7274520  96.5788730  58.1394146
  41.0983382  96.7434444  57.4370214  41.3400182  96.9930340  58.9105110
  45.6063752  97.5143168  55.4938509  44.9214790  97.8942069  54.9435543
  45.6907601  98.1238495  56.2270457  42.8614683  95.1603127  62.0933853
  43.0731579  95.8034887  61.4168234  42.8144432  94.3265443  61.6255783
  40.4640912  87.7720948  58.9970425  39.6025391  88.0702201  59.2887163
  40.4903347  87.9891346  58.0651458  37.2802482  96.3163138  55.4044231
  37.7440827  96.5950841  54.6148853  37.0159280  95.4146583  55.2217321
  34.1726563  95.8634620  58.3423994  34.7427920  96.2921888  57.7041479
  34.7634675  95.5817204  59.0408180  36.2171368  92.4386291  52.2133796
  36.9195411  92.8907334  52.6807722  35.8851996  91.7970109  52.8413689
  29.9596702  90.6969843  57.5150929  29.1695756  90.9527372  57.0391040
  30.4507949  91.5118181  57.6202970  43.9760511  98.0375082  60.2656210
  44.7977955  97.6355270  59.9838892  43.9722914  97.9343317  61.2172326
  31.9111447  91.0614422  54.4734406  31.1142610  91.1733117  54.9917902
  31.6837039  91.4001075  53.6075297  37.7417115  97.5859126  62.4216921
  37.8061547  98.0479533  63.2575093  37.0328039  96.9556491  62.5499231
  28.2434405  90.9500334  59.9465920  28.4942443  91.8347344  60.2123496
  28.7793953  90.7704935  59.1741012  52.0666504  94.3813831  56.6141182
  51.3130213  93.8121229  56.4585186  52.2014046  94.3476495  57.5611816
  37.4565132  99.2527233  52.2895901  37.3210807 100.0978769  52.7180749
  37.9974945  99.4546511  51.5261835  30.9094530  96.7702671  52.8623826
  31.4219050  97.5645921  53.0129391  31.5617243  96.0728962  52.7957428
  32.7189415  99.8868427  54.9446579  32.8956043 100.8086392  54.7567563
  33.5146248  99.5726847  55.3740959  32.0041771  91.9333059  64.8208743
  31.8895286  91.0318317  65.1215842  31.1486289  92.1796756  64.4693559
  33.8420730 101.4046601  60.9456922  34.3928155 101.2763665  60.1733916
  33.0032206 101.7041490  60.5951815  41.1814847 100.1553600  64.4477645
  41.1633322 100.9762481  63.9557914  42.1034767 100.0307675  64.6727786
  37.6387901  97.6697729  65.2901153  38.1716238  96.9086017  65.0600461
  37.1101982  97.3771381  66.0325307  28.8743447  95.0991325  53.6383397
  29.7118669  95.5088334  53.4217104  29.0521714  94.1590768  53.6083591
  40.7707879  92.7666406  49.3267230  40.2554502  93.5371011  49.5655617
  40.4985187  92.0931542  49.9500291  38.3554990  87.6116107  54.3852468
  37.4996586  87.2222957  54.2058107  38.7681942  87.6908068  53.5252254
  39.8854136  85.1462450  58.7844028  39.3818932  85.1092585  57.9711833
  40.1784743  86.0555193  58.8440685  45.7442153  95.5198761  51.2620403
  44.9671596  95.1809920  50.8175565  46.4233634  95.5251384  50.5875368
  40.5594182  90.6393498  51.1527011  40.2544318  90.9539647  52.0037154
  41.5124624  90.7174918  51.1954344  39.0040614  96.7983722  52.8019965
  38.4761975  96.0636481  52.4893202  38.5028117  97.5758398  52.5559933
  43.9833460  94.9932742  57.9187011  43.3257134  95.6832003  58.0067140
  44.7873859  95.3829174  58.2620998  33.7359341  87.4603388  55.1626576
  34.3103093  87.2378569  54.4299769  34.3230324  87.5292082  55.9155178
  42.7938919  93.3477115  55.9690953  43.3070800  93.9807107  56.4712663
  43.4440143  92.7478310  55.6034313  34.0628929  89.4907849  49.1822462
  33.2266241  89.8282535  49.5031736  33.9233698  89.3556829  48.2449599
  36.0382009  84.3344637  53.8901646  35.3846421  84.0193654  53.2658261
  35.9962483  83.7120377  54.6161469  37.1493214  94.6163932  45.8054938
  36.2420276  94.3853185  46.0046087  37.6464246  93.8201551  45.9928919
  40.0561293 103.3261439  48.7251624  39.3822992 103.6293136  49.3336582
  40.4427115 104.1290519  48.3757081  39.2719749  90.8226570  58.2149293
  38.3542311  91.0441517  58.0570982  39.6879893  90.8972881  57.3561001
  40.0554797  92.2217986  53.3451974  40.8026616  92.7339383  53.0359096
  40.3246387  91.9002039  54.2056367  38.3281447  94.7176527  50.3278928
  37.4192667  94.4335559  50.4251398  38.3576531  95.1375605  49.4682235
  43.5600715  98.3283116  54.0970096  43.1063042  97.4874026  54.1535286
  42.9294682  98.9644515  54.4344876  42.5033634  89.2575102  55.3270763
  41.7656391  88.7452488  55.6581006  42.7560408  88.8175484  54.5154040
  42.0033654 100.1659613  55.0319914  42.2956628 100.7264670  54.3132279
  42.5132275 100.4588174  55.7873073  42.6045262  82.0351354  55.9212532
  42.9104139  81.1748718  55.6338447  43.3297867  82.6268974  55.7211526
  28.8969618  92.4382041  54.3094130  28.6994018  91.8451402  53.5845197
  28.3416282  92.1334251  55.0270069  36.8766341  92.3305147  56.4288723
  36.9314951  91.3778984  56.3531200  36.0657543  92.4864586  56.9130022
  38.0257535  96.2585270  47.6667007  37.5876965  95.5421129  47.2072644
  38.7667976  96.4861385  47.1052098  34.8158701  90.9482207  54.1879102
  34.0026567  91.2476378  54.5944294  35.3117696  90.5537896  54.9053584
  36.9667279 100.9439964  56.1213367  36.9243458 101.1700810  55.1921899
  37.8829978 100.7103339  56.2699168  40.4132913  91.4124031  63.0193996
  40.7682301  91.6395505  63.8788462  41.0605044  91.7442408  62.3971251
  46.1430650  94.5342467  53.7243325  46.0048549  94.7244063  52.7964514
  45.7866869  95.2961850  54.1811376  34.3072776  88.5200563  59.8040337
  34.9472155  88.3789322  59.1063301  33.4750307  88.2335076  59.4278939
  46.1700030  96.6018994  58.7354597  46.6036536  96.5094283  59.5837651
  46.8831610  96.5776495  58.0974613  35.0833080  97.8202993  55.9175330
  35.8773679  97.3253313  55.7157905  34.3724772  97.2920856  55.5543035
  39.9027925 100.2021088  60.2687697  39.9564947 100.7712025  61.0365413
  39.0342706 100.3722974  59.9041734  31.3915844  91.9646075  51.9935082
  30.4613432  91.9030530  52.2105044  31.4873316  91.4422027  51.1971724
  31.3101393  88.4900888  54.5813324  31.5708210  89.4046221  54.4722484
  32.1318565  88.0225330  54.7309937  47.0315579  96.6442695  61.2687482
  47.2251469  97.5488506  61.5146757  46.9316197  96.1850114  62.1026067
  38.8616024  94.3681351  61.8274629  39.7908084  94.5192510  61.6543596
  38.4407054  94.4565371  60.9723276  37.6604356  98.3932015  59.5973167
  37.5215442  98.0250799  60.4699105  36.8718952  98.9079654  59.4257125
  38.2552508 103.4941111  50.9398703  38.4304264 103.0229155  51.7544326
  37.5685296 104.1206878  51.1679964  39.2109571  97.7713618  56.9862005
  38.8759404  97.7314388  57.8819654  38.7113517  97.1058334  56.5132415
  33.1853815  93.1781248  62.5114586  33.0473613  92.4461487  63.1126125
  34.0958739  93.0890148  62.2298773  42.1468763  95.1169652  47.2599064
  41.5297933  94.3916480  47.1632117  41.6785251  95.8779012  46.9166138
  35.8136116  92.8901207  61.9998265  36.5235734  92.2494399  61.9584884
  35.7705424  93.1414102  62.9224446  43.8022894  99.8268560  64.9204845
  43.7435441  99.1427780  64.2535428  44.2042413 100.5687550  64.4685471
  32.8213593 106.6430474  57.7138563  33.0610192 107.2748998  58.3917582
  31.9782790 106.2918514  58.0003923  33.9367309  89.3355076  46.3820368
  33.0596775  89.2143877  46.0182615  34.4125062  88.5441155  46.1299257
  43.8040302  97.7908144  63.1518824  42.9167081  97.4534066  63.2745223
  44.3738853  97.0591176  63.3887590  25.4569449  94.1232236  56.4761876
  26.1440489  93.8093966  55.8882891  25.3017578  95.0273601  56.2029127
  30.2604171  89.0122433  60.9046899  30.1762360  88.4048102  60.1697309
  29.4386877  89.5031451  60.9056396  37.3341455 102.4509597  60.1180067
  37.2611627 103.2564568  60.6299372  36.8918848 102.6501562  59.2928089
  37.1231235 101.6881367  53.6282889  36.3398757 102.2303047  53.7221113
  37.8223980 102.2055346  54.0277130  40.4327885  87.4975996  56.2717094
  40.9296584  86.7445958  55.9518165  39.6614866  87.5340313  55.7060304
  48.2857642  93.2016362  57.9135386  48.2747519  94.0841077  57.5429319
  47.4175022  92.8487912  57.7189923  39.7940139 102.3496431  62.2738226
  40.5068111 102.9843895  62.2014128  39.3030167 102.4460297  61.4578228
  41.5157666  96.2547683  53.8455518  40.5813944  96.3749146  53.6760222
  41.6934334  95.3520150  53.5815528  37.0162854  89.6393379  55.9988779
  36.6460641  89.0864419  56.6869685  37.5121946  89.0351513  55.4463779
  44.9030217  92.0965003  54.3805552  45.3690669  92.9292994  54.3065855
  45.3537717  91.6309984  55.0850810  34.8452052 100.0990874  63.0943797
  35.5461512 100.7327357  63.2473191  34.3747167 100.4405606  62.3339436
  42.9706448  98.4408824  51.3791704  43.2466292  98.3265418  52.2885578
  42.1010947  98.0426309  51.3403877  42.8746880  84.4645590  58.4196453
  41.9609959  84.6949816  58.5878660  43.3039981  84.5484034  59.2710486
  42.6453338  92.6535482  60.9196347  41.9924788  92.9011389  60.2648800
  43.0233718  91.8399620  60.5858825  39.6060512 102.6895175  55.0224518
  39.7882907 101.8716831  55.4852270  40.4293498 102.9062867  54.5849408
  39.9402678 101.6163360  52.2839566  40.4690444 101.1055814  51.6709728
  40.2030897 101.3005890  53.1485099  30.4419770  99.6327229  60.0274900
  31.0273207  98.8870917  60.1602804  30.2444609  99.9431186  60.9111563
  33.2958425 102.6678477  55.0437342  32.6268801 103.1524604  54.5601382
  33.1571295 102.9147697  55.9580721  25.0337425  92.2032829  58.7479343
  25.0721525  91.6696420  59.5416461  24.5277718  91.6768035  58.1290320
  37.4363694 104.7022220  61.6420000  37.9882002 104.8653842  62.4069086
  37.7769888 105.2926658  60.9700025  28.6646003  90.9296932  51.8233274
  28.9599444  90.0207610  51.7700328  27.7634038  90.9084671  51.5014276
  40.5732081 102.6504196  58.6283683  40.4483221 101.8493935  58.1194628
  41.2311172 103.1450389  58.1397652  32.1940250  89.0052928  57.8060823
  31.4726835  89.6188896  57.6668296  32.9833505  89.5410693  57.7277469
  42.6366990 100.4513216  60.2563233  41.6897325 100.3318567  60.1841559
  42.9849763  99.5635714  60.3389494  30.3933844  88.6111029  51.9472599
  30.0646550  87.7308408  51.7647705  30.7473215  88.5558698  52.8348989
  39.6413423 100.2465932  56.4567585  39.4938385  99.3182639  56.6375155
  40.4666917 100.2686023  55.9724660  33.5075667  88.8983999  52.3148077
  33.8471740  89.4269920  51.5926685  33.9547788  89.2364405  53.0906643
  43.2447545 101.0694491  57.5432458  44.1694092 100.8637352  57.4056909
  43.0762848 100.8210892  58.4521799  35.4943814  87.3958621  50.5141370
  36.2152177  87.7739873  50.0105087  34.8709119  88.1147497  50.6176348
  39.6374937  88.1003770  51.4499702  39.8538552  88.9828407  51.1488530
  39.1569005  87.7089983  50.7205344  34.3774159  91.0589483  58.0270447
  34.2318739  91.3729786  58.9194728  33.8999362  91.6774383  57.4741345
  36.2370542  88.0492031  58.0751336  36.2232110  87.1533124  57.7383634
  36.9542970  88.0562695  58.7089622  38.0896672  88.4829371  60.1204464
  37.8314450  89.4046442  60.1188794  37.5581713  88.0859806  60.8104928
  43.0342861 101.5880158  52.8994549  43.2079739 101.0226581  52.1468401
  43.5271752 102.3881053  52.7174039  28.8519821  93.5994827  60.9658108
  28.3073289  94.3754635  61.0978382  29.7299171  93.9465632  60.8077229
  35.6407438  86.9306411  53.3438906  35.7623349  86.0023057  53.5429794
  35.3509480  86.9445097  52.4317222  38.5098628  84.6161321  56.4805626
  38.5320325  84.6800655  55.5257606  38.9266687  83.7765830  56.6746132
  48.8882252  94.3516581  54.5184849  49.3313398  93.6023906  54.1203972
  48.0108763  94.3426717  54.1358581  44.0218034 100.9046922  49.9991447
  44.7168938 101.5253615  50.2178762  44.3641184 100.0542274  50.2743825
  29.6385843  92.7264723  63.8588265  28.8967579  92.8747359  64.4452895
  29.3178587  92.9872989  62.9955014  45.9209457  98.3546628  51.5278778
  46.4460781  98.6933901  50.8028098  45.8331809  97.4193643  51.3441913
  37.5829505 102.2680702  63.6568655  37.8916632 102.0229848  64.5291354
  38.3804987 102.4727340  63.1687525  37.6050117 104.4218611  55.8874031
  37.1655108 103.9294990  56.5806888  38.3558234 103.8791579  55.6466106
  30.0842456 100.6130152  55.8898659  30.9100476 100.3133924  55.5097303
  29.7336508  99.8437775  56.3388448  35.0523990  99.9656620  57.9596333
  34.4303999  99.3027325  57.6598561  35.7228857  99.9917752  57.2769981
  28.2851061  98.5316479  56.8487593  27.4482970  98.1038653  56.6671594
  28.2574707  98.7248922  57.7858384  34.6137497  98.5160544  51.4354793
  34.7625617  99.1996008  50.7821466  35.4203940  98.4965634  51.9504249
  43.0205000  91.8202926  65.4622011  43.9214863  91.6809391  65.1706009
  43.0952975  91.9857381  66.4020189  47.2319435  98.2568940  64.3904726
  46.9404243  98.6198920  65.2268187  46.6191566  97.5435948  64.2118058
  48.4315117  95.8221819  56.9107296  49.2662008  96.2611623  57.0744857
  48.5674246  95.3460473  56.0915542  45.4806623  93.3801554  62.8584784
  45.9560744  93.5729200  62.0503635  44.5572188  93.4360740  62.6128168
  32.3690129  94.5425721  52.4415862  32.1236171  93.6388051  52.6396073
  32.5386044  94.5442872  51.4995340  31.6385777  90.2754079  49.9402024
  30.9455022  90.3498434  49.2842060  31.3937529  89.5114423  50.4623541
  38.1132902 101.0108674  48.9066541  37.5406869 101.6298861  48.4537013
  38.6865696 101.5608036  49.4406463  44.1808292  90.2567314  61.0913090
  45.1325715  90.3565412  61.1125314  44.0111742  89.4645583  61.6011174
  42.2022671  87.3422897  61.2772491  41.6072603  87.6227910  60.5818979
  41.9172368  87.8316798  62.0489232  41.3330162 101.2945824  50.0375123
  42.2660835 101.2291386  50.2407999  41.2453375 102.1302091  49.5789656
  43.9618178 100.6111695  46.9979071  43.8831810 100.2771558  47.8914829
  44.7827845 101.1033463  46.9970543  46.6596370  93.4773434  60.2055389
  46.6272690  92.5389435  60.3915073  47.2696993  93.5557471  59.4721214
  38.4979701  92.3469487  46.2482593  39.4438805  92.2175695  46.3171011
  38.1193945  91.6084149  46.7252022  46.8090858  90.2684477  60.2513673
  46.2929907  89.4842934  60.0643601  47.6930807  89.9403194  60.4160192
  44.4701585  84.0125493  56.2109485  44.2726406  83.7040581  57.0952817
  45.0801291  84.7387132  56.3407415  52.4772920  94.5389441  59.3461426
  53.2076308  94.2774729  59.9069129  51.8679865  93.8018163  59.3863494
  50.5588217  92.6797303  59.9435877  49.8321380  92.5453268  59.3352369
  50.1435504  92.9874132  60.7492595  36.6822618  90.2719463  46.1837479
  35.7754073  89.9752576  46.2600192  36.9598599  89.9749281  45.3171765
  27.6000558  91.5925827  56.6336525  27.2803342  90.7391135  56.3410899
  27.0533986  91.8074405  57.3894492  31.3780466  94.3088268  60.3506032
  31.5966475  95.2405376  60.3694065  31.7906239  93.9496242  61.1360835
  38.2984683  84.8156353  52.3381720  37.4885412  84.4703438  52.7136966
  38.9869100  84.5063897  52.9269331  40.2275232  83.8934400  53.9606017
  40.7806270  84.3129853  54.6196040  40.4645318  82.9670148  54.0028973
  35.4521402  87.1306399  46.3249458  36.3140566  87.4561297  46.5845275
  35.6371746  86.3437894  45.8122524  27.4688818  95.2128738  58.6029647
  26.7752290  94.7982691  58.0899601  28.2161809  95.2549275  58.0063065
  43.6054039  86.0034925  53.4684681  43.0252708  86.6619729  53.0862733
  43.3389971  85.1812270  53.0572098  42.0557605  85.4039983  55.6706001
  42.5557384  85.5156517  54.8620320  42.6993213  85.1001036  56.3106810
  29.3825561  95.1446992  56.4795661  29.3596249  95.2434679  55.5277545
  29.6926197  95.9912143  56.8012828  32.0412938  97.2023147  60.5942276
  32.9956192  97.1707089  60.5272207  31.8425462  96.7413771  61.4092502
  32.6312321  95.7724263  63.1613074  33.4505210  96.2668342  63.1847911
  32.9049128  94.8556231  63.1330641  42.3878917  88.1635015  52.5241029
  41.5004772  88.4484666  52.3061224  42.8032906  88.0028779  51.6768306
  45.7393453  88.1881536  56.2395368  46.5153843  88.6777989  56.5119985
  45.0141587  88.6139591  56.6967238  48.1766012  88.9009156  57.2969309
  48.7710502  88.6604892  56.5862617  48.2492595  88.1816286  57.9242845
  30.3963167 102.7442767  57.6112474  30.2617635 101.9843167  57.0450472
  29.9795230 103.4683666  57.1441263  41.5322130  97.9279690  46.6189049
  42.2357980  98.1329693  47.2346705  40.8084779  98.4956452  46.8838133
  42.3619941  93.6789551  52.7391319  42.3055142  94.1358103  51.8998952
  42.9148283  92.9180236  52.5614162  46.1724746  89.4679283  53.5641439
  45.9161681  89.0675919  54.3949646  45.5477615  90.1823077  53.4391578
  50.4837084  92.2075356  56.0712730  49.9236642  92.2768546  56.8444292
  49.8780588  92.0316341  55.3512226  33.5532293 103.6412084  57.8230916
  33.4364677 104.5857516  57.7209607  32.7324739 103.3385645  58.2116716
  43.4408828  98.3662219  48.6687509  44.2754432  97.9343418  48.4864984
  43.2793171  98.1944233  49.5964404  43.0954720  94.8694333  50.0343848
  43.0403524  94.7038604  49.0932293  42.4700775  95.5770365  50.1906038
  36.4050845  84.3702442  49.6129167  36.3929515  85.3144281  49.7697438
  37.2974267  84.1872587  49.3188628  34.5786807 104.2940345  61.0386845
  35.4814054 104.3263956  61.3553340  34.3524177 103.3640796  61.0533181
  36.3340409 103.0471332  57.6996923  35.3836040 103.0473194  57.5861296
  36.6372895 102.3004067  57.1832958  40.2202965  80.9645218  53.8675104
  39.4535361  80.4103705  54.0131786  40.6313670  81.0367087  54.7289255
  52.0693103 108.8831870  58.7642686  52.7071513 108.7638618  58.0606026
  51.9513946 109.8312714  58.8230638  48.8782809 108.8359298  58.7004211
  48.5401321 108.7200363  57.8124745  49.7472577 108.4350464  58.6805217
  44.7369625 110.6894775  54.6901101  44.1734490 110.5984712  53.9217389
  44.6222020 109.8694679  55.1703594  49.3602592 109.9894150  64.6590416
  49.3491233 109.5946948  63.7870920  49.5223232 109.2560223  65.2524188
  42.2834057 112.1845966  57.5285322  43.0755349 111.8436791  57.1131621
  42.5230707 112.2940942  58.4487475  50.3169183 114.3565743  50.0015566
  49.6657163 114.9419823  49.6149580  51.1113546 114.8871937  50.0610604
  44.2424811 111.4454880  50.4002701  45.0155687 110.8983867  50.2615577
  44.5950209 112.3099129  50.6117162  46.0809853 112.7731262  63.6069600
  45.7899719 113.6776893  63.4916266  46.7166838 112.8147790  64.3213670
  47.0066060 110.1508111  60.1970960  47.6029632 109.9264133  59.4827923
  47.0641032 109.4092856  60.7996408  46.5791088 107.6047546  48.0321151
  46.8316609 107.0829067  47.2704614  45.6415648 107.4413691  48.1347834
  51.6234371 106.6083324  55.8395894  52.4097460 106.1902747  55.4886311
  51.8873076 107.5129416  56.0077542  51.7944449 112.0456175  50.5384551
  51.1590282 112.1190801  51.2505455  51.4641855 112.6349773  49.8603630
  57.0242798 106.5458557  56.7428872  57.7567970 105.9757774  56.9766702
  56.2682154 106.1580158  57.1835378  46.2987377 109.5075652  50.2345526
  46.1823635 108.8320555  50.9026610  46.4089637 109.0208026  49.4177679
  48.6418918 108.9685799  53.9392215  48.2777125 108.4416420  54.6505136
  49.4986034 108.5784268  53.7658700  54.5468219 100.2580132  61.2023481
  54.2151544 101.1275542  60.9784696  53.9513832  99.9416416  61.8817511
  48.2824405 103.9975699  48.9353563  48.4498807 104.8655935  49.3024034
  48.0921574 104.1602980  48.0114853  51.0399738 112.4592678  60.6019394
  50.7400461 113.3617716  60.4935201  50.6950798 112.1924861  61.4540547
  44.4912220 108.9106474  56.6356098  43.5662716 108.7782688  56.8433790
  44.7396633 109.6900694  57.1326041  54.4396882 104.9775218  58.2816831
  53.5313759 104.9090626  57.9875592  54.3884478 105.4547163  59.1098657
  48.2613626 106.4533356  49.9200230  48.1413251 106.8990407  50.7585710
  47.5666214 106.8018674  49.3613768  41.8521031 108.5539748  57.4699887
  41.9813412 108.8074227  58.3839299  41.1718482 109.1467456  57.1504542
  46.0220518 119.2236998  53.5690361  45.9444548 120.1744823  53.6478842
  45.4182162 118.8782870  54.2265288  48.5137748 106.3964863  66.2251728
  47.7371082 106.9558783  66.2154593  49.1528311 106.8821646  66.7466598
  56.3058528 103.1791656  60.0594705  55.6632909 103.4724189  59.4134500
  55.8013457 103.0644576  60.8647902  53.9598692 106.9254829  50.7480564
  54.8716548 107.1582216  50.5728262  53.4508339 107.5091873  50.1855643
  46.7684120 109.2050317  65.7869695  47.5098805 109.7435361  65.5104519
  46.0621106 109.8316605  65.9441247  52.2439460 111.3479457  64.3841857
  52.6522816 110.9061868  63.6396489  51.5216721 110.7732085  64.6376050
  48.5970530 106.2852064  61.7575414  49.4431725 106.7091477  61.9010063
  48.5369168 105.6285688  62.4513977  52.5668274 111.9080648  58.1394146
  51.9377137 112.0726362  57.4370214  52.1793937 112.3222257  58.9105110
  56.4457506 112.8435086  55.4938509  55.7608544 113.2233987  54.9435543
  56.5301356 113.4530412  56.2270457  51.7469975 103.9456432  63.4156587
  51.5030907 104.6998493  62.8790863  52.0229906 104.3241780  64.2503834
  53.7008438 110.4895045  62.0933853  53.9125333 111.1326805  61.4168234
  53.6538186 109.6557361  61.6255783  51.3034667 103.1012865  58.9970425
  50.4419146 103.3994119  59.2887163  51.3297102 103.3183264  58.0651458
  48.1196236 111.6455056  55.4044231  48.5834582 111.9242759  54.6148853
  47.8553034 110.7438500  55.2217321  45.0120317 111.1926537  58.3423994
  45.5821674 111.6213806  57.7041479  45.6028429 110.9109122  59.0408180
  47.0565122 107.7678208  52.2133796  47.7589166 108.2199252  52.6807722
  46.7245751 107.1262027  52.8413689  45.5045484 106.3589965  66.5885005
  44.8744144 107.0406246  66.8220402  45.3981572 106.2473046  65.6438144
  40.7990456 106.0261761  57.5150929  40.0089510 106.2819289  57.0391040
  41.2901704 106.8410099  57.6202970  54.8154266 113.3667000  60.2656210
  55.6371710 112.9647187  59.9838892  54.8116669 113.2635234  61.2172326
  42.7505202 106.3906340  54.4734406  41.9536365 106.5025034  54.9917902
  42.5230794 106.7292992  53.6075297  48.5810869 112.9151043  62.4216921
  48.6455302 113.3771451  63.2575093  47.8721793 112.2848408  62.5499231
  39.0828159 106.2792251  59.9465920  39.3336198 107.1639261  60.2123496
  39.6187708 106.0996853  59.1741012  62.9060259 109.7105749  56.6141182
  62.1523967 109.1413147  56.4585186  63.0407800 109.6768413  57.5611816
  48.2958887 114.5819151  52.2895901  48.1604562 115.4270687  52.7180749
  48.8368699 114.7838428  51.5261835  41.7488284 112.0994589  52.8623826
  42.2612805 112.8937839  53.0129391  42.4010997 111.4020879  52.7957428
  43.5583169 115.2160345  54.9446579  43.7349797 116.1378310  54.7567563
  44.3540003 114.9018764  55.3740959  47.6994188 102.0768610  66.5430513
  48.4403901 102.6775763  66.4634975  47.9312110 101.3346248  65.9848556
  42.8435526 107.2624977  64.8208743  42.7289041 106.3610234  65.1215842
  41.9880043 107.5088674  64.4693559  49.9227363 115.2042717  66.4196243
  49.4791218 114.4179096  66.1017148  50.5844577 115.3921868  65.7540134
  44.6814485 116.7338519  60.9456922  45.2321910 116.6055582  60.1733916
  43.8425960 117.0333408  60.5951815  52.0208601 115.4845517  64.4477645
  52.0027077 116.3054398  63.9557914  52.9428521 115.3599592  64.6727786
  48.4781656 112.9989647  65.2901153  49.0109992 112.2377935  65.0600461
  47.9495737 112.7063299  66.0325307  51.6451351  98.1049713  60.8194795
  51.3015620  98.9951354  60.7433905  52.0130313  97.9151370  59.9564380
  39.7137201 110.4283243  53.6383397  40.5512423 110.8380252  53.4217104
  39.8915469 109.4882685  53.6083591  51.6101633 108.0958324  49.3267230
  51.0948257 108.8662928  49.5655617  51.3378942 107.4223460  49.9500291
  49.1948744 102.9408025  54.3852468  48.3390341 102.5514875  54.2058107
  49.6075696 103.0199985  53.5252254  50.7247891 100.4754368  58.7844028
  50.2212687 100.4384503  57.9711833  51.0178498 101.3847111  58.8440685
  46.9690777 100.5593098  57.7910210  47.8343774 100.3635906  57.4316099
  47.0368286 100.3303449  58.7179566  56.5835907 110.8490678  51.2620403
  55.8065350 110.5101838  50.8175565  57.2627388 110.8543302  50.5875368
  51.3987936 105.9685416  51.1527011  51.0938072 106.2831565  52.0037154
  52.3518379 106.0466836  51.1954344  49.8434368 112.1275639  52.8019965
  49.3155730 111.3928399  52.4893202  49.3421871 112.9050316  52.5559933
  54.8227214 110.3224660  57.9187011  54.1650889 111.0123921  58.0067140
  55.6267614 110.7121092  58.2620998  44.5753096 102.7895306  55.1626576
  45.1496848 102.5670487  54.4299769  45.1624078 102.8584000  55.9155178
  53.6332673 108.6769032  55.9690953  54.1464555 109.3099024  56.4712663
  54.2833897 108.0770228  55.6034313  44.9022683 104.8199767  49.1822462
  44.0659995 105.1574453  49.5031736  44.7627453 104.6848746  48.2449599
  46.8775764  99.6636554  53.8901646  46.2240176  99.3485572  53.2658261
  46.8356238  99.0412295  54.6161469  47.9886968 109.9455849  45.8054938
  47.0814030 109.7145103  46.0046087  48.4858000 109.1493469  45.9928919
  50.8955047 118.6553357  48.7251624  50.2216746 118.9585053  49.3336582
  51.2820869 119.4582437  48.3757081  50.1113504 106.1518488  58.2149293
  49.1936065 106.3733435  58.0570982  50.5273648 106.2264798  57.3561001
  50.8948552 107.5509904  53.3451974  51.6420371 108.0631301  53.0359096
  51.1640141 107.2293956  54.2056367  49.1675202 110.0468444  50.3278928
  48.2586421 109.7627477  50.4251398  49.1970286 110.4667523  49.4682235
  54.3994469 113.6575034  54.0970096  53.9456796 112.8165944  54.1535286
  53.7688436 114.2936432  54.4344876  53.3427389 104.5867020  55.3270763
  52.6050146 104.0744406  55.6581006  53.5954162 104.1467401  54.5154040
  52.8427409 115.4951531  55.0319914  53.1350383 116.0556588  54.3132279
  53.3526029 115.7880092  55.7873073  53.4439016  97.3643272  55.9212532
  53.7497893  96.5040635  55.6338447  54.1691621  97.9560892  55.7211526
  39.7363372 107.7673958  54.3094130  39.5387772 107.1743319  53.5845197
  39.1810036 107.4626169  55.0270069  47.7160096 107.6597065  56.4288723
  47.7708706 106.7070901  56.3531200  46.9051298 107.8156504  56.9130022
  48.8651290 111.5877188  47.6667007  48.4270720 110.8713047  47.2072644
  49.6061731 111.8153303  47.1052098  45.6552456 106.2774125  54.1879102
  44.8420321 106.5768295  54.5944294  46.1511450 105.8829813  54.9053584
  47.8061034 116.2731882  56.1213367  47.7637213 116.4992728  55.1921899
  48.7223733 116.0395256  56.2699168  51.2526668 106.7415949  63.0193996
  51.6076055 106.9687422  63.8788462  51.8998799 107.0734326  62.3971251
  56.9824404 109.8634385  53.7243325  56.8442303 110.0535981  52.7964514
  56.6260623 110.6253768  54.1811376  45.1466531 103.8492480  59.8040337
  45.7865910 103.7081239  59.1063301  44.3144061 103.5626994  59.4278939
  57.0093784 111.9310912  58.7354597  57.4430291 111.8386201  59.5837651
  57.7225365 111.9068413  58.0974613  45.9226835 113.1494911  55.9175330
  46.7167433 112.6545231  55.7157905  45.2118527 112.6212774  55.5543035
  50.7421679 115.5313006  60.2687697  50.7958701 116.1003942  61.0365413
  49.8736460 115.7014891  59.9041734  42.2309598 107.2937992  51.9935082
  41.3007186 107.2322448  52.2105044  42.3267070 106.7713945  51.1971724
  42.1495147 103.8192805  54.5813324  42.4101964 104.7338138  54.4722484
  42.9712319 103.3517248  54.7309937  43.6220072 105.2330562  61.7512149
  44.2943126 105.0247925  61.1024797  42.7949859 105.0352648  61.3117381
  57.8709334 111.9734613  61.2687482  58.0645224 112.8780423  61.5146757
  57.7709952 111.5142032  62.1026067  49.5245644 101.8592503  63.7677809
  48.8773559 102.5582453  63.6742286  50.2946660 102.2928647  64.1354058
  52.9324442 112.1241355  66.8428363  52.7809949 111.8951907  65.9258446
  52.9229122 113.0811957  66.8559708  49.7009779 109.6973268  61.8274629
  50.6301839 109.8484428  61.6543596  49.2800809 109.7857289  60.9723276
  48.4998111 113.7223933  59.5973167  48.3609196 113.3542717  60.4699105
  47.7112707 114.2371572  59.4257125  49.0946263 118.8233029  50.9398703
  49.2698018 118.3521072  51.7544326  48.4079051 119.4498795  51.1679964
  50.0503326 113.1005535  56.9862005  49.7153158 113.0606305  57.8819654
  49.5507271 112.4350251  56.5132415  44.0247570 108.5073165  62.5114586
  43.8867368 107.7753404  63.1126125  44.9352493 108.4182065  62.2298773
  52.9862517 110.4461570  47.2599064  52.3691688 109.7208398  47.1632117
  52.5179006 111.2070930  46.9166138  46.6529870 108.2193125  61.9998265
  47.3629489 107.5786317  61.9584884  46.6099178 108.4706020  62.9224446
  54.6416649 115.1560478  64.9204845  54.5829195 114.4719698  64.2535428
  55.0436167 115.8979468  64.4685471  45.3658804 105.2058343  63.8193905
  44.8296161 104.7549081  64.4715501  44.7775513 105.3404251  63.0764369
  43.6607348 121.9722392  57.7138563  43.9003946 122.6040916  58.3917582
  42.8176544 121.6210432  58.0003923  44.7761063 104.6646994  46.3820368
  43.8990530 104.5435795  46.0182615  45.2518816 103.8733072  46.1299257
  54.6434056 113.1200062  63.1518824  53.7560835 112.7825984  63.2745223
  55.2132607 112.3883093  63.3887590  36.2963203 109.4524154  56.4761876
  36.9834243 109.1385884  55.8882891  36.1411332 110.3565518  56.2029127
  41.0997926 104.3414350  60.9046899  41.0156114 103.7340020  60.1697309
  40.2780632 104.8323369  60.9056396  48.1735210 117.7801514  60.1180067
  48.1005381 118.5856486  60.6299372  47.7312603 117.9793480  59.2928089
  47.9624989 117.0173284  53.6282889  47.1792511 117.5594965  53.7221113
  48.6617734 117.5347264  54.0277130  51.2721639 102.8267914  56.2717094
  51.7690339 102.0737876  55.9518165  50.5008621 102.8632230  55.7060304
  59.1251397 108.5308279  57.9135386  59.1141273 109.4132995  57.5429319
  58.2568776 108.1779830  57.7189923  50.6333893 117.6788348  62.2738226
  51.3461865 118.3135813  62.2014128  50.1423922 117.7752214  61.4578228
  52.3551420 111.5839601  53.8455518  51.4207699 111.7041063  53.6760222
  52.5328089 110.6812068  53.5815528  47.8556608 104.9685297  55.9988779
  47.4854396 104.4156337  56.6869685  48.3515701 104.3643430  55.4463779
  55.7423971 107.4256920  54.3805552  56.2084424 108.2584912  54.3065855
  56.1931472 106.9601902  55.0850810  45.6845807 115.4282792  63.0943797
  46.3855266 116.0619275  63.2473191  45.2140922 115.7697523  62.3339436
  53.8100203 113.7700742  51.3791704  54.0860046 113.6557336  52.2885578
  52.9404701 113.3718226  51.3403877  53.7140634  99.7937507  58.4196453
  52.8003714 100.0241734  58.5878660  54.1433736  99.8775951  59.2710486
  53.4847093 107.9827399  60.9196347  52.8318543 108.2303307  60.2648800
  53.8627473 107.1691537  60.5858825  50.4454267 118.0187092  55.0224518
  50.6276661 117.2008748  55.4852270  51.2687253 118.2354785  54.5849408
  50.7796432 116.9455278  52.2839566  51.3084198 116.4347732  51.6709728
  51.0424652 116.6297808  53.1485099  49.5334666 108.7247210  67.4062384
  48.8575303 108.6241340  68.0764760  50.3562300 108.5686424  67.8698382
  41.2813525 114.9619147  60.0274900  41.8666962 114.2162835  60.1602804
  41.0838363 115.2723104  60.9111563  44.1352180 117.9970394  55.0437342
  43.4662555 118.4816522  54.5601382  43.9965050 118.2439615  55.9580721
  35.8731180 107.5324747  58.7479343  35.9115279 106.9988338  59.5416461
  35.3671472 107.0059953  58.1290320  48.2757449 120.0314138  61.6420000
  48.8275757 120.1945759  62.4069086  48.6163642 120.6218576  60.9700025
  43.2521942 102.3789288  62.2441885  43.3163268 103.2404118  61.8319283
  43.1889062 101.7663289  61.5114244  42.7274214 104.4512420  65.8914919
  43.3546253 104.0689497  66.5052444  41.8702133 104.2326622  66.2570612
  53.1268323 114.8575395  67.4968655  53.6708227 115.4705354  67.0023610
  52.5455168 115.4154974  68.0135668  39.5039757 106.2588849  51.8233274
  39.7993198 105.3499528  51.7700328  38.6027793 106.2376589  51.5014276
  51.4125836 117.9796113  58.6283683  51.2876975 117.1785853  58.1194628
  52.0704927 118.4742307  58.1397652  43.0334004 104.3344846  57.8060823
  42.3120590 104.9480813  57.6668296  43.8227260 104.8702611  57.7277469
  53.4760744 115.7805133  60.2563233  52.5291080 115.6610485  60.1841559
  53.8243517 114.8927631  60.3389494  45.8360318 101.6699272  64.0801474
  46.3594719 101.9161569  64.8427784  45.6172651 102.5019307  63.6604612
  41.2327599 103.9402947  51.9472599  40.9040305 103.0600326  51.7647705
  41.5866969 103.8850616  52.8348989  50.4807178 115.5757850  56.4567585
  50.3332140 114.6474557  56.6375155  51.3060671 115.5977940  55.9724660
  44.3469422 104.2275917  52.3148077  44.6865494 104.7561838  51.5926685
  44.7941542 104.5656323  53.0906643  54.0841299 116.3986408  57.5432458
  55.0087847 116.1929270  57.4056909  53.9156603 116.1502809  58.4521799
  47.0412863 102.6112967  61.7651145  46.7009683 101.8120780  62.1671825
  46.3351869 102.9114678  61.1927978  47.6929334  99.6962280  60.2178468
  48.5155404  99.2222758  60.0957358  47.9367398 100.4752764  60.7177154
  46.3337569 102.7250538  50.5141370  47.0545931 103.1031791  50.0105087
  45.7102873 103.4439415  50.6176348  50.4768692 103.4295687  51.4499702
  50.6932306 104.3120325  51.1488530  49.9962759 103.0381901  50.7205344
  45.2167913 106.3881400  58.0270447  45.0712494 106.7021704  58.9194728
  44.7393117 107.0066301  57.4741345  47.0764296 103.3783948  58.0751336
  47.0625865 102.4825042  57.7383634  47.7936724 103.3854612  58.7089622
  48.9290427 103.8121289  60.1204464  48.6708205 104.7338359  60.1188794
  48.3975467 103.4151723  60.8104928  53.8736616 116.9172076  52.8994549
  54.0473493 116.3518498  52.1468401  54.3665507 117.7172971  52.7174039
  39.6913575 108.9286745  60.9658108  39.1467043 109.7046553  61.0978382
  40.5692925 109.2757549  60.8077229  46.4801192 102.2598329  53.3438906
  46.6017103 101.3314975  53.5429794  46.1903234 102.2737015  52.4317222
  49.3492382  99.9453239  56.4805626  49.3714079 100.0092572  55.5257606
  49.7660441  99.1057748  56.6746132  59.7276007 109.6808499  54.5184849
  60.1707153 108.9315824  54.1203972  58.8502517 109.6718635  54.1358581
  54.8611788 116.2338840  49.9991447  55.5562693 116.8545533  50.2178762
  55.2034938 115.3834191  50.2743825  40.4779597 108.0556641  63.8588265
  39.7361333 108.2039276  64.4452895  40.1572342 108.3164907  62.9955014
  56.7603211 113.6838546  51.5278778  57.2854535 114.0225818  50.8028098
  56.6725564 112.7485561  51.3441913  48.4223260 117.5972619  63.6568655
  48.7310386 117.3521766  64.5291354  49.2198742 117.8019258  63.1687525
  48.4443872 119.7510529  55.8874031  48.0048862 119.2586908  56.5806888
  49.1951989 119.2083497  55.6466106  40.9236211 115.9422070  55.8898659
  41.7494231 115.6425842  55.5097303  40.5730263 115.1729692  56.3388448
  45.8917744 115.2948538  57.9596333  45.2697753 114.6319243  57.6598561
  46.5622611 115.3209670  57.2769981  39.1244816 113.8608396  56.8487593
  38.2876724 113.4330571  56.6671594  39.0968461 114.0540840  57.7858384
  45.9642272 103.7730326  67.5528839  46.0130427 104.6492449  67.1706609
  46.5064786 103.2307719  66.9800482  56.4497117 114.3171449  66.8329976
  55.6592661 114.2995588  66.2934475  56.2130472 114.8559743  67.5879013
  56.5694992 111.1663916  64.1462705  56.6192997 111.0013923  65.0878227
  56.4608916 110.2991175  63.7560585  45.4531251 113.8452461  51.4354793
  45.6019371 114.5287926  50.7821466  46.2597694 113.8257551  51.9504249
  53.8598755 107.1494844  65.4622011  54.7608617 107.0101309  65.1706009
  53.9346729 107.3149299  66.4020189  48.1941560 104.5261698  64.3075198
  47.3244869 104.8195265  64.0357786  48.4301040 105.1102143  65.0282461
  58.0713189 113.5860857  64.3904726  57.7797997 113.9490838  65.2268187
  57.4585320 112.8727866  64.2118058  59.2708871 111.1513737  56.9107296
  60.1055763 111.5903541  57.0744857  59.4068000 110.6752390  56.0915542
  56.3200377 108.7093472  62.8584784  56.7954499 108.9021118  62.0503635
  55.3965943 108.7652658  62.6128168  43.2083884 109.8717639  52.4415862
  42.9629926 108.9679969  52.6396073  43.3779799 109.8734789  51.4995340
  50.8980594 100.7441315  61.8240618  51.4162538 101.4802342  61.4987107
  50.5435727 101.0505309  62.6587377  42.4779532 105.6045997  49.9402024
  41.7848776 105.6790352  49.2842060  42.2331283 104.8406340  50.4623541
  51.1493188  97.1641598  57.3441515  51.4294942  96.4964787  57.9701941
  51.9343795  97.3570694  56.8316178  48.9526657 116.3400592  48.9066541
  48.3800624 116.9590779  48.4537013  49.5259450 116.8899954  49.4406463
  55.0202046 105.5859232  61.0913090  55.9719469 105.6857330  61.1125314
  54.8505497 104.7937500  61.6011174  53.0416426 102.6714815  61.2772491
  52.4466358 102.9519828  60.5818979  52.7566123 103.1608716  62.0489232
  52.1723916 116.6237742  50.0375123  53.1054589 116.5583304  50.2407999
  52.0847129 117.4594009  49.5789656  54.8011933 115.9403612  46.9979071
  54.7225565 115.6063476  47.8914829  55.6221600 116.4325380  46.9970543
  57.4990124 108.8065352  60.2055389  57.4666444 107.8681352  60.3915073
  58.1090748 108.8849388  59.4721214  49.3373455 107.6761405  46.2482593
  50.2832560 107.5467613  46.3171011  48.9587700 106.9376067  46.7252022
  57.6484613 105.5976395  60.2513673  57.1323661 104.8134852  60.0643601
  58.5324561 105.2695112  60.4160192  55.3095340  99.3417411  56.2109485
  55.1120161  99.0332499  57.0952817  55.9195045 100.0679050  56.3407415
  63.3166674 109.8681358  59.3461426  64.0470062 109.6066647  59.9069129
  62.7073619 109.1310080  59.3863494  61.3981971 108.0089221  59.9435877
  60.6715135 107.8745186  59.3352369  60.9829258 108.3166050  60.7492595
  49.2212148 111.7279151  67.7083250  50.1415157 111.9057750  67.9023297
  49.1861731 110.7835196  67.5562950  47.5216372 105.6011381  46.1837479
  46.6147828 105.3044494  46.2600192  47.7992353 105.3041199  45.3171765
  38.4394313 106.9217744  56.6336525  38.1197097 106.0683053  56.3410899
  37.8927741 107.1366323  57.3894492  42.2174220 109.6380185  60.3506032
  42.4360230 110.5697293  60.3694065  42.6299994 109.2788160  61.1360835
  49.1378438 100.1448271  52.3381720  48.3279166  99.7995356  52.7136966
  49.8262855  99.8355814  52.9269331  51.0668986  99.2226318  53.9606017
  51.6200025  99.6421771  54.6196040  51.3039073  98.2962066  54.0028973
  47.0902085 105.2113391  69.7408780  46.9898812 106.1607748  69.6720872
  46.8723627 104.8831630  68.8684851  46.2915157 102.4598316  46.3249458
  47.1534321 102.7853215  46.5845275  46.4765501 101.6729812  45.8122524
  38.3082573 110.5420656  58.6029647  37.6146044 110.1274609  58.0899601
  39.0555564 110.5841192  58.0063065  54.4447793 101.3326843  53.4684681
  53.8646462 101.9911647  53.0862733  54.1783726 100.5104187  53.0572098
  52.8951360 100.7331900  55.6706001  53.3951138 100.8448435  54.8620320
  53.5386968 100.4292953  56.3106810  46.9533355 108.6410530  68.5573842
  46.4700437 109.4410890  68.7637731  47.0394295 108.6518475  67.6041286
  40.2219315 110.4738910  56.4795661  40.1990003 110.5726597  55.5277545
  40.5319952 111.3204060  56.8012828  42.8806693 112.5315065  60.5942276
  43.8349947 112.4999007  60.5272207  42.6819217 112.0705688  61.4092502
  43.4706075 111.1016181  63.1613074  44.2898964 111.5960259  63.1847911
  43.7442883 110.1848149  63.1330641  53.2272671 103.4926933  52.5241029
  52.3398526 103.7776584  52.3061224  53.6426660 103.3320696  51.6768306
  56.5787207 103.5173454  56.2395368  57.3547598 104.0069906  56.5119985
  55.8535342 103.9431508  56.6967238  59.0159766 104.2301073  57.2969309
  59.6104257 103.9896809  56.5862617  59.0886350 103.5108204  57.9242845
  41.2356922 118.0734684  57.6112474  41.1011390 117.3135085  57.0450472
  40.8188984 118.7975584  57.1441263  52.3715885 113.2571608  46.6189049
  53.0751735 113.4621610  47.2346705  51.6478534 113.8248370  46.8838133
  53.2013695 109.0081469  52.7391319  53.1448896 109.4650020  51.8998952
  53.7542038 108.2472154  52.5614162  57.0118501 104.7971201  53.5641439
  56.7555435 104.3967837  54.3949646  56.3871369 105.5114995  53.4391578
  61.3230839 107.5367274  56.0712730  60.7630397 107.6060463  56.8444292
  60.7174342 107.3608259  55.3512226  44.3926048 118.9704001  57.8230916
  44.2758432 119.9149434  57.7209607  43.5718494 118.6677563  58.2116716
  54.2802582 113.6954137  48.6687509  55.1148186 113.2635335  48.4864984
  54.1186925 113.5236151  49.5964404  53.9348474 110.1986250  50.0343848
  53.8797278 110.0330522  49.0932293  53.3094530 110.9062283  50.1906038
  38.7240989 105.4354315  63.8605271  39.3699853 104.9253269  64.3492496
  38.5158140 106.1722996  64.4348696  51.2494382 112.5035162  69.3597411
  52.1185541 112.6775814  68.9984046  50.7701133 113.3229579  69.2373141
  47.2444600  99.6994359  49.6129167  47.2323270 100.6436199  49.7697438
  48.1368022  99.5164505  49.3188628  45.4180562 119.6232263  61.0386845
  46.3207808 119.6555873  61.3553340  45.1917932 118.6932714  61.0533181
  47.1734164 118.3763250  57.6996923  46.2229795 118.3765111  57.5861296
  47.4766650 117.6295984  57.1832958  51.0596719  96.2937136  53.8675104
  50.2929115  95.7395623  54.0131786  51.4707424  96.3659005  54.7289255
  62.9086857 124.2123788  58.7642686  63.5465267 124.0930535  58.0606026
  62.7907700 125.1604632  58.8230638  59.7176564 124.1651216  58.7004211
  59.3795075 124.0492281  57.8124745  60.5866332 123.7642381  58.6805217
  55.5763379 126.0186693  54.6901101  55.0128244 125.9276629  53.9217389
  55.4615774 125.1986597  55.1703594  60.1996347 125.3186068  64.6590416
  60.1884987 124.9238866  63.7870920  60.3616986 124.5852140  65.2524188
  53.1227811 127.5137884  57.5285322  53.9149103 127.1728709  57.1131621
  53.3624461 127.6232859  58.4487475  61.1562938 129.6857660  50.0015566
  60.5050918 130.2711741  49.6149580  61.9507301 130.2163855  50.0610604
  55.0818565 126.7746797  50.4002701  55.8549441 126.2275784  50.2615577
  55.4343964 127.6391047  50.6117162  56.9203608 128.1023180  63.6069600
  56.6293474 129.0068811  63.4916266  57.5560592 128.1439707  64.3213670
  57.8459815 125.4800028  60.1970960  58.4423387 125.2556051  59.4827923
  57.9034786 124.7384774  60.7996408  57.4184843 122.9339464  48.0321151
  57.6710364 122.4120985  47.2704614  56.4809402 122.7705609  48.1347834
  62.4628126 121.9375242  55.8395894  63.2491215 121.5194665  55.4886311
  62.7266830 122.8421334  56.0077542  62.6338203 127.3748092  50.5384551
  61.9984036 127.4482719  51.2505455  62.3035610 127.9641691  49.8603630
  67.8636553 121.8750475  56.7428872  68.5961725 121.3049692  56.9766702
  67.1075909 121.4872076  57.1835378  57.1381132 124.8367569  50.2345526
  57.0217390 124.1612473  50.9026610  57.2483392 124.3499943  49.4177679
  59.4812673 124.2977717  53.9392215  59.1170880 123.7708338  54.6505136
  60.3379789 123.9076186  53.7658700  65.3861973 115.5872049  61.2023481
  65.0545298 116.4567460  60.9784696  64.7907587 115.2708333  61.8817511
  59.1218160 119.3267616  48.9353563  59.2892562 120.1947853  49.3024034
  58.9315329 119.4894898  48.0114853  61.8793493 127.7884595  60.6019394
  61.5794216 128.6909634  60.4935201  61.5344552 127.5216778  61.4540547
  55.3305974 124.2398392  56.6356098  54.4056471 124.1074606  56.8433790
  55.5790387 125.0192611  57.1326041  65.2790637 120.3067135  58.2816831
  64.3707514 120.2382544  57.9875592  65.2278232 120.7839080  59.1098657
  59.1007380 121.7825274  49.9200230  58.9807006 122.2282325  50.7585710
  58.4059969 122.1310591  49.3613768  52.6914785 123.8831666  57.4699887
  52.8207166 124.1366145  58.3839299  52.0112237 124.4759374  57.1504542
  56.8614273 134.5528916  53.5690361  56.7838302 135.5036741  53.6478842
  56.2575916 134.2074788  54.2265288  59.3531502 121.7256781  66.2251728
  58.5764836 122.2850701  66.2154593  59.9922065 122.2113564  66.7466598
  67.1452283 118.5083574  60.0594705  66.5026663 118.8016107  59.4134500
  66.6407211 118.3936494  60.8647902  64.7992447 122.2546747  50.7480564
  65.7110303 122.4874134  50.5728262  64.2902094 122.8383791  50.1855643
  57.6077875 124.5342234  65.7869695  58.3492559 125.0727278  65.5104519
  56.9014860 125.1608523  65.9441247  63.0833214 126.6771375  64.3841857
  63.4916570 126.2353785  63.6396489  62.3610476 126.1024002  64.6376050
  59.4364284 121.6143982  61.7575414  60.2825480 122.0383395  61.9010063
  59.3762922 120.9577606  62.4513977  63.4062029 127.2372565  58.1394146
  62.7770891 127.4018280  57.4370214  63.0187691 127.6514175  58.9105110
  67.2851261 128.1727003  55.4938509  66.6002299 128.5525905  54.9435543
  67.3695110 128.7822330  56.2270457  62.5863730 119.2748350  63.4156587
  62.3424662 120.0290410  62.8790863  62.8623660 119.6533698  64.2503834
  64.5402192 125.8186962  62.0933853  64.7519088 126.4618722  61.4168234
  64.4931941 124.9849279  61.6255783  62.1428421 118.4304783  58.9970425
  61.2812900 118.7286037  59.2887163  62.1690856 118.6475182  58.0651458
  58.9589991 126.9746974  55.4044231  59.4228336 127.2534676  54.6148853
  58.6946789 126.0730418  55.2217321  55.8514072 126.5218455  58.3423994
  56.4215429 126.9505723  57.7041479  56.4422184 126.2401040  59.0408180
  57.8958877 123.0970126  52.2133796  58.5982920 123.5491170  52.6807722
  57.5639505 122.4553945  52.8413689  56.3439238 121.6881882  66.5885005
  55.7137899 122.3698163  66.8220402  56.2375326 121.5764964  65.6438144
  51.6384211 121.3553679  57.5150929  50.8483265 121.6111207  57.0391040
  52.1295458 122.1702016  57.6202970  65.6548020 128.6958918  60.2656210
  66.4765464 128.2939105  59.9838892  65.6510423 128.5927152  61.2172326
  53.5898956 121.7198258  54.4734406  52.7930119 121.8316952  54.9917902
  53.3624548 122.0584910  53.6075297  59.4204624 128.2442961  62.4216921
  59.4849056 128.7063368  63.2575093  58.7115548 127.6140326  62.5499231
  49.9221914 121.6084169  59.9465920  50.1729952 122.4931179  60.2123496
  50.4581462 121.4288771  59.1741012  73.7454013 125.0397666  56.6141182
  72.9917722 124.4705064  56.4585186  73.8801555 125.0060331  57.5611816
  59.1352641 129.9111068  52.2895901  58.9998316 130.7562604  52.7180749
  59.6762454 130.1130346  51.5261835  55.6219981 115.9902648  68.9510256
  55.2286927 115.4368847  69.6257901  56.4386121 116.3013227  69.3416774
  52.5882039 127.4286507  52.8623826  53.1006559 128.2229757  53.0129391
  53.2404752 126.7312797  52.7957428  54.3976924 130.5452263  54.9446579
  54.5743552 131.4670228  54.7567563  55.1933757 130.2310682  55.3740959
  58.5387942 117.4060527  66.5430513  59.2797655 118.0067681  66.4634975
  58.7705865 116.6638165  65.9848556  53.6829280 122.5916895  64.8208743
  53.5682795 121.6902152  65.1215842  52.8273798 122.8380591  64.4693559
  60.7621118 130.5334635  66.4196243  60.3184972 129.7471014  66.1017148
  61.4238331 130.7213786  65.7540134  55.5208239 132.0630437  60.9456922
  56.0715664 131.9347500  60.1733916  54.6819715 132.3625326  60.5951815
  62.8602356 130.8137435  64.4477645  62.8420831 131.6346316  63.9557914
  63.7822276 130.6891510  64.6727786  59.3175410 128.3281564  65.2901153
  59.8503747 127.5669853  65.0600461  58.7889491 128.0355216  66.0325307
  62.4845105 113.4341630  60.8194795  62.1409374 114.3243272  60.7433905
  62.8524068 113.2443288  59.9564380  50.5530956 125.7575161  53.6383397
  51.3906178 126.1672169  53.4217104  50.7309223 124.8174603  53.6083591
  62.4495388 123.4250241  49.3267230  61.9342011 124.1954846  49.5655617
  62.1772696 122.7515378  49.9500291  60.0342499 118.2699942  54.3852468
  59.1784095 117.8806793  54.2058107  60.4469451 118.3491903  53.5252254
  61.5641645 115.8046286  58.7844028  61.0606441 115.7676421  57.9711833
  61.8572252 116.7139028  58.8440685  57.8084531 115.8885015  57.7910210
  58.6737528 115.6927824  57.4316099  57.8762040 115.6595367  58.7179566
  67.4229662 126.1782596  51.2620403  66.6459105 125.8393756  50.8175565
  68.1021143 126.1835219  50.5875368  62.2381691 121.2977334  51.1527011
  61.9331827 121.6123483  52.0037154  63.1912133 121.3758753  51.1954344
  60.6828123 127.4567557  52.8019965  60.1549484 126.7220316  52.4893202
  60.1815626 128.2342233  52.5559933  65.6620969 125.6516577  57.9187011
  65.0044643 126.3415839  58.0067140  66.4661368 126.0413009  58.2620998
  55.4146850 118.1187223  55.1626576  55.9890602 117.8962405  54.4299769
  56.0017833 118.1875918  55.9155178  64.4726428 124.0060950  55.9690953
  64.9858309 124.6390942  56.4712663  65.1227651 123.4062146  55.6034313
  55.7416438 120.1491684  49.1822462  54.9053750 120.4866371  49.5031736
  55.6021207 120.0140664  48.2449599  57.7169518 114.9928472  53.8901646
  57.0633930 114.6777489  53.2658261  57.6749992 114.3704213  54.6161469
  58.8280723 125.2747767  45.8054938  57.9207785 125.0437021  46.0046087
  59.3251755 124.4785386  45.9928919  61.7348802 133.9845274  48.7251624
  61.0610501 134.2876971  49.3336582  62.1214624 134.7874355  48.3757081
  60.9507258 121.4810406  58.2149293  60.0329820 121.7025353  58.0570982
  61.3667402 121.5556716  57.3561001  61.7342306 122.8801821  53.3451974
  62.4814125 123.3923219  53.0359096  62.0033896 122.5585874  54.2056367
  60.0068956 125.3760362  50.3278928  59.0980176 125.0919395  50.4251398
  60.0364040 125.7959441  49.4682235  65.2388224 128.9866952  54.0970096
  64.7850551 128.1457861  54.1535286  64.6082191 129.6228350  54.4344876
  64.1821143 119.9158938  55.3270763  63.4443900 119.4036324  55.6581006
  64.4347917 119.4759319  54.5154040  63.6821163 130.8243448  55.0319914
  63.9744137 131.3848505  54.3132279  64.1919784 131.1172009  55.7873073
  64.2832771 112.6935190  55.9212532  64.5891648 111.8332553  55.6338447
  65.0085376 113.2852810  55.7211526  50.5757127 123.0965876  54.3094130
  50.3781527 122.5035237  53.5845197  50.0203791 122.7918086  55.0270069
  58.5553850 122.9888983  56.4288723  58.6102460 122.0362819  56.3531200
  57.7445052 123.1448422  56.9130022  59.7045044 126.9169106  47.6667007
  59.2664474 126.2004965  47.2072644  60.4455485 127.1445221  47.1052098
  56.4946210 121.6066042  54.1879102  55.6814076 121.9060213  54.5944294
  56.9905205 121.2121731  54.9053584  58.6454788 131.6023799  56.1213367
  58.6030967 131.8284646  55.1921899  59.5617487 131.3687174  56.2699168
  62.0920422 122.0707867  63.0193996  62.4469810 122.2979340  63.8788462
  62.7392553 122.4026244  62.3971251  67.8218159 125.1926303  53.7243325
  67.6836058 125.3827899  52.7964514  67.4654378 125.9545686  54.1811376
  55.9860285 119.1784398  59.8040337  56.6259664 119.0373157  59.1063301
  55.1537816 118.8918911  59.4278939  67.8487539 127.2602830  58.7354597
  68.2824045 127.1678119  59.5837651  68.5619119 127.2360330  58.0974613
  56.7620589 128.4786828  55.9175330  57.5561188 127.9837148  55.7157905
  56.0512281 127.9504691  55.5543035  61.5815434 130.8604924  60.2687697
  61.6352456 131.4295860  61.0365413  60.7130215 131.0306809  59.9041734
  53.0703352 122.6229910  51.9935082  52.1400941 122.5614366  52.2105044
  53.1660824 122.1005863  51.1971724  52.9888902 119.1484723  54.5813324
  53.2495719 120.0630056  54.4722484  53.8106074 118.6809165  54.7309937
  54.4613827 120.5622480  61.7512149  55.1336880 120.3539842  61.1024797
  53.6343613 120.3644566  61.3117381  68.7103088 127.3026530  61.2687482
  68.9038978 128.2072341  61.5146757  68.6103706 126.8433949  62.1026067
  60.3639399 117.1884421  63.7677809  59.7167314 117.8874371  63.6742286
  61.1340414 117.6220565  64.1354058  63.7718197 127.4533273  66.8428363
  63.6203703 127.2243825  65.9258446  63.7622876 128.4103875  66.8559708
  60.5403533 125.0265186  61.8274629  61.4695593 125.1776345  61.6543596
  60.1194563 125.1149207  60.9723276  59.3391865 129.0515850  59.5973167
  59.2002951 128.6834635  60.4699105  58.5506461 129.5663490  59.4257125
  59.9340017 134.1524947  50.9398703  60.1091773 133.6812990  51.7544326
  59.2472805 134.7790713  51.1679964  60.8897080 128.4297453  56.9862005
  60.5546913 128.3898223  57.8819654  60.3901026 127.7642169  56.5132415
  54.8641324 123.8365083  62.5114586  54.7261122 123.1045322  63.1126125
  55.7746248 123.7473983  62.2298773  63.8256272 125.7753487  47.2599064
  63.2085442 125.0500316  47.1632117  63.3572760 126.5362848  46.9166138
  57.4923625 123.5485042  61.9998265  58.2023243 122.9078235  61.9584884
  57.4492933 123.7997937  62.9224446  65.4810403 130.4852396  64.9204845
  65.4222950 129.8011616  64.2535428  65.8829922 131.2271386  64.4685471
  56.2052559 120.5350260  63.8193905  55.6689916 120.0840999  64.4715501
  55.6169267 120.6696169  63.0764369  54.5001102 137.3014310  57.7138563
  54.7397701 137.9332834  58.3917582  53.6570299 136.9502350  58.0003923
  55.6154818 119.9938912  46.3820368  54.7384284 119.8727712  46.0182615
  56.0912571 119.2024990  46.1299257  65.4827811 128.4491980  63.1518824
  64.5954590 128.1117901  63.2745223  66.0526362 127.7175011  63.3887590
  47.1356958 124.7816071  56.4761876  47.8227998 124.4677801  55.8882891
  46.9805087 125.6857436  56.2029127  51.9391680 119.6706268  60.9046899
  51.8549869 119.0631937  60.1697309  51.1174386 120.1615286  60.9056396
  59.0128964 133.1093432  60.1180067  58.9399136 133.9148403  60.6299372
  58.5706357 133.3085398  59.2928089  58.8018744 132.3465202  53.6282889
  58.0186266 132.8886882  53.7221113  59.5011489 132.8639182  54.0277130
  62.1115394 118.1559831  56.2717094  62.6084093 117.4029794  55.9518165
  61.3402375 118.1924148  55.7060304  69.9645151 123.8600197  57.9135386
  69.9535028 124.7424912  57.5429319  69.0962531 123.5071748  57.7189923
  61.4727648 133.0080266  62.2738226  62.1855620 133.6427731  62.2014128
  60.9817676 133.1044132  61.4578228  63.1945175 126.9131519  53.8455518
  62.2601453 127.0332981  53.6760222  63.3721843 126.0103985  53.5815528
  58.6950363 120.2977214  55.9988779  58.3248150 119.7448255  56.6869685
  59.1909455 119.6935348  55.4463779  66.5817726 122.7548838  54.3805552
  67.0478178 123.5876830  54.3065855  67.0325226 122.2893820  55.0850810
  56.5239561 130.7574709  63.0943797  57.2249021 131.3911192  63.2473191
  56.0534676 131.0989441  62.3339436  64.6493957 129.0992659  51.3791704
  64.9253801 128.9849254  52.2885578  63.7798456 128.7010144  51.3403877
  64.5534389 115.1229425  58.4196453  63.6397468 115.3533652  58.5878660
  64.9827490 115.2067869  59.2710486  64.3240847 123.3119317  60.9196347
  63.6712297 123.5595224  60.2648800  64.7021227 122.4983455  60.5858825
  61.2848021 133.3479010  55.0224518  61.4670416 132.5300666  55.4852270
  62.1081007 133.5646702  54.5849408  61.6190187 132.2747195  52.2839566
  62.1477953 131.7639650  51.6709728  61.8818406 131.9589725  53.1485099
  60.3728420 124.0539128  67.4062384  59.6969057 123.9533257  68.0764760
  61.1956054 123.8978342  67.8698382  52.1207279 130.2911065  60.0274900
  52.7060716 129.5454752  60.1602804  51.9232118 130.6015021  60.9111563
  54.9745934 133.3262312  55.0437342  54.3056310 133.8108440  54.5601382
  54.8358804 133.5731532  55.9580721  46.7124934 122.8616665  58.7479343
  46.7509034 122.3280255  59.5416461  46.2065227 122.3351870  58.1290320
  59.1151203 135.3606055  61.6420000  59.6669511 135.5237677  62.4069086
  59.4557397 135.9510493  60.9700025  54.0915696 117.7081205  62.2441885
  54.1557023 118.5696036  61.8319283  54.0282817 117.0955207  61.5114244
  53.5667969 119.7804338  65.8914919  54.1940008 119.3981415  66.5052444
  52.7095888 119.5618540  66.2570612  63.9662077 130.1867313  67.4968655
  64.5101981 130.7997271  67.0023610  63.3848922 130.7446891  68.0135668
  50.3433512 121.5880767  51.8233274  50.6386953 120.6791445  51.7700328
  49.4421547 121.5668506  51.5014276  62.2519590 133.3088031  58.6283683
  62.1270730 132.5077771  58.1194628  62.9098681 133.8034224  58.1397652
  53.8727759 119.6636763  57.8060823  53.1514344 120.2772731  57.6668296
  54.6621014 120.1994528  57.7277469  64.3154499 131.1097051  60.2563233
  63.3684834 130.9902402  60.1841559  64.6637272 130.2219549  60.3389494
  56.6754072 116.9991190  64.0801474  57.1988474 117.2453486  64.8427784
  56.4566405 117.8311225  63.6604612  52.0721353 119.2694865  51.9472599
  51.7434059 118.3892243  51.7647705  52.4260724 119.2142533  52.8348989
  61.3200932 130.9049767  56.4567585  61.1725894 129.9766475  56.6375155
  62.1454426 130.9269858  55.9724660  55.1863176 119.5567834  52.3148077
  55.5259249 120.0853756  51.5926685  55.6335297 119.8948240  53.0906643
  64.9235054 131.7278326  57.5432458  65.8481601 131.5221187  57.4056909
  64.7550357 131.4794727  58.4521799  57.8806617 117.9404885  61.7651145
  57.5403438 117.1412698  62.1671825  57.1745623 118.2406596  61.1927978
  58.5323089 115.0254197  60.2178468  59.3549158 114.5514676  60.0957358
  58.7761152 115.8044681  60.7177154  57.1731323 118.0542456  50.5141370
  57.8939686 118.4323709  50.0105087  56.5496628 118.7731333  50.6176348
  61.3162446 118.7587605  51.4499702  61.5326061 119.6412243  51.1488530
  60.8356513 118.3673818  50.7205344  56.0561668 121.7173318  58.0270447
  55.9106248 122.0313621  58.9194728  55.5786871 122.3358218  57.4741345
  57.9158051 118.7075866  58.0751336  57.9019619 117.8116959  57.7383634
  58.6330479 118.7146530  58.7089622  59.7684181 119.1413206  60.1204464
  59.5101959 120.0630277  60.1188794  59.2369222 118.7443641  60.8104928
  64.7130370 132.2463993  52.8994549  64.8867248 131.6810416  52.1468401
  65.2059261 133.0464888  52.7174039  50.5307330 124.2578663  60.9658108
  49.9860798 125.0338470  61.0978382  51.4086680 124.6049467  60.8077229
  57.3194947 117.5890246  53.3438906  57.4410858 116.6606893  53.5429794
  57.0296989 117.6028932  52.4317222  60.1886137 115.2745157  56.4805626
  60.2107834 115.3384490  55.5257606  60.6054196 114.4349665  56.6746132
  70.5669761 125.0100416  54.5184849  71.0100907 124.2607742  54.1203972
  69.6896272 125.0010553  54.1358581  65.7005543 131.5630758  49.9991447
  66.3956447 132.1837451  50.2178762  66.0428693 130.7126109  50.2743825
  51.3173352 123.3848559  63.8588265  50.5755088 123.5331194  64.4452895
  50.9966096 123.6456824  62.9955014  67.5996966 129.0130463  51.5278778
  68.1248290 129.3517736  50.8028098  67.5119318 128.0777479  51.3441913
  59.2617014 132.9264537  63.6568655  59.5704141 132.6813684  64.5291354
  60.0592496 133.1311175  63.1687525  59.2837626 135.0802447  55.8874031
  58.8442617 134.5878825  56.5806888  60.0345743 134.5375414  55.6466106
  51.7629965 131.2713988  55.8898659  52.5887985 130.9717759  55.5097303
  51.4124017 130.5021610  56.3388448  56.7311499 130.6240456  57.9596333
  56.1091508 129.9611161  57.6598561  57.4016365 130.6501588  57.2769981
  49.9638570 129.1900314  56.8487593  49.1270479 128.7622488  56.6671594
  49.9362216 129.3832757  57.7858384  56.8036026 119.1022244  67.5528839
  56.8524182 119.9784367  67.1706609  57.3458540 118.5599637  66.9800482
  67.2890872 129.6463367  66.8329976  66.4986415 129.6287506  66.2934475
  67.0524226 130.1851661  67.5879013  67.4088747 126.4955833  64.1462705
  67.4586752 126.3305841  65.0878227  67.3002670 125.6283092  63.7560585
  56.2925005 129.1744379  51.4354793  56.4413126 129.8579843  50.7821466
  57.0991449 129.1549469  51.9504249  64.6992509 122.4786761  65.4622011
  65.6002372 122.3393226  65.1706009  64.7740484 122.6441216  66.4020189
  59.0335315 119.8553616  64.3075198  58.1638624 120.1487182  64.0357786
  59.2694795 120.4394061  65.0282461  68.9106944 128.9152775  64.3904726
  68.6191752 129.2782755  65.2268187  68.2979075 128.2019783  64.2118058
  70.1102626 126.4805655  56.9107296  70.9449517 126.9195459  57.0744857
  70.2461755 126.0044308  56.0915542  67.1594132 124.0385390  62.8584784
  67.6348253 124.2313036  62.0503635  66.2359697 124.0944575  62.6128168
  54.0477638 125.2009557  52.4415862  53.8023680 124.2971887  52.6396073
  54.2173553 125.2026707  51.4995340  61.7374348 116.0733233  61.8240618
  62.2556292 116.8094260  61.4987107  61.3829481 116.3797226  62.6587377
  53.3173286 120.9337914  49.9402024  52.6242531 121.0082269  49.2842060
  53.0725038 120.1698258  50.4623541  61.9886943 112.4933516  57.3441515
  62.2688696 111.8256705  57.9701941  62.7737549 112.6862611  56.8316178
  59.7920411 131.6692510  48.9066541  59.2194378 132.2882697  48.4537013
  60.3653205 132.2191871  49.4406463  65.8595801 120.9151150  61.0913090
  66.8113224 121.0149247  61.1125314  65.6899251 120.1229418  61.6011174
  63.8810180 118.0006733  61.2772491  63.2860112 118.2811746  60.5818979
  63.5959877 118.4900634  62.0489232  63.0117671 131.9529660  50.0375123
  63.9448344 131.8875221  50.2407999  62.9240884 132.7885927  49.5789656
  65.6405687 131.2695530  46.9979071  65.5619319 130.9355394  47.8914829
  66.4615354 131.7617298  46.9970543  68.3383879 124.1357269  60.2055389
  68.3060199 123.1973270  60.3915073  68.9484502 124.2141306  59.4721214
  60.1767210 123.0053322  46.2482593  61.1226314 122.8759530  46.3171011
  59.7981454 122.2667984  46.7252022  68.4878367 120.9268313  60.2513673
  67.9717416 120.1426769  60.0643601  69.3718316 120.5987029  60.4160192
  66.1489094 114.6709328  56.2109485  65.9513915 114.3624416  57.0952817
  66.7588800 115.3970967  56.3407415  74.1560429 125.1973276  59.3461426
  74.8863817 124.9358564  59.9069129  73.5467374 124.4601998  59.3863494
  72.2375726 123.3381139  59.9435877  71.5108889 123.2037104  59.3352369
  71.8223013 123.6457967  60.7492595  60.0605902 127.0571068  67.7083250
  60.9808912 127.2349667  67.9023297  60.0255485 126.1127114  67.5562950
  58.3610127 120.9303299  46.1837479  57.4541582 120.6336411  46.2600192
  58.6386108 120.6333117  45.3171765  49.2788067 122.2509662  56.6336525
  48.9590851 121.3974970  56.3410899  48.7321495 122.4658240  57.3894492
  53.0567975 124.9672103  60.3506032  53.2753984 125.8989211  60.3694065
  53.4693748 124.6080077  61.1360835  59.9772192 115.4740188  52.3381720
  59.1672921 115.1287273  52.7136966  60.6656609 115.1647732  52.9269331
  61.9062741 114.5518235  53.9606017  62.4593779 114.9713689  54.6196040
  62.1432827 113.6253983  54.0028973  57.9295840 120.5405309  69.7408780
  57.8292567 121.4899666  69.6720872  57.7117382 120.2123548  68.8684851
  57.1308911 117.7890234  46.3249458  57.9928075 118.1145132  46.5845275
  57.3159255 117.0021730  45.8122524  49.1476327 125.8712574  58.6029647
  48.4539798 125.4566526  58.0899601  49.8949318 125.9133110  58.0063065
  65.2841548 116.6618760  53.4684681  64.7040217 117.3203564  53.0862733
  65.0177480 115.8396105  53.0572098  63.7345114 116.0623818  55.6706001
  64.2344893 116.1740353  54.8620320  64.3780722 115.7584871  56.3106810
  57.7927110 123.9702448  68.5573842  57.3094192 124.7702808  68.7637731
  57.8788049 123.9810393  67.6041286  51.0613070 125.8030827  56.4795661
  51.0383758 125.9018515  55.5277545  51.3713706 126.6495978  56.8012828
  53.7200447 127.8606982  60.5942276  54.6743701 127.8290925  60.5272207
  53.5212971 127.3997606  61.4092502  54.3099830 126.4308098  63.1613074
  55.1292719 126.9252177  63.1847911  54.5836637 125.5140067  63.1330641
  64.0666426 118.8218851  52.5241029  63.1792281 119.1068501  52.3061224
  64.4820415 118.6612614  51.6768306  67.4180962 118.8465372  56.2395368
  68.1941352 119.3361824  56.5119985  66.6929096 119.2723426  56.6967238
  69.8553521 119.5592991  57.2969309  70.4498011 119.3188727  56.5862617
  69.9280104 118.8400121  57.9242845  52.0750676 133.4026602  57.6112474
  51.9405144 132.6427003  57.0450472  51.6582739 134.1267502  57.1441263
  63.2109639 128.5863525  46.6189049  63.9145489 128.7913528  47.2346705
  62.4872288 129.1540287  46.8838133  64.0407450 124.3373387  52.7391319
  63.9842651 124.7941938  51.8998952  64.5935792 123.5764071  52.5614162
  67.8512255 120.1263119  53.5641439  67.5949190 119.7259754  54.3949646
  67.2265123 120.8406912  53.4391578  72.1624593 122.8659192  56.0712730
  71.6024151 122.9352381  56.8444292  71.5568097 122.6900176  55.3512226
  55.2319802 134.2995919  57.8230916  55.1152186 135.2441351  57.7209607
  54.4112248 133.9969480  58.2116716  65.1196337 129.0246055  48.6687509
  65.9541941 128.5927253  48.4864984  64.9580680 128.8528068  49.5964404
  64.7742229 125.5278168  50.0343848  64.7191033 125.3622439  49.0932293
  64.1488284 126.2354201  50.1906038  49.5634744 120.7646232  63.8605271
  50.2093607 120.2545186  64.3492496  49.3551895 121.5014914  64.4348696
  62.0888136 127.8327080  69.3597411  62.9579296 128.0067732  68.9984046
  61.6094888 128.6521497  69.2373141  58.0838354 115.0286277  49.6129167
  58.0717024 115.9728117  49.7697438  58.9761776 114.8456422  49.3188628
  56.2574316 134.9524181  61.0386845  57.1601563 134.9847791  61.3553340
  56.0311686 134.0224632  61.0533181  58.0127918 133.7055167  57.6996923
  57.0623549 133.7057029  57.5861296  58.3160404 132.9587902  57.1832958
  61.8990474 111.6229054  53.8675104  61.1322870 111.0687540  54.0131786
  62.3101179 111.6950922  54.7289255  53.9032235 117.9113849  67.9580285
  54.7663696 117.5550654  68.1683609  53.3297645 117.5727744  68.6455689
  73.7480612 139.5415706  58.7642686  74.3859022 139.4222453  58.0606026
  73.6301455 140.4896550  58.8230638  70.5570318 139.4943134  58.7004211
  70.2188830 139.3784199  57.8124745  71.4260086 139.0934299  58.6805217
  66.4157134 141.3478610  54.6901101  65.8521999 141.2568547  53.9217389
  66.3009529 140.5278515  55.1703594  71.0390101 140.6477986  64.6590416
  71.0278742 140.2530784  63.7870920  71.2010741 139.9144058  65.2524188
  63.9621566 142.8429802  57.5285322  64.7542858 142.5020626  57.1131621
  64.2018216 142.9524777  58.4487475  65.9212320 142.1038715  50.4002701
  66.6943196 141.5567702  50.2615577  66.2737718 142.9682964  50.6117162
  68.6853569 140.8091946  60.1970960  69.2817141 140.5847968  59.4827923
  68.7428541 140.0676691  60.7996408  68.2578597 138.2631381  48.0321151
  68.5104118 137.7412902  47.2704614  67.3203157 138.0997527  48.1347834
  73.3021880 137.2667160  55.8395894  74.0884969 136.8486583  55.4886311
  73.5660585 138.1713252  56.0077542  73.4731958 142.7040010  50.5384551
  72.8377791 142.7774636  51.2505455  73.1429364 143.2933609  49.8603630
  78.7030307 137.2042393  56.7428872  79.4355479 136.6341610  56.9766702
  77.9469663 136.8163993  57.1835378  67.9774886 140.1659487  50.2345526
  67.8611144 139.4904391  50.9026610  68.0877146 139.6791861  49.4177679
  70.3206427 139.6269634  53.9392215  69.9564634 139.1000255  54.6505136
  71.1773543 139.2368103  53.7658700  76.2255728 130.9163967  61.2023481
  75.8939053 131.7859378  60.9784696  75.6301341 130.6000251  61.8817511
  69.9611914 134.6559534  48.9353563  70.1286316 135.5239770  49.3024034
  69.7709083 134.8186816  48.0114853  72.7187247 143.1176513  60.6019394
  72.4187970 144.0201552  60.4935201  72.3738307 142.8508696  61.4540547
  66.1699729 139.5690310  56.6356098  65.2450225 139.4366524  56.8433790
  66.4184142 140.3484529  57.1326041  76.1184391 135.6359053  58.2816831
  75.2101268 135.5674461  57.9875592  76.0671987 136.1130998  59.1098657
  69.9401135 137.1117191  49.9200230  69.8200760 137.5574242  50.7585710
  69.2453723 137.4602509  49.3613768  63.5308540 139.2123583  57.4699887
  63.6600921 139.4658062  58.3839299  62.8505991 139.8051291  57.1504542
  70.1925257 137.0548699  66.2251728  69.4158591 137.6142619  66.2154593
  70.8315820 137.5405482  66.7466598  77.9846037 133.8375491  60.0594705
  77.3420418 134.1308025  59.4134500  77.4800966 133.7228412  60.8647902
  75.6386201 137.5838665  50.7480564  76.5504057 137.8166051  50.5728262
  75.1295848 138.1675709  50.1855643  68.4471629 139.8634152  65.7869695
  69.1886314 140.4019196  65.5104519  67.7408615 140.4900441  65.9441247
  73.9226969 142.0063292  64.3841857  74.3310325 141.5645703  63.6396489
  73.2004230 141.4315920  64.6376050  70.2758039 136.9435899  61.7575414
  71.1219234 137.3675313  61.9010063  70.2156676 136.2869524  62.4513977
  74.2455783 142.5664483  58.1394146  73.6164646 142.7310197  57.4370214
  73.8581446 142.9806093  58.9105110  78.1245015 143.5018921  55.4938509
  77.4396053 143.8817822  54.9435543  78.2088865 144.1114248  56.2270457
  73.4257484 134.6040268  63.4156587  73.1818416 135.3582328  62.8790863
  73.7017415 134.9825615  64.2503834  75.3795947 141.1478880  62.0933853
  75.5912842 141.7910640  61.4168234  75.3325695 140.3141197  61.6255783
  72.9822176 133.7596701  58.9970425  72.1206655 134.0577954  59.2887163
  73.0084611 133.9767100  58.0651458  69.7983745 142.3038891  55.4044231
  70.2622091 142.5826594  54.6148853  69.5340543 141.4022336  55.2217321
  66.6907826 141.8510373  58.3423994  67.2609183 142.2797641  57.7041479
  67.2815938 141.5692957  59.0408180  68.7352631 138.4262044  52.2133796
  69.4376675 138.8783087  52.6807722  68.4033260 137.7845862  52.8413689
  67.1832993 137.0173800  66.5885005  66.5531653 137.6990081  66.8220402
  67.0769081 136.9056882  65.6438144  62.4777965 136.6845596  57.5150929
  61.6877019 136.9403125  57.0391040  62.9689213 137.4993934  57.6202970
  76.4941775 144.0250835  60.2656210  77.3159219 143.6231023  59.9838892
  76.4904178 143.9219070  61.2172326  64.4292711 137.0490175  54.4734406
  63.6323874 137.1608870  54.9917902  64.2018303 137.3876828  53.6075297
  70.2598378 143.5734879  62.4216921  70.3242811 144.0355286  63.2575093
  69.5509302 142.9432244  62.5499231  60.7615668 136.9376087  59.9465920
  61.0123707 137.8223097  60.2123496  61.2975217 136.7580688  59.1741012
  84.5847768 140.3689584  56.6141182  83.8311476 139.7996982  56.4585186
  84.7195309 140.3352248  57.5611816  66.4613736 131.3194566  68.9510256
  66.0680681 130.7660765  69.6257901  67.2779876 131.6305144  69.3416774
  69.3781697 132.7352445  66.5430513  70.1191410 133.3359598  66.4634975
  69.6099619 131.9930083  65.9848556  64.5223035 137.9208812  64.8208743
  64.4076550 137.0194070  65.1215842  63.6667552 138.1672509  64.4693559
  70.1569165 143.6573482  65.2901153  70.6897501 142.8961770  65.0600461
  69.6283246 143.3647134  66.0325307  73.3238860 128.7633548  60.8194795
  72.9803129 129.6535190  60.7433905  73.6917822 128.5735206  59.9564380
  61.3924710 141.0867079  53.6383397  62.2299932 141.4964087  53.4217104
  61.5702978 140.1466521  53.6083591  73.2889142 138.7542159  49.3267230
  72.7735766 139.5246764  49.5655617  73.0166451 138.0807295  49.9500291
  70.8736253 133.5991860  54.3852468  70.0177850 133.2098710  54.2058107
  71.2863205 133.6783821  53.5252254  72.4035400 131.1338203  58.7844028
  71.9000196 131.0968338  57.9711833  72.6966007 132.0430946  58.8440685
  68.6478286 131.2176933  57.7910210  69.5131283 131.0219742  57.4316099
  68.7155795 130.9887285  58.7179566  78.2623416 141.5074514  51.2620403
  77.4852859 141.1685673  50.8175565  78.9414897 141.5127137  50.5875368
  73.0775445 136.6269251  51.1527011  72.7725581 136.9415400  52.0037154
  74.0305888 136.7050671  51.1954344  71.5221877 142.7859475  52.8019965
  70.9943239 142.0512234  52.4893202  71.0209380 143.5634151  52.5559933
  76.5014723 140.9808495  57.9187011  75.8438398 141.6707756  58.0067140
  77.3055123 141.3704927  58.2620998  66.2540605 133.4479141  55.1626576
  66.8284357 133.2254322  54.4299769  66.8411587 133.5167835  55.9155178
  75.3120182 139.3352868  55.9690953  75.8252064 139.9682860  56.4712663
  75.9621406 138.7354063  55.6034313  66.5810192 135.4783602  49.1822462
  65.7447504 135.8158288  49.5031736  66.4414962 135.3432582  48.2449599
  68.5563273 130.3220390  53.8901646  67.9027685 130.0069407  53.2658261
  68.5143747 129.6996130  54.6161469  69.6674477 140.6039685  45.8054938
  68.7601539 140.3728938  46.0046087  70.1645509 139.8077304  45.9928919
  71.7901013 136.8102323  58.2149293  70.8723574 137.0317270  58.0570982
  72.2061157 136.8848634  57.3561001  72.5736061 138.2093739  53.3451974
  73.3207880 138.7215136  53.0359096  72.8427650 137.8877792  54.2056367
  70.8462711 140.7052280  50.3278928  69.9373930 140.4211313  50.4251398
  70.8757795 141.1251358  49.4682235  76.0781978 144.3158869  54.0970096
  75.6244305 143.4749779  54.1535286  75.4475945 144.9520268  54.4344876
  75.0214898 135.2450855  55.3270763  74.2837655 134.7328241  55.6581006
  75.2741671 134.8051237  54.5154040  74.5214918 146.1535366  55.0319914
  74.8137892 146.7140423  54.3132279  75.0313538 146.4463927  55.7873073
  75.1226525 128.0227107  55.9212532  75.4285402 127.1624471  55.6338447
  75.8479130 128.6144727  55.7211526  61.4150881 138.4257794  54.3094130
  61.2175281 137.8327155  53.5845197  60.8597545 138.1210004  55.0270069
  69.3947605 138.3180900  56.4288723  69.4496215 137.3654737  56.3531200
  68.5838807 138.4740339  56.9130022  70.5438799 142.2461023  47.6667007
  70.1058229 141.5296882  47.2072644  71.2849240 142.4737138  47.1052098
  67.3339965 136.9357960  54.1879102  66.5207830 137.2352131  54.5944294
  67.8298959 136.5413649  54.9053584  72.9314177 137.3999785  63.0193996
  73.2863564 137.6271258  63.8788462  73.5786308 137.7318161  62.3971251
  78.6611913 140.5218220  53.7243325  78.5229812 140.7119816  52.7964514
  78.3048132 141.2837603  54.1811376  66.8254040 134.5076316  59.8040337
  67.4653419 134.3665075  59.1063301  65.9931570 134.2210829  59.4278939
  78.6881293 142.5894747  58.7354597  79.1217800 142.4970037  59.5837651
  79.4012874 142.5652248  58.0974613  67.6014344 143.8078746  55.9175330
  68.3954942 143.3129066  55.7157905  66.8906036 143.2796609  55.5543035
  63.9097107 137.9521828  51.9935082  62.9794695 137.8906283  52.2105044
  64.0054579 137.4297780  51.1971724  63.8282656 134.4776641  54.5813324
  64.0889473 135.3921974  54.4722484  64.6499828 134.0101083  54.7309937
  65.3007581 135.8914398  61.7512149  65.9730635 135.6831760  61.1024797
  64.4737368 135.6936484  61.3117381  79.5496843 142.6318448  61.2687482
  79.7432733 143.5364259  61.5146757  79.4497461 142.1725867  62.1026067
  71.2033153 132.5176339  63.7677809  70.5561068 133.2166288  63.6742286
  71.9734169 132.9512483  64.1354058  74.6111951 142.7825191  66.8428363
  74.4597458 142.5535743  65.9258446  74.6016631 143.7395792  66.8559708
  71.3797288 140.3557104  61.8274629  72.3089348 140.5068263  61.6543596
  70.9588318 140.4441124  60.9723276  71.7290835 143.7589371  56.9862005
  71.3940667 143.7190141  57.8819654  71.2294780 143.0934087  56.5132415
  65.7035079 139.1657001  62.5114586  65.5654877 138.4337240  63.1126125
  66.6140002 139.0765901  62.2298773  74.6650026 141.1045405  47.2599064
  74.0479197 140.3792233  47.1632117  74.1966515 141.8654765  46.9166138
  68.3317379 138.8776960  61.9998265  69.0416998 138.2370152  61.9584884
  68.2886687 139.1289855  62.9224446  76.3204158 145.8144313  64.9204845
  76.2616704 145.1303533  64.2535428  76.7223676 146.5563303  64.4685471
  67.0446313 135.8642178  63.8193905  66.5083670 135.4132916  64.4715501
  66.4563022 135.9988087  63.0764369  66.4548572 135.3230829  46.3820368
  65.5778039 135.2019630  46.0182615  66.9306325 134.5316908  46.1299257
  76.3221565 143.7783897  63.1518824  75.4348344 143.4409819  63.2745223
  76.8920116 143.0466929  63.3887590  62.7785435 134.9998186  60.9046899
  62.6943623 134.3923855  60.1697309  61.9568141 135.4907204  60.9056396
  72.9509148 133.4851749  56.2717094  73.4477848 132.7321711  55.9518165
  72.1796130 133.5216066  55.7060304  80.8038906 139.1892115  57.9135386
  80.7928782 140.0716830  57.5429319  79.9356285 138.8363666  57.7189923
  74.0338929 142.2423436  53.8455518  73.0995208 142.3624899  53.6760222
  74.2115598 141.3395903  53.5815528  69.5344117 135.6269132  55.9988779
  69.1641905 135.0740173  56.6869685  70.0303210 135.0227266  55.4463779
  77.4211480 138.0840756  54.3805552  77.8871933 138.9168747  54.3065855
  77.8718981 137.6185737  55.0850810  75.4887712 144.4284577  51.3791704
  75.7647555 144.3141172  52.2885578  74.6192210 144.0302062  51.3403877
  75.3928143 130.4521343  58.4196453  74.4791223 130.6825569  58.5878660
  75.8221245 130.5359787  59.2710486  75.1634602 138.6411235  60.9196347
  74.5106052 138.8887142  60.2648800  75.5414982 137.8275373  60.5858825
  71.2122175 139.3831046  67.4062384  70.5362812 139.2825175  68.0764760
  72.0349809 139.2270259  67.8698382  57.5518688 138.1908582  58.7479343
  57.5902788 137.6572173  59.5416461  57.0458981 137.6643788  58.1290320
  64.9309451 133.0373123  62.2441885  64.9950777 133.8987954  61.8319283
  64.8676571 132.4247125  61.5114244  64.4061723 135.1096255  65.8914919
  65.0333762 134.7273333  66.5052444  63.5489642 134.8910457  66.2570612
  74.8055832 145.5159231  67.4968655  75.3495736 146.1289189  67.0023610
  74.2242677 146.0738809  68.0135668  61.1827266 136.9172685  51.8233274
  61.4780707 136.0083363  51.7700328  60.2815302 136.8960424  51.5014276
  64.7121513 134.9928681  57.8060823  63.9908099 135.6064649  57.6668296
  65.5014769 135.5286446  57.7277469  75.1548253 146.4388969  60.2563233
  74.2078589 146.3194320  60.1841559  75.5031026 145.5511467  60.3389494
  67.5147827 132.3283108  64.0801474  68.0382228 132.5745404  64.8427784
  67.2960160 133.1603142  63.6604612  62.9115108 134.5986782  51.9472599
  62.5827814 133.7184161  51.7647705  63.2654478 134.5434451  52.8348989
  66.0256931 134.8859752  52.3148077  66.3653003 135.4145673  51.5926685
  66.4729051 135.2240158  53.0906643  75.7628808 147.0570244  57.5432458
  76.6875356 146.8513105  57.4056909  75.5944112 146.8086645  58.4521799
  68.7200372 133.2696803  61.7651145  68.3797192 132.4704616  62.1671825
  68.0139378 133.5698514  61.1927978  69.3716843 130.3546115  60.2178468
  70.1942913 129.8806593  60.0957358  69.6154907 131.1336599  60.7177154
  68.0125078 133.3834374  50.5141370  68.7333440 133.7615626  50.0105087
  67.3890382 134.1023250  50.6176348  72.1556201 134.0879523  51.4499702
  72.3719815 134.9704160  51.1488530  71.6750268 133.6965736  50.7205344
  66.8955422 137.0465236  58.0270447  66.7500003 137.3605539  58.9194728
  66.4180626 137.6650136  57.4741345  68.7551805 134.0367784  58.0751336
  68.7413374 133.1408877  57.7383634  69.4724233 134.0438448  58.7089622
  70.6077936 134.4705124  60.1204464  70.3495714 135.3922195  60.1188794
  70.0762976 134.0735559  60.8104928  61.3701084 139.5870580  60.9658108
  60.8254552 140.3630388  61.0978382  62.2480434 139.9341385  60.8077229
  68.1588701 132.9182164  53.3438906  68.2804612 131.9898810  53.5429794
  67.8690743 132.9320850  52.4317222  71.0279891 130.6037075  56.4805626
  71.0501588 130.6676408  55.5257606  71.4447950 129.7641583  56.6746132
  81.4063516 140.3392334  54.5184849  81.8494662 139.5899659  54.1203972
  80.5290026 140.3302470  54.1358581  76.5399297 146.8922676  49.9991447
  77.2350202 147.5129368  50.2178762  76.8822447 146.0418027  50.2743825
  62.1567106 138.7140476  63.8588265  61.4148842 138.8623112  64.4452895
  61.8359851 138.9748742  62.9955014  78.4390720 144.3422381  51.5278778
  78.9642044 144.6809654  50.8028098  78.3513073 143.4069396  51.3441913
  67.6429781 134.4314161  67.5528839  67.6917936 135.3076284  67.1706609
  68.1852295 133.8891554  66.9800482  78.1284626 144.9755285  66.8329976
  77.3380170 144.9579424  66.2934475  77.8917981 145.5143578  67.5879013
  78.2482501 141.8247751  64.1462705  78.2980506 141.6597759  65.0878227
  78.1396425 140.9575010  63.7560585  75.5386264 137.8078679  65.4622011
  76.4396126 137.6685144  65.1706009  75.6134238 137.9733134  66.4020189
  69.8729069 135.1845534  64.3075198  69.0032378 135.4779100  64.0357786
  70.1088549 135.7685979  65.0282461  79.7500698 144.2444693  64.3904726
  79.4585506 144.6074673  65.2268187  79.1372829 143.5311701  64.2118058
  80.9496380 141.8097572  56.9107296  81.7843272 142.2487376  57.0744857
  81.0855509 141.3336226  56.0915542  77.9987886 139.3677307  62.8584784
  78.4742008 139.5604954  62.0503635  77.0753452 139.4236493  62.6128168
  64.8871393 140.5301474  52.4415862  64.6417435 139.6263804  52.6396073
  65.0567308 140.5318625  51.4995340  72.5768103 131.4025151  61.8240618
  73.0950047 132.1386178  61.4987107  72.2223236 131.7089144  62.6587377
  64.1567040 136.2629832  49.9402024  63.4636285 136.3374187  49.2842060
  63.9118792 135.4990176  50.4623541  72.8280697 127.8225433  57.3441515
  73.1082451 127.1548622  57.9701941  73.6131304 128.0154529  56.8316178
  76.6989555 136.2443067  61.0913090  77.6506978 136.3441165  61.1125314
  76.5293006 135.4521336  61.6011174  74.7203935 133.3298651  61.2772491
  74.1253867 133.6103663  60.5818979  74.4353632 133.8192551  62.0489232
  76.4799442 146.5987448  46.9979071  76.4013073 146.2647311  47.8914829
  77.3009109 147.0909216  46.9970543  79.1777633 139.4649187  60.2055389
  79.1453953 138.5265188  60.3915073  79.7878257 139.5433224  59.4721214
  71.0160964 138.3345240  46.2482593  71.9620069 138.2051448  46.3171011
  70.6375209 137.5959902  46.7252022  79.3272122 136.2560230  60.2513673
  78.8111170 135.4718687  60.0643601  80.2112070 135.9278947  60.4160192
  76.9882849 130.0001246  56.2109485  76.7907670 129.6916334  57.0952817
  77.5982554 130.7262885  56.3407415  84.9954183 140.5265194  59.3461426
  85.7257571 140.2650482  59.9069129  84.3861128 139.7893916  59.3863494
  83.0769480 138.6673056  59.9435877  82.3502644 138.5329021  59.3352369
  82.6616767 138.9749885  60.7492595  70.8999657 142.3862986  67.7083250
  71.8202666 142.5641585  67.9023297  70.8649240 141.4419031  67.5562950
  69.2003881 136.2595216  46.1837479  68.2935337 135.9628329  46.2600192
  69.4779862 135.9625034  45.3171765  60.1181822 137.5801580  56.6336525
  59.7984606 136.7266888  56.3410899  59.5715250 137.7950158  57.3894492
  63.8961729 140.2964021  60.3506032  64.1147739 141.2281129  60.3694065
  64.3087503 139.9371995  61.1360835  70.8165947 130.8032106  52.3381720
  70.0066675 130.4579191  52.7136966  71.5050364 130.4939650  52.9269331
  72.7456495 129.8810153  53.9606017  73.2987534 130.3005606  54.6196040
  72.9826582 128.9545901  54.0028973  68.7689594 135.8697227  69.7408780
  68.6686321 136.8191583  69.6720872  68.5511136 135.5415465  68.8684851
  67.9702666 133.1182152  46.3249458  68.8321830 133.4437050  46.5845275
  68.1553010 132.3313647  45.8122524  59.9870082 141.2004491  58.6029647
  59.2933553 140.7858444  58.0899601  60.7343073 141.2425028  58.0063065
  76.1235302 131.9910678  53.4684681  75.5433971 132.6495482  53.0862733
  75.8571235 131.1688023  53.0572098  74.5738869 131.3915736  55.6706001
  75.0738647 131.5032270  54.8620320  75.2174477 131.0876789  56.3106810
  68.6320864 139.2994365  68.5573842  68.1487946 140.0994725  68.7637731
  68.7181804 139.3102310  67.6041286  61.9006824 141.1322745  56.4795661
  61.8777512 141.2310432  55.5277545  62.2107461 141.9787896  56.8012828
  65.1493584 141.7600016  63.1613074  65.9686473 142.2544095  63.1847911
  65.4230392 140.8431984  63.1330641  74.9060180 134.1510768  52.5241029
  74.0186035 134.4360419  52.3061224  75.3214169 133.9904532  51.6768306
  78.2574716 134.1757289  56.2395368  79.0335107 134.6653742  56.5119985
  77.5322851 134.6015344  56.6967238  80.6947275 134.8884909  57.2969309
  81.2891766 134.6480645  56.5862617  80.7673859 134.1692039  57.9242845
  74.0503394 143.9155443  46.6189049  74.7539244 144.1205446  47.2346705
  73.3266043 144.4832205  46.8838133  74.8801204 139.6665304  52.7391319
  74.8236405 140.1233856  51.8998952  75.4329546 138.9055989  52.5614162
  78.6906010 135.4555036  53.5641439  78.4342944 135.0551672  54.3949646
  78.0658878 136.1698830  53.4391578  83.0018348 138.1951109  56.0712730
  82.4417906 138.2644299  56.8444292  82.3961851 138.0192094  55.3512226
  75.9590091 144.3537972  48.6687509  76.7935695 143.9219171  48.4864984
  75.7974434 144.1819986  49.5964404  75.6135983 140.8570086  50.0343848
  75.5584787 140.6914357  49.0932293  74.9882039 141.5646118  50.1906038
  60.4028498 136.0938150  63.8605271  61.0487362 135.5837104  64.3492496
  60.1945649 136.8306832  64.4348696  72.9281891 143.1618997  69.3597411
  73.7973050 143.3359650  68.9984046  72.4488642 143.9813414  69.2373141
  68.9232109 130.3578195  49.6129167  68.9110779 131.3020035  49.7697438
  69.8155531 130.1748340  49.3188628  72.7384228 126.9520971  53.8675104
  71.9716624 126.3979458  54.0131786  73.1494933 127.0242840  54.7289255
  64.7425989 133.2405767  67.9580285  65.6057451 132.8842572  68.1683609
  64.1691400 132.9019662  68.6455689  87.0649482 146.2455885  61.2023481
  86.7332807 147.1151296  60.9784696  86.4695096 145.9292169  61.8817511
  88.8239792 149.1667409  60.0594705  88.1814172 149.4599942  59.4134500
  88.3194720 149.0520329  60.8647902  83.8215930 149.0888618  58.9970425
  82.9600409 149.3869872  59.2887163  83.8478365 149.3059017  58.0651458
  77.3007490 146.6486484  68.9510256  76.9074436 146.0952682  69.6257901
  78.1173630 146.9597062  69.3416774  80.2175451 148.0644363  66.5430513
  80.9585164 148.6651516  66.4634975  80.4493374 147.3222001  65.9848556
  84.1632614 144.0925466  60.8194795  83.8196883 144.9827107  60.7433905
  84.5311577 143.9027123  59.9564380  81.7130008 148.9283778  54.3852468
  80.8571604 148.5390628  54.2058107  82.1256960 149.0075738  53.5252254
  83.2429154 146.4630121  58.7844028  82.7393950 146.4260256  57.9711833
  83.5359761 147.3722864  58.8440685  79.4872040 146.5468851  57.7910210
  80.3525037 146.3511659  57.4316099  79.5549549 146.3179202  58.7179566
  79.3957027 145.6512307  53.8901646  78.7421439 145.3361325  53.2658261
  79.3537501 145.0288048  54.6161469  85.8608652 150.5742773  55.3270763
  85.1231409 150.0620159  55.6581006  86.1135426 150.1343155  54.5154040
  85.9620280 143.3519025  55.9212532  86.2679156 142.4916388  55.6338447
  86.6872885 143.9436645  55.7211526  82.0426908 147.8468256  63.7677809
  81.3954823 148.5458206  63.6742286  82.8127923 148.2804400  64.1354058
  83.7902903 148.8143667  56.2717094  84.2871602 148.0613629  55.9518165
  83.0189884 148.8507983  55.7060304  86.2321898 145.7813260  58.4196453
  85.3184977 146.0117487  58.5878660  86.6614999 145.8651704  59.2710486
  80.2110598 145.6838033  60.2178468  81.0336667 145.2098511  60.0957358
  80.4548661 146.4628517  60.7177154  81.8673646 145.9328992  56.4805626
  81.8895343 145.9968325  55.5257606  82.2841705 145.0933501  56.6746132
  83.4161857 146.7317068  61.8240618  83.9343801 147.4678095  61.4987107
  83.0616990 147.0381062  62.6587377  83.6674451 143.1517351  57.3441515
  83.9476205 142.4840540  57.9701941  84.4525058 143.3446447  56.8316178
  85.5597689 148.6590568  61.2772491  84.9647621 148.9395581  60.5818979
  85.2747386 149.1484469  62.0489232  90.1665876 151.5852148  60.2513673
  89.6504925 150.8010605  60.0643601  91.0505825 151.2570865  60.4160192
  87.8276603 145.3293164  56.2109485  87.6301424 145.0208252  57.0952817
  88.4376309 146.0554803  56.3407415  81.6559701 146.1324024  52.3381720
  80.8460430 145.7871109  52.7136966  82.3444118 145.8231567  52.9269331
  83.5850250 145.2102071  53.9606017  84.1381288 145.6297524  54.6196040
  83.8220336 144.2837819  54.0028973  86.9629057 147.3202596  53.4684681
  86.3827726 147.9787400  53.0862733  86.6964989 146.4979940  53.0572098
  85.4132623 146.7207653  55.6706001  85.9132401 146.8324188  54.8620320
  86.0568231 146.4168706  56.3106810  85.7453935 149.4802686  52.5241029
  84.8579790 149.7652337  52.3061224  86.1607924 149.3196449  51.6768306
  89.0968471 149.5049207  56.2395368  89.8728861 149.9945660  56.5119985
  88.3716605 149.9307261  56.6967238  91.5341030 150.2176826  57.2969309
  92.1285520 149.9772562  56.5862617  91.6067613 149.4983957  57.9242845
  89.5299764 150.7846954  53.5641439  89.2736699 150.3843590  54.3949646
  88.9052632 151.4990748  53.4391578  79.7625863 145.6870112  49.6129167
  79.7504533 146.6311952  49.7697438  80.6549285 145.5040258  49.3188628
  83.5777983 142.2812889  53.8675104  82.8110379 141.7271376  54.0131786
  83.9888688 142.3534758  54.7289255   8.7118086  24.5726322  45.4887992
   9.3496496  24.4533070  44.7851333   8.5938929  25.5207166  45.5475945
   5.5207792  24.5253750  45.4249517   5.1826304  24.4094815  44.5370052
   6.3897561  24.1244915  45.4050523   1.3794608  26.3789227  41.4146408
   0.8159473  26.2879164  40.6462696   1.2647003  25.5589131  41.8948901
   6.0027575  25.6788602  51.3835723   5.9916216  25.2841400  50.5116226
   6.1648215  24.9454675  51.9769494   6.9594167  30.0460194  36.7260873
   6.3082147  30.6314275  36.3394887   7.7538530  30.5766389  36.7855910
   2.7234836  28.4625714  50.3314907   2.4324702  29.3671345  50.2161573
   3.3591821  28.5042241  51.0458976   3.6491043  25.8402562  46.9216266
   4.2454616  25.6158585  46.2073229   3.7066015  25.0987308  47.5241714
   8.2659355  22.2977776  42.5641201   9.0522444  21.8797199  42.2131618
   8.5298059  23.2023868  42.7322849   8.4369432  27.7350626  37.2629857
   7.8015265  27.8085253  37.9750762   8.1066838  28.3244225  36.5848937
  13.6667782  22.2353009  43.4674179  14.3992954  21.6652226  43.7012009
  12.9107137  21.8474610  43.9080685   5.2843901  24.6580251  40.6637521
   4.9202109  24.1310872  41.3750443   6.1411017  24.2678720  40.4904007
  11.1893202  15.9474583  47.9268788  10.8576527  16.8169994  47.7030003
  10.5938815  15.6310867  48.6062818   7.6824722  28.1487129  47.3264700
   7.3825445  29.0512168  47.2180508   7.3375781  27.8819313  48.1785853
  11.0821865  20.6669670  45.0062138  10.1738743  20.5985078  44.7120899
  11.0309461  21.1441615  45.8343963   2.6645501  34.9131450  40.2935668
   2.5869531  35.8639275  40.3724149   2.0607145  34.5677322  40.9510594
   5.1562731  22.0859315  52.9497035   4.3796065  22.6453235  52.9399900
   5.7953294  22.5716098  53.4711905  12.9483512  18.8686108  46.7840012
  12.3057892  19.1618641  46.1379806  12.4438440  18.7539028  47.5893208
  10.6023675  22.6149281  37.4725871  11.5141532  22.8476668  37.2973568
  10.0933322  23.1986325  36.9100949   3.4109103  24.8944769  52.5115002
   4.1523788  25.4329812  52.2349826   2.7046089  25.5211057  52.6686554
   8.8864443  27.0373909  51.1087163   9.2947799  26.5956320  50.3641796
   8.1641705  26.4626537  51.3621356   5.2395513  21.9746516  48.4820720
   6.0856708  22.3985929  48.6255369   5.1794151  21.3180140  49.1759284
   9.2093258  27.5975100  44.8639452   8.5802120  27.7620814  44.1615520
   8.8218920  28.0116709  45.6350416  13.0882490  28.5329537  42.2183816
  12.4033528  28.9128439  41.6680849  13.1726339  29.1424864  42.9515764
   8.3894958  19.6350884  50.1401894   8.1455890  20.3892945  49.6036170
   8.6654889  20.0136232  50.9749141  10.3433421  26.1789496  48.8179160
  10.5550316  26.8221256  48.1413541  10.2963169  25.3451813  48.3501090
   7.9459650  18.7907317  45.7215732   7.0844129  19.0888571  46.0132469
   7.9722085  19.0077716  44.7896764   4.7621220  27.3349508  42.1289537
   5.2259565  27.6137211  41.3394160   4.4978018  26.4332952  41.9462628
   1.6545301  26.8820989  45.0669301   2.2246658  27.3108258  44.4286785
   2.2453413  26.6003574  45.7653486   2.1470467  22.0484417  53.3130312
   1.5169128  22.7300698  53.5465709   2.0406555  21.9367498  52.3683450
  11.4579249  29.0561452  46.9901517  12.2796693  28.6541639  46.7084199
  11.4541652  28.9529686  47.9417633   5.2235853  28.6045495  49.1462227
   5.2880285  29.0665902  49.9820399   4.5146777  27.9742860  49.2744537
  19.5485242  25.4000200  43.3386488  18.7948951  24.8307598  43.1830493
  19.6832783  25.3662865  44.2857123   4.9383870  30.2713603  39.0141208
   4.8029545  31.1165138  39.4426056   5.4793683  30.4732880  38.2507142
   6.5652347  30.8937169  53.1441550   6.1216201  30.1073548  52.8262454
   7.2269560  31.0816320  52.4785441   1.3239468  32.4232971  47.6702228
   1.8746893  32.2950034  46.8979222   0.4850944  32.7227860  47.3197121
   8.6633585  31.1739969  51.1722951   8.6452060  31.9948850  50.6803220
   9.5853505  31.0494044  51.3973092   5.1206639  28.6884099  52.0146460
   5.6534976  27.9272387  51.7845767   4.5920720  28.3957750  52.7570614
  13.2260891  26.5385130  37.9865710  12.4490333  26.1996290  37.5420872
  13.9052372  26.5437754  37.3120675   6.4859352  27.8170091  39.5265272
   5.9580713  27.0822851  39.2138509   5.9846854  28.5944767  39.2805240
  11.4652198  26.0119112  44.6432318  10.8075872  26.7018373  44.7312446
  12.2692597  26.4015544  44.9866304  10.2757656  24.3663484  42.6936260
  10.7889538  24.9993476  43.1957969  10.9258880  23.7664680  42.3279620
   7.5380031  34.3447809  35.4496931   6.8641729  34.6479505  36.0581889
   7.9245853  35.1476889  35.1002388   6.7538487  21.8412940  44.9394600
   5.8361049  22.0627887  44.7816288   7.1698631  21.9159250  44.0806307
   7.5373535  23.2404356  40.0697280   8.2845354  23.7525753  39.7604402
   7.8065125  22.9188408  40.9301674  11.0419453  29.3469486  40.8215402
  10.5881780  28.5060396  40.8780593  10.4113419  29.9830884  41.1590182
   9.9852372  20.2761472  42.0516070   9.2475129  19.7638858  42.3826312
  10.2379146  19.8361853  41.2399347   9.4852392  31.1845982  41.7565220
   9.7775366  31.7451040  41.0377586   9.9951012  31.4774543  42.5118379
   4.3585079  23.3491517  43.1534030   4.4133689  22.3965353  43.0776507
   3.5476281  23.5050956  43.6375328   2.2977439  21.9668577  40.9124409
   1.4845305  22.2662747  41.3189601   2.7936433  21.5724265  41.6298891
   4.4486017  31.9626334  42.8458674   4.4062196  32.1887180  41.9167206
   5.3648716  31.7289708  42.9944475   7.8951651  22.4310401  49.7439303
   8.2501039  22.6581874  50.6033769   8.5423782  22.7628778  49.1216558
  13.6249388  25.5528837  40.4488632  13.4867286  25.7430433  39.5209821
  13.2685607  26.3148220  40.9056683  13.6518767  27.6205364  45.4599903
  14.0855274  27.5280653  46.3082957  14.3650348  27.5962864  44.8219919
   2.5651818  28.8389363  42.6420636   3.3592416  28.3439683  42.4403211
   1.8543510  28.3107226  42.2788342   7.3846662  31.2207458  46.9933004
   7.4383685  31.7898394  47.7610720   6.5161444  31.3909343  46.6287041
  14.5134317  27.6629065  47.9932789  14.7070207  28.5674875  48.2392064
  14.4134935  27.2036484  48.8271374   6.1670628  17.5486955  50.4923116
   5.5198543  18.2476905  50.3987592   6.9371643  17.9823099  50.8599364
   9.5749426  27.8135807  53.5673669   9.4234932  27.5846359  52.6503753
   9.5654105  28.7706409  53.5805014   6.3434762  25.3867720  48.5519936
   7.2726822  25.5378880  48.3788903   5.9225792  25.4751741  47.6968582
   5.1423094  29.4118385  46.3218473   5.0034180  29.0437169  47.1944411
   4.3537690  29.9266024  46.1502431   5.7371246  34.5127481  37.6644010
   5.9123001  34.0415524  38.4789633   5.0504034  35.1393247  37.8925271
   6.6928309  28.7899987  43.7107311   6.3578142  28.7500757  44.6064961
   6.1932255  28.1244703  43.2377721   0.6672553  24.1967617  49.2359892
   0.5292351  23.4647856  49.8371431   1.5777476  24.1076517  48.9544080
   3.2954854  23.9087577  48.7243572   4.0054472  23.2680769  48.6830190
   3.2524162  24.1600471  49.6469753  11.2841632  30.8454930  51.6450151
  11.2254178  30.1614150  50.9780734  11.6861151  31.5873920  51.1930777
   2.0083788  20.8952794  50.5439211   1.4721145  20.4443533  51.1960808
   1.4200496  21.0298703  49.8009676  11.2859040  28.8094514  49.8764131
  10.3985818  28.4720436  49.9990530  11.8557591  28.0777545  50.1132896
   4.8160193  33.4695966  46.8425374   4.7430364  34.2750938  47.3544679
   4.3737586  33.6687932  46.0173395   4.6049973  32.7067736  40.3528196
   3.8217494  33.2489416  40.4466420   5.3042718  33.2241716  40.7522437
   7.9146623  18.5162366  42.9962401   8.4115322  17.7632328  42.6763471
   7.1433604  18.5526682  42.4305610  15.7676380  24.2202731  44.6380692
  15.7566256  25.1027447  44.2674626  14.8993760  23.8674282  44.4435230
   7.2758876  33.3682800  48.9983533   7.9886849  34.0030265  48.9259434
   6.7848905  33.4646666  48.1823535   8.9976403  27.2734053  40.5700824
   8.0632682  27.3935515  40.4005529   9.1753072  26.3706520  40.3060834
   4.4981591  20.6579749  42.7234086   4.1279379  20.1050789  43.4114991
   4.9940684  20.0537882  42.1709086  12.3848955  23.1151372  41.1050859
  12.8509407  23.9479364  41.0311161  12.8356455  22.6496354  41.8096117
   2.3270790  31.1177244  49.8189104   3.0280250  31.7513727  49.9718498
   1.8565905  31.4591975  49.0584743  10.4525186  29.4595193  38.1037011
  10.7285030  29.3451788  39.0130885   9.5829685  29.0612678  38.0649184
  10.3565617  15.4831959  45.1441760   9.4428697  15.7136186  45.3123967
  10.7858719  15.5670403  45.9955792  10.1272076  23.6721851  47.6441654
   9.4743526  23.9197759  46.9894107  10.5052456  22.8585989  47.3104131
   7.0879250  33.7081544  41.7469824   7.2701644  32.8903200  42.2097577
   7.9112236  33.9249237  41.3094714   7.4221415  32.6349729  39.0084873
   7.9509182  32.1242184  38.3955035   7.6849635  32.3192260  39.8730406
   6.1759649  24.4141662  54.1307691   5.5000286  24.3135792  54.8010066
   6.9987283  24.2580876  54.5943688   4.9182432  35.7208590  48.3665307
   5.4700740  35.8840211  49.1314392   5.2588625  36.3113027  47.6945332
   9.7693306  30.5469847  54.2213961  10.3133210  31.1599805  53.7268916
   9.1880151  31.1049426  54.7380974   8.0550819  33.6690565  45.3528989
   7.9301959  32.8680305  44.8439935   8.7129910  34.1636759  44.8642959
  10.1185728  31.4699585  46.9808539   9.1716063  31.3504936  46.9086866
  10.4668501  30.5822083  47.0634801   7.1232161  31.2652301  43.1812891
   6.9757123  30.3369009  43.3620461   7.9485654  31.2872392  42.6969967
  10.7266283  32.0880860  44.2677764  11.6512830  31.8823722  44.1302215
  10.5581586  31.8397261  45.1767106   1.8592897  22.0775852  44.7515753
   1.7137477  22.3916155  45.6440035   1.3818100  22.6960753  44.1986652
   5.5715410  19.5015741  46.8449770   5.3133188  20.4232811  46.8434101
   5.0400451  19.1046175  47.5350234  10.5161599  32.6066528  39.6239856
  10.6898476  32.0412950  38.8713708  11.0090490  33.4067423  39.4419346
  16.3700990  25.3702951  41.2430155  16.8132136  24.6210276  40.8449279
  15.4927500  25.3613087  40.8603887  11.5036771  31.9233292  36.7236754
  12.1987676  32.5439985  36.9424069  11.8459922  31.0728643  36.9989132
  13.4028195  29.3732998  38.2524085  13.9279519  29.7120270  37.5273405
  13.3150547  28.4380013  38.0687219   5.0648243  33.2867071  50.3813961
   5.3735370  33.0416218  51.2536661   5.8623725  33.4913710  49.8932832
   5.0868855  35.4404981  42.6119338   4.6473846  34.9481360  43.3052195
   5.8376972  34.8977949  42.3711413   2.5342727  30.9842990  44.6841640
   1.9122737  30.3213695  44.3843867   3.2047594  31.0104122  44.0015287
  13.0922101  30.0065901  53.5575283  12.3017644  29.9890040  53.0179782
  12.8555455  30.5454195  54.3124319  13.2119976  26.8558368  50.8708011
  13.2617981  26.6908375  51.8123534  13.1033899  25.9885627  50.4805892
   2.0956234  29.5346913  38.1600100   2.2444355  30.2182378  37.5066773
   2.9022678  29.5152003  38.6749556  10.5023738  22.8389296  52.1867318
  11.4033601  22.6995760  51.8951316  10.5771713  23.0043750  53.1265495
   4.8366543  20.2156150  51.0320504   3.9669853  20.5089716  50.7603093
   5.0726024  20.7996595  51.7527768  14.7138172  29.2755309  51.1150033
  14.4222981  29.6385290  51.9513494  14.1010304  28.5622317  50.9363365
  15.9133855  26.8408189  43.6352603  16.7480746  27.2797993  43.7990163
  16.0492984  26.3646842  42.8160849  12.9625361  24.3987924  49.5830091
  13.4379482  24.5915570  48.7748942  12.0390926  24.4547110  49.3373474
   7.5405577  16.4335767  48.5485925   8.0587521  17.1696794  48.2232413
   7.1860710  16.7399761  49.3832684   5.5951640  32.0295044  35.6311848
   5.0225607  32.6485231  35.1782319   6.1684434  32.5794405  36.1651769
  11.6627030  21.2753684  47.8158396  12.6144453  21.3751781  47.8370620
  11.4930480  20.4831952  48.3256481   9.6841409  18.3609267  48.0017797
   9.0891341  18.6414280  47.3064286   9.3991106  18.8503168  48.7734538
   8.8148900  32.3132194  36.7620430   9.7479573  32.2477756  36.9653305
   8.7272112  33.1488461  36.3034962  11.4436916  31.6298064  33.7224377
  11.3650548  31.2957928  34.6160135  12.2646583  32.1219832  33.7215850
  14.1415107  24.4959804  46.9300696  14.1091428  23.5575804  47.1160380
  14.7515731  24.5743840  46.1966521  14.2909596  21.2870847  46.9758979
  13.7748645  20.5029304  46.7888908  15.1749544  20.9589564  47.1405499
  11.9520323  15.0311863  42.9354792  11.7545144  14.7226951  43.8198124
  12.5620028  15.7573501  43.0652722  19.9591657  25.5575810  46.0706733
  20.6895046  25.2961098  46.6314436  19.3498603  24.8204532  46.1108801
  18.0406954  23.6983673  46.6681184  17.3140118  23.5639638  46.0597676
  17.6254241  24.0060502  47.4737902   5.8637131  27.4173603  54.4328557
   6.7840140  27.5952202  54.6268604   5.8286714  26.4729648  54.2808256
   3.7327069  20.9007843  56.4654087   3.6323796  21.8502200  56.3966178
   3.5148611  20.5726082  55.5930157   9.5376343  16.4226352  42.3951308
  10.0376121  16.5342887  41.5865627  10.1811951  16.1187405  43.0352116
   3.5958339  24.3304982  55.2819149   3.1125420  25.1305342  55.4883038
   3.6819278  24.3412927  54.3286593  13.2212191  19.2067906  42.9640675
  13.9972581  19.6964358  43.2365292  12.4960325  19.6325960  43.4212544
  15.6584749  19.9195525  44.0214616  16.2529240  19.6791261  43.3107924
  15.7311333  19.2002656  44.6488152   9.8438678  24.6975921  39.4636626
   9.7873880  25.1544472  38.6244258  10.3967021  23.9366605  39.2859469
  13.6543484  20.4865653  40.2886745  13.3980418  20.0862288  41.1194953
  13.0296352  21.2009447  40.1636885  17.9655822  23.2261726  42.7958037
  17.4055380  23.2954915  43.5689599  17.3599325  23.0502711  42.0757533
  10.9227565  29.3848589  35.3932816  11.7573169  28.9529787  35.2110291
  10.7611908  29.2130603  36.3209710  10.5773458  25.8880702  36.7589155
  10.5222261  25.7224974  35.8177599   9.9519513  26.5956735  36.9151345
   7.8919365  28.1929614  56.0842718   8.7610524  28.3670266  55.7229353
   7.4126116  29.0124031  55.9618447   2.0605545  35.3126715  47.7632151
   2.9632792  35.3450325  48.0798646   1.8342915  34.3827166  47.7778487
   3.8159147  34.0657702  44.4242230   2.8654778  34.0659563  44.3106602
   4.1191633  33.3190436  43.9078265  19.5511841  39.9018240  45.4887992
  20.1890251  39.7824987  44.7851333  19.4332683  40.8499084  45.5475945
  16.3601547  39.8545668  45.4249517  16.0220058  39.7386733  44.5370052
  17.2291315  39.4536833  45.4050523  12.2188363  41.7081144  41.4146408
  11.6553228  41.6171081  40.6462696  12.1040758  40.8881049  41.8948901
  16.8421330  41.0080520  51.3835723  16.8309971  40.6133318  50.5116226
  17.0041969  40.2746592  51.9769494   9.7652794  43.2032336  44.2530629
  10.5574086  42.8623161  43.8376928  10.0049445  43.3127311  45.1732782
  17.7987921  45.3752112  36.7260873  17.1475901  45.9606193  36.3394887
  18.5932284  45.9058307  36.7855910  11.7243548  42.4641249  37.1248007
  12.4974424  41.9170236  36.9860883  12.0768947  43.3285499  37.3362469
  13.5628591  43.7917632  50.3314907  13.2718457  44.6963262  50.2161573
  14.1985575  43.8334159  51.0458976  14.4884798  41.1694480  46.9216266
  15.0848370  40.9450502  46.2073229  14.5459769  40.4279226  47.5241714
  14.0609826  38.6233915  34.7566457  14.3135347  38.1015437  33.9949920
  13.1234385  38.4600061  34.8593141  19.1053109  37.6269694  42.5641201
  19.8916198  37.2089117  42.2131618  19.3691813  38.5315786  42.7322849
  19.2763186  43.0642544  37.2629857  18.6409019  43.1377171  37.9750762
  18.9460593  43.6536143  36.5848937  24.5061536  37.5644927  43.4674179
  25.2386708  36.9944144  43.7012009  23.7500892  37.1766527  43.9080685
  13.7806115  40.5262021  36.9590832  13.6642373  39.8506925  37.6271917
  13.8908375  40.0394395  36.1422985  16.1237656  39.9872168  40.6637521
  15.7595863  39.4602789  41.3750443  16.9804772  39.5970638  40.4904007
  22.0286957  31.2766501  47.9268788  21.6970281  32.1461912  47.7030003
  21.4332570  30.9602785  48.6062818  15.7643143  35.0162068  35.6598870
  15.9317545  35.8842305  36.0269341  15.5740312  35.1789350  34.7360159
  18.5218476  43.4779047  47.3264700  18.2219199  44.3804086  47.2180508
  18.1769536  43.2111230  48.1785853  11.9730958  39.9292844  43.3601405
  11.0481454  39.7969058  43.5679097  12.2215371  40.7087063  43.8571347
  21.9215620  35.9961587  45.0062138  21.0132497  35.9276996  44.7120899
  21.8703216  36.4733532  45.8343963  15.7432364  37.4719726  36.6445537
  15.6231989  37.9176776  37.4831017  15.0484952  37.8205043  36.0859075
   9.3339769  39.5726117  44.1945194   9.4632150  39.8260596  45.1084606
   8.6537220  40.1653825  43.8749849  13.5039256  50.2423367  40.2935668
  13.4263286  51.1931193  40.3724149  12.9000899  49.8969240  40.9510594
  15.9956486  37.4151233  52.9497035  15.2189820  37.9745153  52.9399900
  16.6347049  37.9008016  53.4711905  23.7877266  34.1978026  46.7840012
  23.1451646  34.4910559  46.1379806  23.2832195  34.0830946  47.5893208
  21.4417430  37.9441199  37.4725871  22.3535286  38.1768586  37.2973568
  20.9327077  38.5278243  36.9100949  14.2502858  40.2236686  52.5115002
  14.9917542  40.7621730  52.2349826  13.5439843  40.8502975  52.6686554
  19.7258198  42.3665827  51.1087163  20.1341554  41.9248237  50.3641796
  19.0035459  41.7918454  51.3621356  16.0789268  37.3038433  48.4820720
  16.9250463  37.7277847  48.6255369  16.0187905  36.6472058  49.1759284
  20.0487012  42.9267017  44.8639452  19.4195875  43.0912731  44.1615520
  19.6612674  43.3408627  45.6350416  23.9276244  43.8621455  42.2183816
  23.2427282  44.2420357  41.6680849  24.0120093  44.4716782  42.9515764
  19.2288713  34.9642802  50.1401894  18.9849645  35.7184862  49.6036170
  19.5048643  35.3428149  50.9749141  21.1827176  41.5081414  48.8179160
  21.3944071  42.1513174  48.1413541  21.1356924  40.6743731  48.3501090
  18.7853405  34.1199235  45.7215732  17.9237884  34.4180488  46.0132469
  18.8115839  34.3369634  44.7896764  15.6014974  42.6641425  42.1289537
  16.0653320  42.9429128  41.3394160  15.3371772  41.7624870  41.9462628
  12.4939055  42.2112907  45.0669301  13.0640412  42.6400175  44.4286785
  13.0847167  41.9295492  45.7653486  14.5383860  38.7864578  38.9379103
  15.2407903  39.2385621  39.4053029  14.2064489  38.1448397  39.5658996
  12.9864222  37.3776334  53.3130312  12.3562882  38.0592615  53.5465709
  12.8800310  37.2659416  52.3683450   8.2809194  37.0448130  44.2396236
   7.4908248  37.3005659  43.7636347   8.7720441  37.8596468  44.3448277
  22.2973004  44.3853370  46.9901517  23.1190447  43.9833557  46.7084199
  22.2935407  44.2821604  47.9417633  10.2323939  37.4092710  41.1979713
   9.4355103  37.5211404  41.7163209  10.0049532  37.7479362  40.3320603
  16.0629607  43.9337413  49.1462227  16.1274040  44.3957820  49.9820399
  15.3540531  43.3034778  49.2744537   6.5646897  37.2978621  46.6711227
   6.8154936  38.1825631  46.9368803   7.1006445  37.1183222  45.8986319
  30.3878997  40.7292118  43.3386488  29.6342705  40.1599516  43.1830493
  30.5226538  40.6954783  44.2857123  15.7777625  45.6005520  39.0141208
  15.6423300  46.4457056  39.4426056  16.3187437  45.8024798  38.2507142
  12.2644964  31.6797100  55.6755563  11.8711910  31.1263299  56.3503207
  13.0811105  31.9907679  56.0662081   9.2307022  43.1180958  39.5869133
   9.7431543  43.9124209  39.7374698   9.8829735  42.4207249  39.5202734
  11.0401907  46.2346715  41.6691886  11.2168535  47.1564679  41.4812870
  11.8358740  45.9205134  42.0986266  15.1812925  33.0954979  53.2675820
  15.9222639  33.6962132  53.1880282  15.4130848  32.3532617  52.7093862
  10.3254263  38.2811347  51.5454049  10.2107779  37.3796604  51.8461148
   9.4698781  38.5275043  51.1938866  17.4046101  46.2229087  53.1441550
  16.9609955  45.4365465  52.8262454  18.0663315  46.4108237  52.4785441
  12.1633222  47.7524888  47.6702228  12.7140647  47.6241952  46.8979222
  11.3244698  48.0519778  47.3197121  19.5027339  46.5031887  51.1722951
  19.4845815  47.3240768  50.6803220  20.4247259  46.3785962  51.3973092
  15.9600393  44.0176016  52.0146460  16.4928730  43.2564304  51.7845767
  15.4314474  43.7249668  52.7570614  19.1270088  29.1236082  47.5440101
  18.7834358  30.0137724  47.4679212  19.4949051  28.9337740  46.6809686
   7.1955939  41.4469613  40.3628703   8.0331161  41.8566621  40.1462411
   7.3734207  40.5069055  40.3328897  19.0920371  39.1144693  36.0512536
  18.5766995  39.8849298  36.2900924  18.8197680  38.4409830  36.6745598
  16.6767482  33.9594394  41.1097775  15.8209078  33.5701245  40.9303413
  17.0894434  34.0386355  40.2497560  18.2066629  31.4940737  45.5089334
  17.7031424  31.4570873  44.6957140  18.4997236  32.4033480  45.5685991
  14.4509515  31.5779467  44.5155516  15.3162511  31.3822276  44.1561406
  14.5187024  31.3489819  45.4424873  24.0654645  41.8677048  37.9865710
  23.2884088  41.5288208  37.5420872  24.7446126  41.8729671  37.3120675
  18.8806674  36.9871785  37.8772318  18.5756810  37.3017935  38.7282461
  19.8337116  37.0653205  37.9199651  17.3253106  43.1462009  39.5265272
  16.7974468  42.4114768  39.2138509  16.8240609  43.9236685  39.2805240
  22.3045952  41.3411029  44.6432318  21.6469627  42.0310291  44.7312446
  23.1086351  41.7307461  44.9866304  12.0571834  33.8081675  41.8871883
  12.6315586  33.5856857  41.1545076  12.6442816  33.8770370  42.6400484
  21.1151411  39.6955402  42.6936260  21.6283293  40.3285394  43.1957969
  21.7652635  39.0956597  42.3279620  12.3841421  35.8386136  35.9067768
  11.5478733  36.1760823  36.2277043  12.2446190  35.7035116  34.9694905
  14.3594501  30.6822924  40.6146952  13.7058914  30.3671941  39.9903567
  14.3174976  30.0598664  41.3406775  15.4705706  40.9642219  32.5300245
  14.5632768  40.7331472  32.7291394  15.9676738  40.1679838  32.7174226
  18.3773785  49.6739726  35.4496931  17.7035484  49.9771423  36.0581889
  18.7639607  50.4768807  35.1002388  17.5932242  37.1704858  44.9394600
  16.6754803  37.3919805  44.7816288  18.0092385  37.2451168  44.0806307
  18.3767290  38.5696273  40.0697280  19.1239108  39.0817670  39.7604402
  18.6458879  38.2480326  40.9301674  16.6493940  41.0654814  37.0524235
  15.7405159  40.7813847  37.1496704  16.6789024  41.4853892  36.1927542
  21.8813207  44.6761403  40.8215402  21.4275534  43.8352313  40.8780593
  21.2507174  45.3122802  41.1590182  20.8246127  35.6053389  42.0516070
  20.0868883  35.0930776  42.3826312  21.0772900  35.1653771  41.2399347
  20.3246146  46.5137900  41.7565220  20.6169121  47.0742957  41.0377586
  20.8344767  46.8066461  42.5118379  20.9257754  28.3829641  42.6457839
  21.2316631  27.5227005  42.3583754  21.6510359  28.9747262  42.4456833
   7.2182110  38.7860328  41.0339437   7.0206510  38.1929689  40.3090503
   6.6628774  38.4812538  41.7515376  15.1978834  38.6783435  43.1534030
  15.2527444  37.7257271  43.0776507  14.3870036  38.8342874  43.6375328
  16.3470028  42.6063558  34.3912313  15.9089457  41.8899417  33.9317951
  17.0880468  42.8339672  33.8297405  13.1371194  37.2960494  40.9124409
  12.3239059  37.5954665  41.3189601  13.6330188  36.9016183  41.6298891
  15.2879772  47.2918251  42.8458674  15.2455950  47.5179097  41.9167206
  16.2042470  47.0581626  42.9944475  18.7345405  37.7602319  49.7439303
  19.0894793  37.9873792  50.6033769  19.3817537  38.0920696  49.1216558
  24.4643142  40.8820755  40.4488632  24.3261041  41.0722351  39.5209821
  24.1079361  41.6440137  40.9056683  12.6285268  34.8678850  46.5285644
  13.2684648  34.7267609  45.8308607  11.7962799  34.5813363  46.1524246
  24.4912522  42.9497282  45.4599903  24.9249029  42.8572571  46.3082957
  25.2044103  42.9254782  44.8219919  13.4045572  44.1681280  42.6420636
  14.1986171  43.6731600  42.4403211  12.6937265  43.6399143  42.2788342
  18.2240417  46.5499376  46.9933004  18.2777439  47.1190312  47.7610720
  17.3555198  46.7201261  46.6287041   9.7128336  38.3124362  38.7180389
   8.7825924  38.2508817  38.9350351   9.8085808  37.7900315  37.9217030
   9.6313885  34.8379175  41.3058631   9.8920702  35.7524508  41.1967791
  10.4531057  34.3703617  41.4555243  11.1038810  36.2516932  48.4757455
  11.7761864  36.0434294  47.8270104  10.2768597  36.0539018  48.0362687
  25.3528071  42.9920982  47.9932789  25.5463962  43.8966793  48.2392064
  25.2528690  42.5328401  48.8271374  17.0064382  32.8778873  50.4923116
  16.3592297  33.5768823  50.3987592  17.7765398  33.3115017  50.8599364
  20.4143180  43.1427725  53.5673669  20.2628687  42.9138277  52.6503753
  20.4047860  44.0998326  53.5805014  17.1828517  40.7159638  48.5519936
  18.1120577  40.8670797  48.3788903  16.7619547  40.8043659  47.6968582
  15.9816848  44.7410302  46.3218473  15.8427934  44.3729087  47.1944411
  15.1931445  45.2557942  46.1502431  16.5765000  49.8419399  37.6644010
  16.7516756  49.3707442  38.4789633  15.8897788  50.4685165  37.8925271
  17.5322063  44.1191905  43.7107311  17.1971896  44.0792675  44.6064961
  17.0326009  43.4536621  43.2377721  11.5066307  39.5259535  49.2359892
  11.3686105  38.7939774  49.8371431  12.4171231  39.4368435  48.9544080
  20.4681255  41.4647939  33.9844371  19.8510426  40.7394767  33.8877423
  19.9997744  42.2257300  33.6411445  14.1348608  39.2379494  48.7243572
  14.8448227  38.5972686  48.6830190  14.0917916  39.4892389  49.6469753
  22.1235387  46.1746848  51.6450151  22.0647933  45.4906068  50.9780734
  22.5254905  46.9165838  51.1930777  12.8477542  36.2244712  50.5439211
  12.3114899  35.7735451  51.1960808  12.2594251  36.3590621  49.8009676
  11.1426086  52.9908761  44.4383870  11.3822684  53.6227286  45.1162889
  10.2995282  52.6396801  44.7249229  12.2579801  35.6833364  33.1065675
  11.3809267  35.5622164  32.7427922  12.7337554  34.8919442  32.8544564
  22.1252794  44.1386432  49.8764131  21.2379573  43.8012353  49.9990530
  22.6951345  43.4069463  50.1132896   3.7781941  40.4710523  43.2007182
   4.4652981  40.1572253  42.6128198   3.6230070  41.3751888  42.9274434
   8.5816663  35.3600720  47.6292206   8.4974852  34.7526389  46.8942616
   7.7599370  35.8509738  47.6301702  15.6553947  48.7987884  46.8425374
  15.5824119  49.6042855  47.3544679  15.2131341  48.9979850  46.0173395
  15.4443727  48.0359654  40.3528196  14.6611249  48.5781334  40.4466420
  16.1436472  48.5533634  40.7522437  18.7540377  33.8454283  42.9962401
  19.2509077  33.0924246  42.6763471  17.9827359  33.8818600  42.4305610
  26.6070135  39.5494649  44.6380692  26.5960011  40.4319364  44.2674626
  25.7387514  39.1966200  44.4435230  18.1152631  48.6974718  48.9983533
  18.8280603  49.3322183  48.9259434  17.6242660  48.7938584  48.1823535
  19.8370158  42.6025971  40.5700824  18.9026437  42.7227433  40.4005529
  20.0146826  41.6998437  40.3060834  15.3375346  35.9871666  42.7234086
  14.9673133  35.4342707  43.4114991  15.8334438  35.3829800  42.1709086
  23.2242709  38.4443290  41.1050859  23.6903161  39.2771281  41.0311161
  23.6750210  37.9788271  41.8096117  13.1664544  46.4469161  49.8189104
  13.8674004  47.0805644  49.9718498  12.6959659  46.7883893  49.0584743
  21.2918940  44.7887111  38.1037011  21.5678784  44.6743706  39.0130885
  20.4223439  44.3904596  38.0649184  21.1959372  30.8123877  45.1441760
  20.2822452  31.0428104  45.3123967  21.6252473  30.8962321  45.9955792
  20.9665830  39.0013769  47.6441654  20.3137281  39.2489676  46.9894107
  21.3446210  38.1877907  47.3104131  17.9273004  49.0373462  41.7469824
  18.1095399  48.2195118  42.2097577  18.7505990  49.2541154  41.3094714
  18.2615170  47.9641647  39.0084873  18.7902936  47.4534102  38.3955035
  18.5243389  47.6484177  39.8730406  17.0153403  39.7433580  54.1307691
  16.3394041  39.6427709  54.8010066  17.8381037  39.5872794  54.5943688
   8.7632263  45.9805516  46.7520206   9.3485699  45.2349204  46.8848110
   8.5657101  46.2909473  47.6356870  11.6170918  49.0156764  41.7682649
  10.9481293  49.5002891  41.2846689  11.4783787  49.2625984  42.6826027
   3.3549917  38.5511117  45.4724649   3.3934017  38.0174707  46.2661767
   2.8490210  38.0246322  44.8535627  15.7576186  51.0500507  48.3665307
  16.3094494  51.2132129  49.1314392  16.0982380  51.6404945  47.6945332
  10.7340680  33.3975657  48.9687192  10.7982006  34.2590488  48.5564589
  10.6707800  32.7849659  48.2359550  10.2092952  35.4698790  52.6160226
  10.8364991  35.0875867  53.2297750   9.3520871  35.2512992  52.9815918
  20.6087061  45.8761765  54.2213961  21.1526965  46.4891723  53.7268916
  20.0273906  46.4341343  54.7380974   6.9858495  37.2775219  38.5478581
   7.2811936  36.3685897  38.4945634   6.0846531  37.2562958  38.2259583
  18.8944574  48.9982483  45.3528989  18.7695713  48.1972223  44.8439935
  19.5523665  49.4928676  44.8642959  10.5152742  35.3531215  44.5306129
   9.7939328  35.9667183  44.3913603  11.3045998  35.8888980  44.4522775
  20.9579482  46.7991503  46.9808539  20.0109818  46.6796854  46.9086866
  21.3062255  45.9114001  47.0634801  13.3179055  32.6885642  50.8046781
  13.8413457  32.9347938  51.5673090  13.0991389  33.5205677  50.3849918
   8.7146336  34.9589316  38.6717906   8.3859043  34.0786695  38.4893012
   9.0685707  34.9036985  39.5594295  17.9625915  46.5944219  43.1812891
  17.8150878  45.6660927  43.3620461  18.7879409  46.6164310  42.6969967
  11.8288160  35.2462286  39.0393384  12.1684232  35.7748207  38.3171992
  12.2760280  35.5842692  39.8151950  21.5660037  47.4172778  44.2677764
  22.4906585  47.2115639  44.1302215  21.3975341  47.1689179  45.1767106
  14.5231600  33.6299337  48.4896452  14.1828421  32.8307150  48.8917132
  13.8170607  33.9301048  47.9173285  15.1748072  30.7148649  46.9423775
  15.9974142  30.2409128  46.8202665  15.4186136  31.4939133  47.4422461
  13.8156307  33.7436908  37.2386676  14.5364669  34.1218161  36.7350393
  13.1921611  34.4625785  37.3421654  17.9587430  34.4482057  38.1745009
  18.1751044  35.3306695  37.8733837  17.4781497  34.0568270  37.4450651
  12.6986651  37.4067770  44.7515753  12.5531232  37.7208073  45.6440035
  12.2211855  38.0252670  44.1986652  14.5583034  34.3970318  44.7996643
  14.5444603  33.5011411  44.4628941  15.2755462  34.4040982  45.4334929
  16.4109165  34.8307658  46.8449770  16.1526942  35.7524729  46.8434101
  15.8794205  34.4338093  47.5350234  21.3555353  47.9358445  39.6239856
  21.5292231  47.3704868  38.8713708  21.8484245  48.7359340  39.4419346
   7.1732313  39.9473114  47.6903414   6.6285781  40.7232922  47.8223689
   8.0511663  40.2943919  47.5322536  13.9619930  33.2784698  40.0684213
  14.0835841  32.3501344  40.2675100  13.6721972  33.2923384  39.1562528
  16.8311120  30.9639609  43.2050933  16.8532817  31.0278942  42.2502912
  17.2479179  30.1244117  43.3991439  27.2094745  40.6994868  41.2430155
  27.6525891  39.9502193  40.8449279  26.3321255  40.6905005  40.8603887
  22.3430526  47.2525210  36.7236754  23.0381430  47.8731902  36.9424069
  22.6853676  46.4020561  36.9989132   7.9598335  39.0743011  50.5833571
   7.2180071  39.2225646  51.1698202   7.6391079  39.3351276  49.7200321
  24.2421949  44.7024915  38.2524085  24.7673273  45.0412188  37.5273405
  24.1544302  43.7671931  38.0687219  15.9041998  48.6158989  50.3813961
  16.2129124  48.3708136  51.2536661  16.7017480  48.8205627  49.8932832
  15.9262610  50.7696899  42.6119338  15.4867600  50.2773277  43.3052195
  16.6770727  50.2269866  42.3711413   8.4054949  46.9608439  42.6143966
   9.2312969  46.6612211  42.2342609   8.0549001  46.1916062  43.0633755
  13.3736482  46.3134908  44.6841640  12.7516491  45.6505613  44.3843867
  14.0441349  46.3396040  44.0015287   6.6063554  44.8794766  43.5732900
   5.7695462  44.4516940  43.3916901   6.5787199  45.0727209  44.5103691
  13.4461009  34.7916696  54.2774146  13.4949165  35.6678818  53.8951915
  13.9883524  34.2494089  53.7045789  23.9315855  45.3357819  53.5575283
  23.1411399  45.3181958  53.0179782  23.6949210  45.8746113  54.3124319
  24.0513730  42.1850285  50.8708011  24.1011735  42.0200293  51.8123534
  23.9427653  41.3177544  50.4805892  12.9349989  44.8638831  38.1600100
  13.0838109  45.5474295  37.5066773  13.7416432  44.8443921  38.6749556
  21.3417493  38.1681213  52.1867318  22.2427355  38.0287678  51.8951316
  21.4165467  38.3335668  53.1265495  15.6760298  35.5448068  51.0320504
  14.8063607  35.8381634  50.7603093  15.9119778  36.1288513  51.7527768
  25.5531927  44.6047227  51.1150033  25.2616735  44.9677207  51.9513494
  24.9404058  43.8914235  50.9363365  26.7527609  42.1700107  43.6352603
  27.5874501  42.6089911  43.7990163  26.8886738  41.6938760  42.8160849
  23.8019115  39.7279841  49.5830091  24.2773237  39.9207488  48.7748942
  22.8784681  39.7839027  49.3373474  10.6902622  40.8904009  39.1661169
  10.4448664  39.9866339  39.3641379  10.8598536  40.8921159  38.2240647
  18.3799332  31.7627685  48.5485925  18.8981276  32.4988712  48.2232413
  18.0254464  32.0691678  49.3832684   9.9598269  36.6232366  36.6647330
   9.2667514  36.6976721  36.0087366   9.7150021  35.8592710  37.1868847
  18.6311926  28.1827968  44.0686821  18.9113680  27.5151157  44.6947248
  19.4162533  28.3757063  43.5561485  16.4345394  47.3586961  35.6311848
  15.8619361  47.9777149  35.1782319  17.0078188  47.9086323  36.1651769
  22.5020784  36.6045602  47.8158396  23.4538207  36.7043699  47.8370620
  22.3324235  35.8123870  48.3256481  20.5235164  33.6901185  48.0017797
  19.9285096  33.9706197  47.3064286  20.2384860  34.1795086  48.7734538
  19.6542654  47.6424112  36.7620430  20.5873327  47.5769673  36.9653305
  19.5665867  48.4780378  36.3034962  22.2830671  46.9589982  33.7224377
  22.2044302  46.6249845  34.6160135  23.1040338  47.4511750  33.7215850
  24.9808862  39.8251721  46.9300696  24.9485182  38.8867722  47.1160380
  25.5909486  39.9035758  46.1966521  16.8192193  38.6947774  32.9727900
  17.7651298  38.5653982  33.0416318  16.4406438  37.9562436  33.4497328
  25.1303350  36.6162765  46.9758979  24.6142399  35.8321221  46.7888908
  26.0143299  36.2881481  47.1405499  22.7914077  30.3603780  42.9354792
  22.5938899  30.0518868  43.8198124  23.4013783  31.0865419  43.0652722
  30.7985412  40.8867728  46.0706733  31.5288800  40.6253016  46.6314436
  30.1892357  40.1496450  46.1108801  28.8800709  39.0275591  46.6681184
  28.1533873  38.8931556  46.0597676  28.4647996  39.3352419  47.4737902
  16.7030885  42.7465520  54.4328557  17.6233895  42.9244119  54.6268604
  16.6680468  41.8021566  54.2808256  15.0035110  36.6197751  32.9082785
  14.0966565  36.3230863  32.9845499  15.2811091  36.3227569  32.0417071
   5.9213050  37.9404114  43.3581832   5.6015835  37.0869422  43.0656206
   5.3746479  38.1552692  44.1139799   9.6992958  40.6566555  47.0751338
   9.9178968  41.5883663  47.0939372  10.1118732  40.2974529  47.8606142
  16.6197176  31.1634640  39.0627027  15.8097904  30.8181725  39.4382273
  17.3081593  30.8542184  39.6514638  18.5487724  30.2412687  40.6851323
  19.1018763  30.6608141  41.3441346  18.7857810  29.3148435  40.7274279
  14.5720823  36.2299761  56.4654087  14.4717550  37.1794118  56.3966178
  14.3542365  35.9018000  55.5930157  13.7733895  33.4784686  33.0494764
  14.6353059  33.8039584  33.3090582  13.9584239  32.6916182  32.5367830
   5.7901310  41.5607025  45.3274953   5.0964782  41.1460978  44.8144908
   6.5374301  41.6027562  44.7308372  21.9266531  32.3513212  40.1929987
  21.3465200  33.0098016  39.8108040  21.6602464  31.5290557  39.7817405
  20.3770097  31.7518270  42.3951308  20.8769876  31.8634804  41.5865627
  21.0205705  31.4479323  43.0352116  14.4352093  39.6596900  55.2819149
  13.9519175  40.4597260  55.4883038  14.5213032  39.6704844  54.3286593
   7.7038053  41.4925279  43.2040968   7.6808741  41.5912967  42.2522851
   8.0138689  42.3390430  43.5258134  10.3625431  43.5501434  47.3187583
  11.3168684  43.5185377  47.2517514  10.1637954  43.0892058  48.1337808
  10.9524813  42.1202550  49.8858380  11.7717702  42.6146629  49.9093217
  11.2261621  41.2034518  49.8575948  20.7091409  34.5113303  39.2486336
  19.8217264  34.7962953  39.0306530  21.1245398  34.3507066  38.4013613
  24.0605945  34.5359824  42.9640675  24.8366335  35.0256276  43.2365292
  23.3354079  34.9617878  43.4212544  26.4978504  35.2487443  44.0214616
  27.0922995  35.0083179  43.3107924  26.5705088  34.5294573  44.6488152
   8.7175660  49.0921054  44.3357780   8.5830127  48.3321455  43.7695778
   8.3007722  49.8161954  43.8686569  19.8534623  44.2757977  33.3434356
  20.5570473  44.4807980  33.9592011  19.1297271  44.8434739  33.6083439
  20.6832433  40.0267839  39.4636626  20.6267634  40.4836390  38.6244258
  21.2360775  39.2658523  39.2859469  24.4937239  35.8157570  40.2886745
  24.2374173  35.4154206  41.1194953  23.8690107  36.5301364  40.1636885
  28.8049577  38.5553644  42.7958037  28.2449135  38.6246833  43.5689599
  28.1993080  38.3794628  42.0757533  11.8744785  49.9890371  44.5476223
  11.7577170  50.9335803  44.4454913  11.0537232  49.6863932  44.9362022
  21.7621320  44.7140506  35.3932816  22.5966924  44.2821705  35.2110291
  21.6005663  44.5422520  36.3209710  21.4167212  41.2172620  36.7589155
  21.3616016  41.0516891  35.8177599  20.7913267  41.9248653  36.9151345
   6.2059727  36.4540684  50.5850577   6.8518591  35.9439638  51.0737802
   5.9976878  37.1909366  51.1594003  18.7313119  43.5221532  56.0842718
  19.6004279  43.6962184  55.7229353  18.2519871  44.3415948  55.9618447
  14.7263338  30.7180729  36.3374473  14.7142007  31.6622569  36.4942744
  15.6186759  30.5350874  36.0433935  12.8999300  50.6418633  47.7632151
  13.8026546  50.6742243  48.0798646  12.6736670  49.7119084  47.7778487
  14.6552902  49.3949619  44.4242230  13.7048533  49.3951481  44.3106602
  14.9585388  48.6482354  43.9078265  18.5415457  27.3123505  40.5920410
  17.7747853  26.7581992  40.7377093  18.9526162  27.3845374  41.4534562
  10.5457218  33.6008301  54.6825591  11.4088680  33.2445106  54.8928916
   9.9722629  33.2622196  55.3700996  30.3905595  55.2310158  45.4887992
  31.0284005  55.1116905  44.7851333  30.2726438  56.1791002  45.5475945
  27.1995301  55.1837586  45.4249517  26.8613813  55.0678650  44.5370052
  28.0685070  54.7828751  45.4050523  23.0582117  57.0373062  41.4146408
  22.4946982  56.9462999  40.6462696  22.9434512  56.2172967  41.8948901
  27.6815084  56.3372437  51.3835723  27.6703725  55.9425236  50.5116226
  27.8435724  55.6038510  51.9769494  20.6046549  58.5324254  44.2530629
  21.3967841  58.1915078  43.8376928  20.8443199  58.6419229  45.1732782
  28.6381676  60.7044030  36.7260873  27.9869656  61.2898110  36.3394887
  29.4326039  61.2350225  36.7855910  22.5637303  57.7933167  37.1248007
  23.3368179  57.2462154  36.9860883  22.9162702  58.6577416  37.3362469
  24.4022345  59.1209549  50.3314907  24.1112211  60.0255180  50.2161573
  25.0379330  59.1626077  51.0458976  25.3278552  56.4986398  46.9216266
  25.9242125  56.2742420  46.2073229  25.3853524  55.7571143  47.5241714
  24.9003581  53.9525833  34.7566457  25.1529101  53.4307354  33.9949920
  23.9628140  53.7891979  34.8593141  29.9446864  52.9561611  42.5641201
  30.7309953  52.5381035  42.2131618  30.2085568  53.8607704  42.7322849
  30.1156941  58.3934462  37.2629857  29.4802774  58.4669088  37.9750762
  29.7854347  58.9828061  36.5848937  35.3455291  52.8936845  43.4674179
  36.0780463  52.3236061  43.7012009  34.5894646  52.5058445  43.9080685
  24.6199869  55.8553939  36.9590832  24.5036128  55.1798842  37.6271917
  24.7302129  55.3686313  36.1422985  26.9631410  55.3164086  40.6637521
  26.5989618  54.7894707  41.3750443  27.8198526  54.9262555  40.4904007
  32.8680711  46.6058419  47.9268788  32.5364036  47.4753830  47.7030003
  32.2726324  46.2894703  48.6062818  26.6036897  50.3453986  35.6598870
  26.7711300  51.2134222  36.0269341  26.4134066  50.5081268  34.7360159
  29.3612231  58.8070965  47.3264700  29.0612954  59.7096004  47.2180508
  29.0163290  58.5403148  48.1785853  22.8124712  55.2584762  43.3601405
  21.8875209  55.1260976  43.5679097  23.0609125  56.0378981  43.8571347
  32.7609374  51.3253505  45.0062138  31.8526252  51.2568913  44.7120899
  32.7096970  51.8025450  45.8343963  26.5826118  52.8011643  36.6445537
  26.4625743  53.2468694  37.4831017  25.8878707  53.1496961  36.0859075
  20.1733523  54.9018035  44.1945194  20.3025904  55.1552514  45.1084606
  19.4930974  55.4945743  43.8749849  24.3433010  65.5715285  40.2935668
  24.2657040  66.5223110  40.3724149  23.7394654  65.2261158  40.9510594
  26.8350240  52.7443151  52.9497035  26.0583574  53.3037071  52.9399900
  27.4740803  53.2299934  53.4711905  34.6271021  49.5269943  46.7840012
  33.9845401  49.8202476  46.1379806  34.1225949  49.4122864  47.5893208
  32.2811184  53.2733117  37.4725871  33.1929041  53.5060503  37.2973568
  31.7720831  53.8570161  36.9100949  25.0896612  55.5528604  52.5115002
  25.8311297  56.0913648  52.2349826  24.3833598  56.1794893  52.6686554
  30.5651952  57.6957744  51.1087163  30.9735308  57.2540155  50.3641796
  29.8429214  57.1210372  51.3621356  26.9183022  52.6330351  48.4820720
  27.7644217  53.0569765  48.6255369  26.8581660  51.9763975  49.1759284
  30.8880767  58.2558935  44.8639452  30.2589629  58.4204649  44.1615520
  30.5006429  58.6700545  45.6350416  34.7669999  59.1913373  42.2183816
  34.0821037  59.5712274  41.6680849  34.8513848  59.8008699  42.9515764
  30.0682467  50.2934719  50.1401894  29.8243399  51.0476780  49.6036170
  30.3442398  50.6720067  50.9749141  32.0220930  56.8373332  48.8179160
  32.2337825  57.4805092  48.1413541  31.9750678  56.0035648  48.3501090
  29.6247159  49.4491152  45.7215732  28.7631638  49.7472406  46.0132469
  29.6509594  49.6661551  44.7896764  26.4408729  57.9933343  42.1289537
  26.9047074  58.2721046  41.3394160  26.1765527  57.0916788  41.9462628
  23.3332810  57.5404825  45.0669301  23.9034167  57.9692093  44.4286785
  23.9240922  57.2587409  45.7653486  25.3777615  54.1156495  38.9379103
  26.0801658  54.5677539  39.4053029  25.0458243  53.4740314  39.5658996
  23.8257976  52.7068252  53.3130312  23.1956637  53.3884533  53.5465709
  23.7194064  52.5951334  52.3683450  19.1202949  52.3740048  44.2396236
  18.3302003  52.6297577  43.7636347  19.6114196  53.1888386  44.3448277
  33.1366758  59.7145287  46.9901517  33.9584202  59.3125475  46.7084199
  33.1329161  59.6113521  47.9417633  21.0717694  52.7384627  41.1979713
  20.2748857  52.8503322  41.7163209  20.8443286  53.0771280  40.3320603
  26.9023362  59.2629331  49.1462227  26.9667794  59.7249738  49.9820399
  26.1934285  58.6326695  49.2744537  17.4040652  52.6270539  46.6711227
  17.6548690  53.5117548  46.9368803  17.9400200  52.4475140  45.8986319
  41.2272751  56.0584036  43.3386488  40.4736460  55.4891434  43.1830493
  41.3620292  56.0246700  44.2857123  26.6171379  60.9297438  39.0141208
  26.4817054  61.7748974  39.4426056  27.1581192  61.1316716  38.2507142
  23.1038719  47.0089018  55.6755563  22.7105664  46.4555216  56.3503207
  23.9204859  47.3199596  56.0662081  20.0700777  58.4472876  39.5869133
  20.5825297  59.2416126  39.7374698  20.7223489  57.7499167  39.5202734
  21.8795661  61.5638632  41.6691886  22.0562290  62.4856597  41.4812870
  22.6752495  61.2497052  42.0986266  26.0206680  48.4246897  53.2675820
  26.7616393  49.0254050  53.1880282  26.2524603  47.6824535  52.7093862
  21.1648018  53.6103264  51.5454049  21.0501533  52.7088521  51.8461148
  20.3092536  53.8566961  51.1938866  28.2439856  61.5521005  53.1441550
  27.8003710  60.7657383  52.8262454  28.9057069  61.7400155  52.4785441
  23.0026977  63.0816806  47.6702228  23.5534402  62.9533870  46.8979222
  22.1638453  63.3811695  47.3197121  30.3421094  61.8323804  51.1722951
  30.3239569  62.6532686  50.6803220  31.2641014  61.7077880  51.3973092
  26.7994148  59.3467934  52.0146460  27.3322485  58.5856222  51.7845767
  26.2708229  59.0541586  52.7570614  29.9663843  44.4528000  47.5440101
  29.6228112  45.3429642  47.4679212  30.3342805  44.2629658  46.6809686
  18.0349693  56.7761530  40.3628703  18.8724915  57.1858539  40.1462411
  18.2127961  55.8360973  40.3328897  29.9314126  54.4436611  36.0512536
  29.4160749  55.2141216  36.2900924  29.6591434  53.7701747  36.6745598
  27.5161237  49.2886312  41.1097775  26.6602833  48.8993162  40.9303413
  27.9288188  49.3678273  40.2497560  29.0460383  46.8232655  45.5089334
  28.5425179  46.7862790  44.6957140  29.3390990  47.7325398  45.5685991
  25.2903269  46.9071385  44.5155516  26.1556266  46.7114193  44.1561406
  25.3580778  46.6781737  45.4424873  34.9048400  57.1968966  37.9865710
  34.1277842  56.8580125  37.5420872  35.5839881  57.2021589  37.3120675
  29.7200429  52.3163703  37.8772318  29.4150564  52.6309852  38.7282461
  30.6730871  52.3945123  37.9199651  28.1646861  58.4753926  39.5265272
  27.6368222  57.7406686  39.2138509  27.6634363  59.2528603  39.2805240
  33.1439707  56.6702947  44.6432318  32.4863381  57.3602208  44.7312446
  33.9480106  57.0599379  44.9866304  22.8965588  49.1373593  41.8871883
  23.4709340  48.9148774  41.1545076  23.4836571  49.2062287  42.6400484
  31.9545165  55.0247320  42.6936260  32.4677047  55.6577311  43.1957969
  32.6046389  54.4248515  42.3279620  23.2235175  51.1678054  35.9067768
  22.3872488  51.5052740  36.2277043  23.0839945  51.0327034  34.9694905
  25.1988256  46.0114842  40.6146952  24.5452668  45.6963859  39.9903567
  25.1568730  45.3890582  41.3406775  26.3099461  56.2934137  32.5300245
  25.4026522  56.0623390  32.7291394  26.8070493  55.4971756  32.7174226
  29.2167540  65.0031644  35.4496931  28.5429238  65.3063341  36.0581889
  29.6033362  65.8060724  35.1002388  28.4325996  52.4996775  44.9394600
  27.5148558  52.7211722  44.7816288  28.8486140  52.5743086  44.0806307
  29.2161044  53.8988191  40.0697280  29.9632863  54.4109588  39.7604402
  29.4852634  53.5772244  40.9301674  27.4887694  56.3946732  37.0524235
  26.5798913  56.1105764  37.1496704  27.5182778  56.8145810  36.1927542
  32.7206962  60.0053321  40.8215402  32.2669289  59.1644231  40.8780593
  32.0900928  60.6414719  41.1590182  31.6639881  50.9345307  42.0516070
  30.9262638  50.4222693  42.3826312  31.9166655  50.4945689  41.2399347
  31.1639901  61.8429818  41.7565220  31.4562875  62.4034875  41.0377586
  31.6738521  62.1358379  42.5118379  31.7651508  43.7121559  42.6457839
  32.0710385  42.8518923  42.3583754  32.4904113  44.3039179  42.4456833
  18.0575865  54.1152246  41.0339437  17.8600264  53.5221606  40.3090503
  17.5022529  53.8104456  41.7515376  26.0372588  54.0075352  43.1534030
  26.0921198  53.0549189  43.0776507  25.2263790  54.1634791  43.6375328
  27.1863782  57.9355475  34.3912313  26.7483212  57.2191334  33.9317951
  27.9274223  58.1631590  33.8297405  23.9764948  52.6252412  40.9124409
  23.1632814  52.9246582  41.3189601  24.4723942  52.2308101  41.6298891
  26.1273526  62.6210169  42.8458674  26.0849705  62.8471015  41.9167206
  27.0436225  62.3873543  42.9944475  29.5739160  53.0894236  49.7439303
  29.9288548  53.3165710  50.6033769  30.2211291  53.4212613  49.1216558
  35.3036897  56.2112672  40.4488632  35.1654795  56.4014268  39.5209821
  34.9473116  56.9732055  40.9056683  23.4679023  50.1970767  46.5285644
  24.1078402  50.0559527  45.8308607  22.6356553  49.9105281  46.1524246
  35.3306276  58.2789199  45.4599903  35.7642783  58.1864488  46.3082957
  36.0437857  58.2546700  44.8219919  24.2439327  59.4973198  42.6420636
  25.0379925  59.0023518  42.4403211  23.5331019  58.9691061  42.2788342
  29.0634171  61.8791293  46.9933004  29.1171194  62.4482230  47.7610720
  28.1948953  62.0493178  46.6287041  20.5522090  53.6416280  38.7180389
  19.6219678  53.5800735  38.9350351  20.6479562  53.1192232  37.9217030
  20.4707639  50.1671092  41.3058631  20.7314457  51.0816426  41.1967791
  21.2924812  49.6995535  41.4555243  21.9432565  51.5808850  48.4757455
  22.6155618  51.3726212  47.8270104  21.1162351  51.3830936  48.0362687
  36.1921826  58.3212900  47.9932789  36.3857716  59.2258710  48.2392064
  36.0922444  57.8620319  48.8271374  27.8458137  48.2070791  50.4923116
  27.1986052  48.9060740  50.3987592  28.6159152  48.6406934  50.8599364
  31.2536935  58.4719643  53.5673669  31.1022441  58.2430194  52.6503753
  31.2441614  59.4290244  53.5805014  28.0222271  56.0451555  48.5519936
  28.9514331  56.1962715  48.3788903  27.6013301  56.1335576  47.6968582
  26.8210603  60.0702220  46.3218473  26.6821689  59.7021004  47.1944411
  26.0325199  60.5849859  46.1502431  27.4158755  65.1711316  37.6644010
  27.5910510  64.6999360  38.4789633  26.7291543  65.7977083  37.8925271
  28.3715818  59.4483823  43.7107311  28.0365651  59.4084593  44.6064961
  27.8719764  58.7828538  43.2377721  22.3460062  54.8551453  49.2359892
  22.2079860  54.1231691  49.8371431  23.2564985  54.7660353  48.9544080
  31.3075010  56.7939857  33.9844371  30.6904180  56.0686685  33.8877423
  30.8391498  57.5549217  33.6411445  24.9742363  54.5671412  48.7243572
  25.6841981  53.9264604  48.6830190  24.9311671  54.8184307  49.6469753
  32.9629141  61.5038765  51.6450151  32.9041687  60.8197985  50.9780734
  33.3648660  62.2457755  51.1930777  23.6871297  51.5536630  50.5439211
  23.1508654  51.1027368  51.1960808  23.0988005  51.6882539  49.8009676
  21.9819840  68.3200679  44.4383870  22.2216438  68.9519203  45.1162889
  21.1389037  67.9688719  44.7249229  23.0973556  51.0125281  33.1065675
  22.2203022  50.8914082  32.7427922  23.5731309  50.2211360  32.8544564
  32.9646549  59.4678349  49.8764131  32.0773327  59.1304271  49.9990530
  33.5345100  58.7361380  50.1132896  14.6175696  55.8002441  43.2007182
  15.3046735  55.4864171  42.6128198  14.4623824  56.7043806  42.9274434
  19.4210418  50.6892637  47.6292206  19.3368607  50.0818307  46.8942616
  18.5993124  51.1801656  47.6301702  26.4947702  64.1279802  46.8425374
  26.4217873  64.9334773  47.3544679  26.0525095  64.3271767  46.0173395
  26.2837482  63.3651572  40.3528196  25.5005003  63.9073252  40.4466420
  26.9830227  63.8825551  40.7522437  29.5934132  49.1746201  42.9962401
  30.0902831  48.4216163  42.6763471  28.8221113  49.2110518  42.4305610
  37.4463889  54.8786567  44.6380692  37.4353765  55.7611282  44.2674626
  36.5781269  54.5258117  44.4435230  28.9546385  64.0266636  48.9983533
  29.6674358  64.6614100  48.9259434  28.4636414  64.1230502  48.1823535
  30.6763912  57.9317888  40.5700824  29.7420191  58.0519351  40.4005529
  30.8540581  57.0290355  40.3060834  26.1769100  51.3163584  42.7234086
  25.8066888  50.7634624  43.4114991  26.6728193  50.7121717  42.1709086
  34.0636464  53.7735208  41.1050859  34.5296916  54.6063199  41.0311161
  34.5143964  53.3080189  41.8096117  24.0058299  61.7761079  49.8189104
  24.7067758  62.4097562  49.9718498  23.5353414  62.1175811  49.0584743
  32.1312695  60.1179029  38.1037011  32.4072539  60.0035623  39.0130885
  31.2617194  59.7196514  38.0649184  32.0353126  46.1415795  45.1441760
  31.1216206  46.3720021  45.3123967  32.4646228  46.2254239  45.9955792
  31.8059585  54.3305686  47.6441654  31.1531035  54.5781594  46.9894107
  32.1839965  53.5169825  47.3104131  28.7666759  64.3665380  41.7469824
  28.9489153  63.5487036  42.2097577  29.5899745  64.5833072  41.3094714
  29.1008924  63.2933565  39.0084873  29.6296691  62.7826019  38.3955035
  29.3637144  62.9776095  39.8730406  27.8547158  55.0725498  54.1307691
  27.1787795  54.9719627  54.8010066  28.6774792  54.9164711  54.5943688
  19.6026017  61.3097434  46.7520206  20.1879454  60.5641122  46.8848110
  19.4050856  61.6201391  47.6356870  22.4564672  64.3448681  41.7682649
  21.7875048  64.8294809  41.2846689  22.3177542  64.5917902  42.6826027
  14.1943672  53.8803034  45.4724649  14.2327771  53.3466625  46.2661767
  13.6883965  53.3538240  44.8535627  26.5969941  66.3792425  48.3665307
  27.1488249  66.5424046  49.1314392  26.9376134  66.9696863  47.6945332
  21.5734434  48.7267575  48.9687192  21.6375761  49.5882406  48.5564589
  21.5101554  48.1141576  48.2359550  21.0486707  50.7990707  52.6160226
  21.6758745  50.4167785  53.2297750  20.1914625  50.5804909  52.9815918
  31.4480815  61.2053683  54.2213961  31.9920719  61.8183641  53.7268916
  30.8667660  61.7633261  54.7380974  17.8252249  52.6067136  38.5478581
  18.1205690  51.6977815  38.4945634  16.9240285  52.5854876  38.2259583
  29.7338328  64.3274401  45.3528989  29.6089468  63.5264140  44.8439935
  30.3917419  64.8220594  44.8642959  21.3546496  50.6823133  44.5306129
  20.6333082  51.2959101  44.3913603  22.1439752  51.2180898  44.4522775
  31.7973237  62.1283421  46.9808539  30.8503572  62.0088772  46.9086866
  32.1456010  61.2405919  47.0634801  24.1572810  48.0177560  50.8046781
  24.6807212  48.2639856  51.5673090  23.9385143  48.8497594  50.3849918
  19.5540091  50.2881234  38.6717906  19.2252797  49.4078613  38.4893012
  19.9079462  50.2328903  39.5594295  28.8019670  61.9236137  43.1812891
  28.6544632  60.9952844  43.3620461  29.6273163  61.9456228  42.6969967
  22.6681914  50.5754204  39.0393384  23.0077987  51.1040125  38.3171992
  23.1154035  50.9134610  39.8151950  32.4053792  62.7464696  44.2677764
  33.3300339  62.5407557  44.1302215  32.2369095  62.4981097  45.1767106
  25.3625355  48.9591255  48.4896452  25.0222175  48.1599068  48.8917132
  24.6564361  49.2592965  47.9173285  26.0141827  46.0440567  46.9423775
  26.8367896  45.5701045  46.8202665  26.2579890  46.8231051  47.4422461
  24.6550061  49.0728825  37.2386676  25.3758424  49.4510078  36.7350393
  24.0315365  49.7917702  37.3421654  28.7981184  49.7773974  38.1745009
  29.0144799  50.6598612  37.8733837  28.3175251  49.3860188  37.4450651
  23.5380406  52.7359688  44.7515753  23.3924986  53.0499991  45.6440035
  23.0605609  53.3544588  44.1986652  25.3976788  49.7262236  44.7996643
  25.3838357  48.8303329  44.4628941  26.1149217  49.7332899  45.4334929
  27.2502919  50.1599576  46.8449770  26.9920697  51.0816647  46.8434101
  26.7187959  49.7630010  47.5350234  32.1949108  63.2650363  39.6239856
  32.3685985  62.6996785  38.8713708  32.6877999  64.0651258  39.4419346
  18.0126068  55.2765032  47.6903414  17.4679536  56.0524840  47.8223689
  18.8905418  55.6235837  47.5322536  24.8013684  48.6076616  40.0684213
  24.9229596  47.6793262  40.2675100  24.5115727  48.6215302  39.1562528
  27.6704875  46.2931526  43.2050933  27.6926572  46.3570859  42.2502912
  28.0872934  45.4536035  43.3991439  38.0488499  56.0286786  41.2430155
  38.4919645  55.2794111  40.8449279  37.1715009  56.0196922  40.8603887
  33.1824280  62.5817127  36.7236754  33.8775185  63.2023820  36.9424069
  33.5247430  61.7312479  36.9989132  18.7992090  54.4034928  50.5833571
  18.0573826  54.5517564  51.1698202  18.4784834  54.6643194  49.7200321
  35.0815703  60.0316833  38.2524085  35.6067028  60.3704106  37.5273405
  34.9938056  59.0963848  38.0687219  26.7435752  63.9450907  50.3813961
  27.0522879  63.7000053  51.2536661  27.5411234  64.1497545  49.8932832
  26.7656364  66.0988816  42.6119338  26.3261355  65.6065195  43.3052195
  27.5164481  65.5561784  42.3711413  19.2448703  62.2900357  42.6143966
  20.0706723  61.9904129  42.2342609  18.8942755  61.5207980  43.0633755
  24.2130236  61.6426825  44.6841640  23.5910246  60.9797530  44.3843867
  24.8835103  61.6687957  44.0015287  17.4457308  60.2086684  43.5732900
  16.6089217  59.7808858  43.3916901  17.4180954  60.4019127  44.5103691
  24.2854764  50.1208613  54.2774146  24.3342919  50.9970736  53.8951915
  24.8277278  49.5786006  53.7045789  34.7709610  60.6649737  53.5575283
  33.9805153  60.6473875  53.0179782  34.5342964  61.2038030  54.3124319
  34.8907485  57.5142203  50.8708011  34.9405490  57.3492210  51.8123534
  34.7821408  56.6469462  50.4805892  23.7743743  60.1930749  38.1600100
  23.9231864  60.8766213  37.5066773  24.5810187  60.1735839  38.6749556
  32.1811247  53.4973131  52.1867318  33.0821110  53.3579596  51.8951316
  32.2559221  53.6627586  53.1265495  26.5154052  50.8739986  51.0320504
  25.6457362  51.1673552  50.7603093  26.7513533  51.4580431  51.7527768
  36.3925681  59.9339144  51.1150033  36.1010490  60.2969125  51.9513494
  35.7797813  59.2206153  50.9363365  37.5921364  57.4992024  43.6352603
  38.4268255  57.9381828  43.7990163  37.7280493  57.0230677  42.8160849
  34.6412870  55.0571759  49.5830091  35.1166991  55.2499405  48.7748942
  33.7178435  55.1130945  49.3373474  21.5296376  56.2195926  39.1661169
  21.2842418  55.3158256  39.3641379  21.6992291  56.2213077  38.2240647
  29.2193086  47.0919603  48.5485925  29.7375030  47.8280630  48.2232413
  28.8648219  47.3983596  49.3832684  20.7992024  51.9524284  36.6647330
  20.1061269  52.0268639  36.0087366  20.5543776  51.1884627  37.1868847
  29.4705680  43.5119885  44.0686821  29.7507434  42.8443074  44.6947248
  30.2556287  43.7048981  43.5561485  27.2739149  62.6878879  35.6311848
  26.7013116  63.3069066  35.1782319  27.8471942  63.2378241  36.1651769
  33.3414539  51.9337519  47.8158396  34.2931962  52.0335617  47.8370620
  33.1717989  51.1415788  48.3256481  31.3628918  49.0193102  48.0017797
  30.7678850  49.2998115  47.3064286  31.0778615  49.5087003  48.7734538
  30.4936409  62.9716029  36.7620430  31.4267082  62.9061591  36.9653305
  30.4059621  63.8072296  36.3034962  33.1224425  62.2881900  33.7224377
  33.0438057  61.9541763  34.6160135  33.9434092  62.7803667  33.7215850
  35.8202616  55.1543639  46.9300696  35.7878937  54.2159640  47.1160380
  36.4303240  55.2327676  46.1966521  27.6585947  54.0239692  32.9727900
  28.6045052  53.8945900  33.0416318  27.2800192  53.2854354  33.4497328
  35.9697105  51.9454682  46.9758979  35.4536154  51.1613139  46.7888908
  36.8537053  51.6173399  47.1405499  33.6307832  45.6895698  42.9354792
  33.4332653  45.3810786  43.8198124  34.2407537  46.4157337  43.0652722
  41.6379166  56.2159646  46.0706733  42.3682555  55.9544934  46.6314436
  41.0286112  55.4788368  46.1108801  39.7194463  54.3567508  46.6681184
  38.9927627  54.2223473  46.0597676  39.3041750  54.6644337  47.4737902
  27.5424640  58.0757438  54.4328557  28.4627649  58.2536037  54.6268604
  27.5074223  57.1313483  54.2808256  25.8428864  51.9489668  32.9082785
  24.9360320  51.6522781  32.9845499  26.1204845  51.6519486  32.0417071
  16.7606805  53.2696032  43.3581832  16.4409589  52.4161340  43.0656206
  16.2140233  53.4844610  44.1139799  20.5386712  55.9858473  47.0751338
  20.7572722  56.9175580  47.0939372  20.9512486  55.6266447  47.8606142
  27.4590930  46.4926558  39.0627027  26.6491659  46.1473643  39.4382273
  28.1475347  46.1834102  39.6514638  29.3881478  45.5704605  40.6851323
  29.9412517  45.9900058  41.3441346  29.6251565  44.6440353  40.7274279
  25.4114578  51.5591678  56.4654087  25.3111305  52.5086035  56.3966178
  25.1936120  51.2309917  55.5930157  24.6127649  48.8076603  33.0494764
  25.4746813  49.1331502  33.3090582  24.7977993  48.0208099  32.5367830
  16.6295065  56.8898943  45.3274953  15.9358536  56.4752896  44.8144908
  17.3768056  56.9319480  44.7308372  32.7660286  47.6805130  40.1929987
  32.1858955  48.3389934  39.8108040  32.4996218  46.8582475  39.7817405
  31.2163852  47.0810188  42.3951308  31.7163630  47.1926722  41.5865627
  31.8599460  46.7771240  43.0352116  25.2745848  54.9888817  55.2819149
  24.7912929  55.7889177  55.4883038  25.3606787  54.9996762  54.3286593
  18.5431807  56.8217197  43.2040968  18.5202495  56.9204884  42.2522851
  18.8532444  57.6682348  43.5258134  21.2019185  58.8793352  47.3187583
  22.1562439  58.8477294  47.2517514  21.0031709  58.4183976  48.1337808
  21.7918567  57.4494468  49.8858380  22.6111456  57.9438547  49.9093217
  22.0655375  56.5326436  49.8575948  31.5485164  49.8405220  39.2486336
  30.6611019  50.1254871  39.0306530  31.9639153  49.6798984  38.4013613
  34.8999700  49.8651741  42.9640675  35.6760090  50.3548194  43.2365292
  34.1747834  50.2909795  43.4212544  37.3372258  50.5779360  44.0214616
  37.9316749  50.3375096  43.3107924  37.4098842  49.8586491  44.6488152
  19.5569414  64.4212971  44.3357780  19.4223882  63.6613372  43.7695778
  19.1401476  65.1453871  43.8686569  30.6928377  59.6049895  33.3434356
  31.3964227  59.8099897  33.9592011  29.9691026  60.1726657  33.6083439
  31.5226187  55.3559756  39.4636626  31.4661389  55.8128308  38.6244258
  32.0754530  54.5950441  39.2859469  35.3330993  51.1449488  40.2886745
  35.0767927  50.7446124  41.1194953  34.7083861  51.8593282  40.1636885
  39.6443331  53.8845561  42.7958037  39.0842889  53.9538751  43.5689599
  39.0386834  53.7086546  42.0757533  22.7138540  65.3182288  44.5476223
  22.5970924  66.2627721  44.4454913  21.8930986  65.0155850  44.9362022
  32.6015074  60.0432424  35.3932816  33.4360678  59.6113623  35.2110291
  32.4399417  59.8714438  36.3209710  32.2560967  56.5464537  36.7589155
  32.2009770  56.3808809  35.8177599  31.6307022  57.2540570  36.9151345
  17.0453482  51.7832602  50.5850577  17.6912345  51.2731556  51.0737802
  16.8370633  52.5201283  51.1594003  29.5706874  58.8513449  56.0842718
  30.4398033  59.0254102  55.7229353  29.0913625  59.6707866  55.9618447
  25.5657092  46.0472646  36.3374473  25.5535762  46.9914486  36.4942744
  26.4580514  45.8642792  36.0433935  23.7393054  65.9710550  47.7632151
  24.6420301  66.0034161  48.0798646  23.5130424  65.0411001  47.7778487
  25.4946656  64.7241537  44.4242230  24.5442287  64.7243398  44.3106602
  25.7979142  63.9774271  43.9078265  29.3809212  42.6415423  40.5920410
  28.6141607  42.0873910  40.7377093  29.7919917  42.7137292  41.4534562
  21.3850973  48.9300219  54.6825591  22.2482434  48.5737024  54.8928916
  20.8116383  48.5914114  55.3700996  41.2299350  70.5602075  45.4887992
  41.8677759  70.4408823  44.7851333  41.1120192  71.5082919  45.5475945
  38.0389056  70.5129503  45.4249517  37.7007567  70.3970568  44.5370052
  38.9078824  70.1120668  45.4050523  33.8975872  72.3664980  41.4146408
  33.3340737  72.2754917  40.6462696  33.7828267  71.5464884  41.8948901
  38.5208839  71.6664355  51.3835723  38.5097480  71.2717153  50.5116226
  38.6829478  70.9330428  51.9769494  31.4440303  73.8616171  44.2530629
  32.2361595  73.5206996  43.8376928  31.6836954  73.9711146  45.1732782
  39.4775430  76.0335947  36.7260873  38.8263410  76.6190028  36.3394887
  40.2719793  76.5642142  36.7855910  33.4031057  73.1225085  37.1248007
  34.1761933  72.5754072  36.9860883  33.7556456  73.9869334  37.3362469
  35.2416100  74.4501467  50.3314907  34.9505966  75.3547098  50.2161573
  35.8773084  74.4917995  51.0458976  36.1672307  71.8278315  46.9216266
  36.7635879  71.6034338  46.2073229  36.2247278  71.0863061  47.5241714
  35.7397335  69.2817751  34.7566457  35.9922856  68.7599272  33.9949920
  34.8021894  69.1183896  34.8593141  40.7840618  68.2853529  42.5641201
  41.5703707  67.8672952  42.2131618  41.0479322  69.1899621  42.7322849
  40.9550695  73.7226379  37.2629857  40.3196528  73.7961006  37.9750762
  40.6248102  74.3119978  36.5848937  46.1849045  68.2228762  43.4674179
  46.9174217  67.6527979  43.7012009  45.4288401  67.8350363  43.9080685
  35.4593624  71.1845857  36.9590832  35.3429882  70.5090760  37.6271917
  35.5695884  70.6978231  36.1422985  37.8025165  70.6456004  40.6637521
  37.4383372  70.1186625  41.3750443  38.6592281  70.2554473  40.4904007
  43.7074465  61.9350336  47.9268788  43.3757790  62.8045747  47.7030003
  43.1120079  61.6186620  48.6062818  37.4430652  65.6745904  35.6598870
  37.6105054  66.5426140  36.0269341  37.2527821  65.8373185  34.7360159
  40.2005985  74.1362882  47.3264700  39.9006708  75.0387921  47.2180508
  39.8557045  73.8695066  48.1785853  33.6518467  70.5876679  43.3601405
  32.7268963  70.4552893  43.5679097  33.9002880  71.3670899  43.8571347
  43.6003129  66.6545423  45.0062138  42.6920006  66.5860831  44.7120899
  43.5490725  67.1317368  45.8343963  37.4219873  68.1303561  36.6445537
  37.3019498  68.5760612  37.4831017  36.7272461  68.4788879  36.0859075
  31.0127278  70.2309953  44.1945194  31.1419659  70.4844432  45.1084606
  30.3324729  70.8237661  43.8749849  35.1826765  80.9007203  40.2935668
  35.1050795  81.8515028  40.3724149  34.5788408  80.5553075  40.9510594
  37.6743995  68.0735068  52.9497035  36.8977329  68.6328988  52.9399900
  38.3134558  68.5591851  53.4711905  45.4664775  64.8561861  46.7840012
  44.8239155  65.1494394  46.1379806  44.9619704  64.7414781  47.5893208
  43.1204939  68.6025034  37.4725871  44.0322795  68.8352421  37.2973568
  42.6114586  69.1862078  36.9100949  35.9290367  70.8820522  52.5115002
  36.6705051  71.4205566  52.2349826  35.2227352  71.5086810  52.6686554
  41.4045707  73.0249662  51.1087163  41.8129063  72.5832073  50.3641796
  40.6822968  72.4502290  51.3621356  37.7576777  67.9622269  48.4820720
  38.6037972  68.3861682  48.6255369  37.6975414  67.3055893  49.1759284
  41.7274521  73.5850853  44.8639452  41.0983384  73.7496567  44.1615520
  41.3400183  73.9992462  45.6350416  45.6063753  74.5205291  42.2183816
  44.9214791  74.9004192  41.6680849  45.6907602  75.1300617  42.9515764
  40.9076222  65.6226637  50.1401894  40.6637154  66.3768698  49.6036170
  41.1836152  66.0011985  50.9749141  42.8614685  72.1665250  48.8179160
  43.0731580  72.8097009  48.1413541  42.8144433  71.3327566  48.3501090
  40.4640914  64.7783070  45.7215732  39.6025393  65.0764324  46.0132469
  40.4903348  64.9953469  44.7896764  37.2802483  73.3225261  42.1289537
  37.7440829  73.6012964  41.3394160  37.0159281  72.4208705  41.9462628
  34.1726564  72.8696742  45.0669301  34.7427921  73.2984011  44.4286785
  34.7634676  72.5879327  45.7653486  36.2171369  69.4448413  38.9379103
  36.9195412  69.8969457  39.4053029  35.8851998  68.8032232  39.5658996
  34.6651731  68.0360170  53.3130312  34.0350391  68.7176451  53.5465709
  34.5587819  67.9243251  52.3683450  29.9596703  67.7031966  44.2396236
  29.1695757  67.9589494  43.7636347  30.4507950  68.5180304  44.3448277
  43.9760513  75.0437205  46.9901517  44.7977956  74.6417392  46.7084199
  43.9722916  74.9405439  47.9417633  31.9111448  68.0676545  41.1979713
  31.1142612  68.1795239  41.7163209  31.6837041  68.4063197  40.3320603
  37.7417116  74.5921248  49.1462227  37.8061549  75.0541655  49.9820399
  37.0328040  73.9618613  49.2744537  28.2434406  67.9562456  46.6711227
  28.4942444  68.8409466  46.9368803  28.7793954  67.7767058  45.8986319
  52.0666506  71.3875953  43.3386488  51.3130214  70.8183352  43.1830493
  52.2014047  71.3538618  44.2857123  37.4565134  76.2589356  39.0141208
  37.3210809  77.1040891  39.4426056  37.9974946  76.4608633  38.2507142
  33.9432473  62.3380936  55.6755563  33.5499419  61.7847134  56.3503207
  34.7598614  62.6491514  56.0662081  30.9094531  73.7764794  39.5869133
  31.4219052  74.5708044  39.7374698  31.5617244  73.0791084  39.5202734
  32.7189416  76.8930550  41.6691886  32.8956044  77.8148515  41.4812870
  33.5146249  76.5788969  42.0986266  36.8600434  63.7538815  53.2675820
  37.6010148  64.3545968  53.1880282  37.0918357  63.0116452  52.7093862
  32.0041772  68.9395182  51.5454049  31.8895288  68.0380439  51.8461148
  31.1486290  69.1858879  51.1938866  39.0833610  76.8812922  53.1441550
  38.6397464  76.0949301  52.8262454  39.7450824  77.0692073  52.4785441
  33.8420731  78.4108724  47.6702228  34.3928156  78.2825787  46.8979222
  33.0032207  78.7103613  47.3197121  41.1814848  77.1615722  51.1722951
  41.1633324  77.9824603  50.6803220  42.1034768  77.0369797  51.3973092
  37.6387902  74.6759852  52.0146460  38.1716239  73.9148140  51.7845767
  37.1101983  74.3833503  52.7570614  40.8057597  59.7819918  47.5440101
  40.4621867  60.6721559  47.4679212  41.1736560  59.5921575  46.6809686
  28.8743448  72.1053448  40.3628703  29.7118670  72.5150456  40.1462411
  29.0521716  71.1652890  40.3328897  40.7707880  69.7728529  36.0512536
  40.2554503  70.5433133  36.2900924  40.4985188  69.0993665  36.6745598
  38.3554991  64.6178230  41.1097775  37.4996587  64.2285080  40.9303413
  38.7681943  64.6970190  40.2497560  39.8854138  62.1524573  45.5089334
  39.3818933  62.1154708  44.6957140  40.1784745  63.0617315  45.5685991
  36.1297024  62.2363302  44.5155516  36.9950020  62.0406111  44.1561406
  36.1974533  62.0073654  45.4424873  45.7442154  72.5260883  37.9865710
  44.9671597  72.1872043  37.5420872  46.4233635  72.5313507  37.3120675
  40.5594183  67.6455621  37.8772318  40.2544319  67.9601770  38.7282461
  41.5124625  67.7237041  37.9199651  39.0040615  73.8045844  39.5265272
  38.4761977  73.0698604  39.2138509  38.5028118  74.5820520  39.2805240
  43.9833461  71.9994865  44.6432318  43.3257136  72.6894126  44.7312446
  44.7873860  72.3891297  44.9866304  33.7359343  64.4665510  41.8871883
  34.3103095  64.2440692  41.1545076  34.3230325  64.5354205  42.6400484
  42.7938920  70.3539237  42.6936260  43.3070802  70.9869229  43.1957969
  43.4440144  69.7540433  42.3279620  34.0628930  66.4969971  35.9067768
  33.2266242  66.8344658  36.2277043  33.9233699  66.3618951  34.9694905
  36.0382010  61.3406759  40.6146952  35.3846423  61.0255776  39.9903567
  35.9962485  60.7182500  41.3406775  37.1493215  71.6226054  32.5300245
  36.2420277  71.3915308  32.7291394  37.6464247  70.8263674  32.7174226
  40.0561294  80.3323562  35.4496931  39.3822993  80.6355258  36.0581889
  40.4427116  81.1352642  35.1002388  39.2719751  67.8288693  44.9394600
  38.3542312  68.0503640  44.7816288  39.6879894  67.9035003  44.0806307
  40.0554799  69.2280109  40.0697280  40.8026617  69.7401506  39.7604402
  40.3246388  68.9064161  40.9301674  38.3281449  71.7238649  37.0524235
  37.4192668  71.4397682  37.1496704  38.3576532  72.1437728  36.1927542
  43.5600716  75.3345239  40.8215402  43.1063043  74.4936149  40.8780593
  42.9294683  75.9706637  41.1590182  42.5033636  66.2637225  42.0516070
  41.7656392  65.7514611  42.3826312  42.7560409  65.8237606  41.2399347
  42.0033655  77.1721735  41.7565220  42.2956630  77.7326793  41.0377586
  42.5132276  77.4650296  42.5118379  42.6045263  59.0413477  42.6457839
  42.9104140  58.1810840  42.3583754  43.3297868  59.6331097  42.4456833
  28.8969619  69.4444163  41.0339437  28.6994019  68.8513524  40.3090503
  28.3416283  69.1396374  41.7515376  36.8766343  69.3367270  43.1534030
  36.9314953  68.3841106  43.0776507  36.0657545  69.4926709  43.6375328
  38.0257536  73.2647393  34.3912313  37.5876966  72.5483252  33.9317951
  38.7667977  73.4923508  33.8297405  34.8158703  67.9544330  40.9124409
  34.0026568  68.2538500  41.3189601  35.3117697  67.5600018  41.6298891
  36.9667281  77.9502087  42.8458674  36.9243459  78.1762933  41.9167206
  37.8829979  77.7165461  42.9944475  40.4132914  68.4186154  49.7439303
  40.7682302  68.6457627  50.6033769  41.0605046  68.7504531  49.1216558
  46.1430651  71.5404590  40.4488632  46.0048550  71.7306186  39.5209821
  45.7866870  72.3023973  40.9056683  34.3072777  65.5262685  46.5285644
  34.9472157  65.3851444  45.8308607  33.4750308  65.2397199  46.1524246
  46.1700031  73.6081117  45.4599903  46.6036538  73.5156406  46.3082957
  46.8831612  73.5838617  44.8219919  35.0833081  74.8265116  42.6420636
  35.8773680  74.3315436  42.4403211  34.3724774  74.2982979  42.2788342
  39.9027926  77.2083211  46.9933004  39.9564948  77.7774147  47.7610720
  39.0342707  77.3785096  46.6287041  31.3915845  68.9708197  38.7180389
  30.4613433  68.9092653  38.9350351  31.4873317  68.4484150  37.9217030
  31.3101394  65.4963010  41.3058631  31.5708211  66.4108343  41.1967791
  32.1318566  65.0287453  41.4555243  32.7826319  66.9100767  48.4757455
  33.4549373  66.7018129  47.8270104  31.9556106  66.7122853  48.0362687
  47.0315580  73.6504818  47.9932789  47.2251471  74.5550628  48.2392064
  46.9316199  73.1912237  48.8271374  38.6851891  63.5362708  50.4923116
  38.0379806  64.2352658  50.3987592  39.4552907  63.9698852  50.8599364
  42.0930689  73.8011560  53.5673669  41.9416196  73.5722112  52.6503753
  42.0835369  74.7582162  53.5805014  38.8616026  71.3743473  48.5519936
  39.7908086  71.5254633  48.3788903  38.4407056  71.4627494  47.6968582
  37.6604357  75.3994138  46.3218473  37.5215443  75.0312922  47.1944411
  36.8718954  75.9141777  46.1502431  38.2552509  80.5003234  37.6644010
  38.4304265  80.0291277  38.4789633  37.5685297  81.1269000  37.8925271
  39.2109572  74.7775740  43.7107311  38.8759405  74.7376510  44.6064961
  38.7113518  74.1120456  43.2377721  33.1853816  70.1843370  49.2359892
  33.0473614  69.4523609  49.8371431  34.0958740  70.0952270  48.9544080
  42.1468764  72.1231775  33.9844371  41.5297935  71.3978603  33.8877423
  41.6785253  72.8841135  33.6411445  35.8136117  69.8963330  48.7243572
  36.5235736  69.2556522  48.6830190  35.7705425  70.1476224  49.6469753
  43.8022896  76.8330683  51.6450151  43.7435442  76.1489903  50.9780734
  44.2042414  77.5749673  51.1930777  34.5265051  66.8828547  50.5439211
  33.9902408  66.4319286  51.1960808  33.9381760  67.0174456  49.8009676
  32.8213595  83.6492597  44.4383870  33.0610193  84.2811121  45.1162889
  31.9782791  83.2980637  44.7249229  33.9367310  66.3417199  33.1065675
  33.0596776  66.2206000  32.7427922  34.4125063  65.5503277  32.8544564
  43.8040303  74.7970267  49.8764131  42.9167082  74.4596189  49.9990530
  44.3738854  74.0653298  50.1132896  25.4569450  71.1294359  43.2007182
  26.1440490  70.8156089  42.6128198  25.3017579  72.0335723  42.9274434
  30.2604172  66.0184555  47.6292206  30.1762361  65.4110225  46.8942616
  29.4386879  66.5093573  47.6301702  37.3341456  79.4571719  46.8425374
  37.2611628  80.2626691  47.3544679  36.8918850  79.6563685  46.0173395
  37.1231236  78.6943489  40.3528196  36.3398758  79.2365169  40.4466420
  37.8223981  79.2117469  40.7522437  40.4327886  64.5038119  42.9962401
  40.9296586  63.7508081  42.6763471  39.6614868  64.5402435  42.4305610
  48.2857644  70.2078484  44.6380692  48.2747520  71.0903200  44.2674626
  47.4175023  69.8550035  44.4435230  39.7940140  79.3558553  48.9983533
  40.5068112  79.9906018  48.9259434  39.3030169  79.4522419  48.1823535
  41.5157667  73.2609806  40.5700824  40.5813946  73.3811268  40.4005529
  41.6934335  72.3582273  40.3060834  37.0162855  66.6455502  42.7234086
  36.6460642  66.0926542  43.4114991  37.5121947  66.0413635  42.1709086
  44.9030218  69.1027125  41.1050859  45.3690670  69.9355117  41.0311161
  45.3537719  68.6372107  41.8096117  34.8452053  77.1052997  49.8189104
  35.5461513  77.7389480  49.9718498  34.3747168  77.4467728  49.0584743
  42.9706449  75.4470947  38.1037011  43.2466293  75.3327541  39.0130885
  42.1010948  75.0488431  38.0649184  42.8746881  61.4707712  45.1441760
  41.9609961  61.7011939  45.3123967  43.3039982  61.5546156  45.9955792
  42.6453339  69.6597604  47.6441654  41.9924790  69.9073512  46.9894107
  43.0233719  68.8461742  47.3104131  39.6060513  79.6957297  41.7469824
  39.7882908  78.8778953  42.2097577  40.4293499  79.9124990  41.3094714
  39.9402679  78.6225482  39.0084873  40.4690445  78.1117937  38.3955035
  40.2030898  78.3068013  39.8730406  38.6940912  70.4017415  54.1307691
  38.0181549  70.3011545  54.8010066  39.5168546  70.2456629  54.5943688
  30.4419772  76.6389352  46.7520206  31.0273208  75.8933040  46.8848110
  30.2444610  76.9493308  47.6356870  33.2958427  79.6740599  41.7682649
  32.6268802  80.1586727  41.2846689  33.1571296  79.9209820  42.6826027
  25.0337426  69.2094952  45.4724649  25.0721526  68.6758543  46.2661767
  24.5277719  68.6830157  44.8535627  37.4363695  81.7084343  48.3665307
  37.9882003  81.8715964  49.1314392  37.7769889  82.2988780  47.6945332
  32.4128189  64.0559492  48.9687192  32.4769515  64.9174323  48.5564589
  32.3495309  63.4433494  48.2359550  31.8880461  66.1282625  52.6160226
  32.5152500  65.7459702  53.2297750  31.0308380  65.9096827  52.9815918
  42.2874570  76.5345600  54.2213961  42.8314474  77.1475558  53.7268916
  41.7061415  77.0925179  54.7380974  28.6646004  67.9359054  38.5478581
  28.9599445  67.0269733  38.4945634  27.7634040  67.9146794  38.2259583
  40.5732083  79.6566318  45.3528989  40.4483222  78.8556058  44.8439935
  41.2311174  80.1512512  44.8642959  32.1940251  66.0115051  44.5306129
  31.4726837  66.6251018  44.3913603  32.9833507  66.5472816  44.4522775
  42.6366991  77.4575338  46.9808539  41.6897327  77.3380689  46.9086866
  42.9849764  76.5697836  47.0634801  34.9966564  63.3469477  50.8046781
  35.5200966  63.5931774  51.5673090  34.7778898  64.1789512  50.3849918
  30.3933845  65.6173152  38.6717906  30.0646552  64.7370531  38.4893012
  30.7473216  65.5620820  39.5594295  39.6413424  77.2528055  43.1812891
  39.4938387  76.3244762  43.3620461  40.4666918  77.2748145  42.6969967
  33.5075669  65.9046122  39.0393384  33.8471741  66.4332043  38.3171992
  33.9547789  66.2426528  39.8151950  43.2447546  78.0756613  44.2677764
  44.1694094  77.8699475  44.1302215  43.0762850  77.8273014  45.1767106
  36.2019109  64.2883172  48.4896452  35.8615930  63.4890985  48.8917132
  35.4958116  64.5884883  47.9173285  36.8535581  61.3732485  46.9423775
  37.6761651  60.8992963  46.8202665  37.0973645  62.1522968  47.4422461
  35.4943816  64.4020743  37.2386676  36.2152178  64.7801996  36.7350393
  34.8709120  65.1209620  37.3421654  39.6374939  65.1065892  38.1745009
  39.8538553  65.9890530  37.8733837  39.1569006  64.7152106  37.4450651
  34.3774160  68.0651605  44.7515753  34.2318741  68.3791908  45.6440035
  33.8999364  68.6836506  44.1986652  36.2370543  65.0554153  44.7996643
  36.2232112  64.1595247  44.4628941  36.9542971  65.0624817  45.4334929
  38.0896674  65.4891494  46.8449770  37.8314451  66.4108564  46.8434101
  37.5581714  65.0921928  47.5350234  43.0342862  78.5942281  39.6239856
  43.2079740  78.0288703  38.8713708  43.5271754  79.3943176  39.4419346
  28.8519822  70.6056950  47.6903414  28.3073290  71.3816758  47.8223689
  29.7299172  70.9527754  47.5322536  35.6407439  63.9368534  40.0684213
  35.7623350  63.0085180  40.2675100  35.3509481  63.9507220  39.1562528
  38.5098629  61.6223444  43.2050933  38.5320326  61.6862777  42.2502912
  38.9266688  60.7827953  43.3991439  48.8882254  71.3578704  41.2430155
  49.3313400  70.6086029  40.8449279  48.0108764  71.3488840  40.8603887
  44.0218035  77.9109045  36.7236754  44.7168939  78.5315738  36.9424069
  44.3641185  77.0604396  36.9989132  29.6385844  69.7326846  50.5833571
  28.8967580  69.8809481  51.1698202  29.3178588  69.9935112  49.7200321
  45.9209458  75.3608751  38.2524085  46.4460782  75.6996023  37.5273405
  45.8331811  74.4255766  38.0687219  37.5829507  79.2742824  50.3813961
  37.8916633  79.0291971  51.2536661  38.3804989  79.4789463  49.8932832
  37.6050119  81.4280734  42.6119338  37.1655109  80.9357113  43.3052195
  38.3558236  80.8853702  42.3711413  30.0842458  77.6192275  42.6143966
  30.9100478  77.3196047  42.2342609  29.7336510  76.8499897  43.0633755
  35.0523991  76.9718743  44.6841640  34.4304000  76.3089448  44.3843867
  35.7228858  76.9979875  44.0015287  28.2851063  75.5378601  43.5732900
  27.4482971  75.1100776  43.3916901  28.2574708  75.7311045  44.5103691
  35.1248518  65.4500531  54.2774146  35.1736674  66.3262654  53.8951915
  35.6671033  64.9077924  53.7045789  45.6103364  75.9941654  53.5575283
  44.8198908  75.9765793  53.0179782  45.3736719  76.5329948  54.3124319
  45.7301239  72.8434121  50.8708011  45.7799244  72.6784128  51.8123534
  45.6215162  71.9761380  50.4805892  34.6137498  75.5222666  38.1600100
  34.7625618  76.2058131  37.5066773  35.4203941  75.5027756  38.6749556
  43.0205001  68.8265049  52.1867318  43.9214864  68.6871514  51.8951316
  43.0952976  68.9919503  53.1265495  37.3547807  66.2031903  51.0320504
  36.4851116  66.4965469  50.7603093  37.5907287  66.7872348  51.7527768
  47.2319436  75.2631062  51.1150033  46.9404244  75.6261043  51.9513494
  46.6191567  74.5498070  50.9363365  48.4315118  72.8283942  43.6352603
  49.2662010  73.2673746  43.7990163  48.5674247  72.3522595  42.8160849
  45.4806624  70.3863677  49.5830091  45.9560746  70.5791323  48.7748942
  44.5572190  70.4422863  49.3373474  32.3690131  71.5487844  39.1661169
  32.1236173  70.6450174  39.3641379  32.5386045  71.5504994  38.2240647
  40.0586841  62.4211520  48.5485925  40.5768785  63.1572547  48.2232413
  39.7041973  62.7275514  49.3832684  31.6385778  67.2816202  36.6647330
  30.9455023  67.3560557  36.0087366  31.3937530  66.5176545  37.1868847
  40.3099435  58.8411803  44.0686821  40.5901189  58.1734992  44.6947248
  41.0950042  59.0340898  43.5561485  38.1132903  78.0170797  35.6311848
  37.5406870  78.6360984  35.1782319  38.6865697  78.5670158  36.1651769
  44.1808293  67.2629437  47.8158396  45.1325716  67.3627535  47.8370620
  44.0111744  66.4707705  48.3256481  42.2022673  64.3485020  48.0017797
  41.6072605  64.6290033  47.3064286  41.9172369  64.8378921  48.7734538
  41.3330163  78.3007947  36.7620430  42.2660836  78.2353509  36.9653305
  41.2453376  79.1364214  36.3034962  43.9618180  77.6173817  33.7224377
  43.8831811  77.2833681  34.6160135  44.7827847  78.1095585  33.7215850
  46.6596371  70.4835557  46.9300696  46.6272691  69.5451557  47.1160380
  47.2696995  70.5619593  46.1966521  38.4979702  69.3531610  32.9727900
  39.4438807  69.2237818  33.0416318  38.1193947  68.6146271  33.4497328
  46.8090859  67.2746600  46.9758979  46.2929908  66.4905057  46.7888908
  47.6930808  66.9465317  47.1405499  44.4701586  61.0187616  42.9354792
  44.2726407  60.7102704  43.8198124  45.0801292  61.7449254  43.0652722
  52.4772921  71.5451563  46.0706733  53.2076309  71.2836852  46.6314436
  51.8679866  70.8080285  46.1108801  50.5588218  69.6859426  46.6681184
  49.8321381  69.5515391  46.0597676  50.1435505  69.9936255  47.4737902
  38.3818394  73.4049356  54.4328557  39.3021404  73.5827955  54.6268604
  38.3467977  72.4605401  54.2808256  36.6822619  67.2781586  32.9082785
  35.7754074  66.9814699  32.9845499  36.9598600  66.9811404  32.0417071
  27.6000559  68.5987949  43.3581832  27.2803344  67.7453258  43.0656206
  27.0533988  68.8136527  44.1139799  31.3780467  71.3150390  47.0751338
  31.5966477  72.2467498  47.0939372  31.7906241  70.9558365  47.8606142
  38.2984685  61.8218476  39.0627027  37.4885413  61.4765561  39.4382273
  38.9869102  61.5126019  39.6514638  40.2275233  60.8996522  40.6851323
  40.7806272  61.3191976  41.3441346  40.4645319  59.9732271  40.7274279
  36.2508332  66.8883596  56.4654087  36.1505059  67.8377953  56.3966178
  36.0329874  66.5601835  55.5930157  35.4521404  64.1368521  33.0494764
  36.3140568  64.4623419  33.3090582  35.6371748  63.3500017  32.5367830
  27.4688819  72.2190861  45.3274953  26.7752291  71.8044814  44.8144908
  28.2161810  72.2611397  44.7308372  43.6054040  63.0097048  40.1929987
  43.0252709  63.6681852  39.8108040  43.3389973  62.1874392  39.7817405
  42.0557606  62.4102105  42.3951308  42.5557385  62.5218640  41.5865627
  42.6993214  62.1063158  43.0352116  36.1139602  70.3180735  55.2819149
  35.6306684  71.1181095  55.4883038  36.2000541  70.3288680  54.3286593
  29.3825562  72.1509115  43.2040968  29.3596250  72.2496802  42.2522851
  29.6926198  72.9974265  43.5258134  32.0412940  74.2085270  47.3187583
  32.9956193  74.1769212  47.2517514  31.8425463  73.7475893  48.1337808
  32.6312322  72.7786386  49.8858380  33.4505211  73.2730464  49.9093217
  32.9049130  71.8618354  49.8575948  42.3878918  65.1697138  39.2486336
  41.5004773  65.4546789  39.0306530  42.8032907  65.0090901  38.4013613
  45.7393454  65.1943659  42.9640675  46.5153844  65.6840111  43.2365292
  45.0141588  65.6201713  43.4212544  48.1766013  65.9071278  44.0214616
  48.7710504  65.6667014  43.3107924  48.2492597  65.1878409  44.6488152
  30.3963169  79.7504889  44.3357780  30.2617636  78.9905290  43.7695778
  29.9795231  80.4745789  43.8686569  41.5322132  74.9341813  33.3434356
  42.2357982  75.1391815  33.9592011  40.8084780  75.5018575  33.6083439
  42.3619942  70.6851674  39.4636626  42.3055143  71.1420225  38.6244258
  42.9148284  69.9242359  39.2859469  46.1724748  66.4741406  40.2886745
  45.9161682  66.0738041  41.1194953  45.5477616  67.1885200  40.1636885
  50.4837086  69.2137479  42.7958037  49.9236644  69.2830668  43.5689599
  49.8780589  69.0378464  42.0757533  33.5532294  80.6474206  44.5476223
  33.4364679  81.5919639  44.4454913  32.7324741  80.3447768  44.9362022
  43.4408829  75.3724342  35.3932816  44.2754433  74.9405540  35.2110291
  43.2793172  75.2006356  36.3209710  43.0954721  71.8756455  36.7589155
  43.0403525  71.7100727  35.8177599  42.4700776  72.5832488  36.9151345
  27.8847236  67.1124520  50.5850577  28.5306100  66.6023474  51.0737802
  27.6764387  67.8493201  51.1594003  40.4100628  74.1805367  56.0842718
  41.2791788  74.3546019  55.7229353  39.9307380  74.9999784  55.9618447
  36.4050847  61.3764564  36.3374473  36.3929516  62.3206404  36.4942744
  37.2974268  61.1934710  36.0433935  34.5786809  81.3002468  47.7632151
  35.4814055  81.3326078  48.0798646  34.3524179  80.3702919  47.7778487
  36.3340411  80.0533455  44.4242230  35.3836042  80.0535316  44.3106602
  36.6372897  79.3066189  43.9078265  40.2202966  57.9707341  40.5920410
  39.4535362  57.4165827  40.7377093  40.6313671  58.0429210  41.4534562
  32.2244727  64.2592137  54.6825591  33.0876189  63.9028941  54.8928916
  31.6510138  63.9206031  55.3700996  52.0693104  85.8893993  45.4887992
  52.7071514  85.7700740  44.7851333  51.9513947  86.8374837  45.5475945
  48.8782810  85.8421421  45.4249517  48.5401322  85.7262486  44.5370052
  49.7472579  85.4412586  45.4050523  44.7369626  87.6956897  41.4146408
  44.1734491  87.6046834  40.6462696  44.6222021  86.8756802  41.8948901
  49.3602593  86.9956273  51.3835723  49.3491234  86.6009071  50.5116226
  49.5223233  86.2622345  51.9769494  42.2834058  89.1908089  44.2530629
  43.0755350  88.8498914  43.8376928  42.5230708  89.3003064  45.1732782
  50.3169185  91.3627865  36.7260873  49.6657164  91.9481946  36.3394887
  51.1113548  91.8934060  36.7855910  44.2424812  88.4517002  37.1248007
  45.0155688  87.9045989  36.9860883  44.5950211  89.3161252  37.3362469
  46.0809854  89.7793385  50.3314907  45.7899720  90.6839015  50.2161573
  46.7166839  89.8209912  51.0458976  47.0066061  87.1570233  46.9216266
  47.6029634  86.9326256  46.2073229  47.0641033  86.4154979  47.5241714
  46.5791090  84.6109668  34.7566457  46.8316610  84.0891190  33.9949920
  45.6415649  84.4475814  34.8593141  51.6234373  83.6145447  42.5641201
  52.4097462  83.1964870  42.2131618  51.8873077  84.5191539  42.7322849
  51.7944450  89.0518297  37.2629857  51.1590283  89.1252924  37.9750762
  51.4641856  89.6411896  36.5848937  57.0242800  83.5520680  43.4674179
  57.7567972  82.9819897  43.7012009  56.2682155  83.1642280  43.9080685
  46.2987378  86.5137774  36.9590832  46.1823637  85.8382678  37.6271917
  46.4089638  86.0270148  36.1422985  48.6418919  85.9747922  40.6637521
  48.2777127  85.4478542  41.3750443  49.4986035  85.5846391  40.4904007
  54.5468220  77.2642254  47.9268788  54.2151545  78.1337665  47.7030003
  53.9513833  76.9478538  48.6062818  48.2824406  81.0037821  35.6598870
  48.4498809  81.8718058  36.0269341  48.0921575  81.1665103  34.7360159
  51.0399740  89.4654800  47.3264700  50.7400463  90.3679839  47.2180508
  50.6950799  89.1986983  48.1785853  44.4912221  85.9168597  43.3601405
  43.5662717  85.7844811  43.5679097  44.7396634  86.6962816  43.8571347
  54.4396883  81.9837340  45.0062138  53.5313761  81.9152749  44.7120899
  54.3884479  82.4609285  45.8343963  48.2613627  83.4595479  36.6445537
  48.1413252  83.9052529  37.4831017  47.5666216  83.8080796  36.0859075
  41.8521032  85.5601870  44.1945194  41.9813413  85.8136349  45.1084606
  41.1718483  86.1529578  43.8749849  46.0220519  96.2299120  40.2935668
  45.9444549  97.1806946  40.3724149  45.4182163  95.8844993  40.9510594
  48.5137749  83.4026986  52.9497035  47.7371083  83.9620906  52.9399900
  49.1528312  83.8883769  53.4711905  56.3058530  80.1853779  46.7840012
  55.6632910  80.4786312  46.1379806  55.8013458  80.0706699  47.5893208
  53.9598693  83.9316952  37.4725871  54.8716549  84.1644339  37.2973568
  53.4508340  84.5153996  36.9100949  46.7684121  86.2112439  52.5115002
  47.5098806  86.7497483  52.2349826  46.0621107  86.8378728  52.6686554
  52.2439461  88.3541580  51.1087163  52.6522817  87.9123990  50.3641796
  51.5216723  87.7794207  51.3621356  48.5970531  83.2914186  48.4820720
  49.4431726  83.7153600  48.6255369  48.5369169  82.6347811  49.1759284
  52.5668276  88.9142770  44.8639452  51.9377138  89.0788484  44.1615520
  52.1793938  89.3284380  45.6350416  56.4457508  89.8497208  42.2183816
  55.7608546  90.2296110  41.6680849  56.5301357  90.4592535  42.9515764
  51.7469976  80.9518555  50.1401894  51.5030908  81.7060615  49.6036170
  52.0229907  81.3303902  50.9749141  53.7008439  87.4957167  48.8179160
  53.9125334  88.1388927  48.1413541  53.6538187  86.6619484  48.3501090
  51.3034668  80.1074988  45.7215732  50.4419147  80.4056241  46.0132469
  51.3297103  80.3245387  44.7896764  48.1196238  88.6517178  42.1289537
  48.5834583  88.9304881  41.3394160  47.8553036  87.7500623  41.9462628
  45.0120319  88.1988660  45.0669301  45.5821676  88.6275928  44.4286785
  45.6028430  87.9171245  45.7653486  47.0565124  84.7740331  38.9379103
  47.7589167  85.2261374  39.4053029  46.7245752  84.1324150  39.5658996
  45.5045485  83.3652087  53.3130312  44.8744146  84.0468368  53.5465709
  45.3981573  83.2535169  52.3683450  40.7990458  83.0323883  44.2396236
  40.0089512  83.2881412  43.7636347  41.2901705  83.8472221  44.3448277
  54.8154267  90.3729123  46.9901517  55.6371711  89.9709310  46.7084199
  54.8116670  90.2697357  47.9417633  42.7505203  83.3968463  41.1979713
  41.9536366  83.5087157  41.7163209  42.5230795  83.7355115  40.3320603
  48.5810871  89.9213166  49.1462227  48.6455303  90.3833573  49.9820399
  47.8721794  89.2910531  49.2744537  39.0828161  83.2854374  46.6711227
  39.3336199  84.1701384  46.9368803  39.6187709  83.1058975  45.8986319
  62.9060260  86.7167871  43.3386488  62.1523969  86.1475269  43.1830493
  63.0407801  86.6830536  44.2857123  48.2958888  91.5881273  39.0141208
  48.1604563  92.4332809  39.4426056  48.8368701  91.7900551  38.2507142
  44.7826228  77.6672853  55.6755563  44.3893173  77.1139052  56.3503207
  45.5992368  77.9783432  56.0662081  41.7488286  89.1056711  39.5869133
  42.2612806  89.8999962  39.7374698  42.4010998  88.4083002  39.5202734
  43.5583170  92.2222468  41.6691886  43.7349799  93.1440432  41.4812870
  44.3540004  91.9080887  42.0986266  47.6994189  79.0830732  53.2675820
  48.4403902  79.6837885  53.1880282  47.9312112  78.3408370  52.7093862
  42.8435527  84.2687100  51.5454049  42.7289042  83.3672357  51.8461148
  41.9880045  84.5150796  51.1938866  49.9227365  92.2104840  53.1441550
  49.4791219  91.4241218  52.8262454  50.5844578  92.3983990  52.4785441
  44.6814486  93.7400642  47.6702228  45.2321911  93.6117705  46.8979222
  43.8425962  94.0395531  47.3197121  52.0208603  92.4907640  51.1722951
  52.0027078  93.3116521  50.6803220  52.9428523  92.3661715  51.3973092
  48.4781657  90.0051769  52.0146460  49.0109994  89.2440058  51.7845767
  47.9495738  89.7125421  52.7570614  51.6451352  75.1111835  47.5440101
  51.3015621  76.0013477  47.4679212  52.0130314  74.9213493  46.6809686
  39.7137202  87.4345366  40.3628703  40.5512424  87.8442374  40.1462411
  39.8915470  86.4944808  40.3328897  51.6101635  85.1020446  36.0512536
  51.0948258  85.8725051  36.2900924  51.3378943  84.4285583  36.6745598
  49.1948746  79.9470147  41.1097775  48.3390342  79.5576998  40.9303413
  49.6075697  80.0262108  40.2497560  50.7247892  77.4816490  45.5089334
  50.2212688  77.4446626  44.6957140  51.0178499  78.3909233  45.5685991
  46.9690778  77.5655220  44.5155516  47.8343775  77.3698029  44.1561406
  47.0368287  77.3365572  45.4424873  56.5835909  87.8552801  37.9865710
  55.8065351  87.5163961  37.5420872  57.2627390  87.8605424  37.3120675
  51.3987938  82.9747538  37.8772318  51.0938073  83.2893688  38.7282461
  52.3518380  83.0528958  37.9199651  49.8434370  89.1337762  39.5265272
  49.3155731  88.3990521  39.2138509  49.3421872  89.9112438  39.2805240
  54.8227216  87.3286782  44.6432318  54.1650890  88.0186044  44.7312446
  55.6267615  87.7183214  44.9866304  44.5753097  79.7957428  41.8871883
  45.1496849  79.5732610  41.1545076  45.1624080  79.8646123  42.6400484
  53.6332674  85.6831155  42.6936260  54.1464556  86.3161147  43.1957969
  54.2833898  85.0832350  42.3279620  44.9022684  81.8261889  35.9067768
  44.0659997  82.1636576  36.2277043  44.7627454  81.6910869  34.9694905
  46.8775765  76.6698677  40.6146952  46.2240177  76.3547694  39.9903567
  46.8356239  76.0474417  41.3406775  47.9886970  86.9517972  32.5300245
  47.0814031  86.7207226  32.7291394  48.4858002  86.1555591  32.7174226
  50.8955049  95.6615479  35.4496931  50.2216747  95.9647176  36.0581889
  51.2820871  96.4644560  35.1002388  50.1113505  83.1580611  44.9394600
  49.1936067  83.3795558  44.7816288  50.5273649  83.2326921  44.0806307
  50.8948553  84.5572026  40.0697280  51.6420372  85.0693423  39.7604402
  51.1640143  84.2356079  40.9301674  49.1675203  87.0530567  37.0524235
  48.2586422  86.7689600  37.1496704  49.1970287  87.4729646  36.1927542
  54.3994471  90.6637156  40.8215402  53.9456798  89.8228066  40.8780593
  53.7688437  91.2998555  41.1590182  53.3427390  81.5929142  42.0516070
  52.6050147  81.0806529  42.3826312  53.5954164  81.1529524  41.2399347
  52.8427410  92.5013653  41.7565220  53.1350384  93.0618710  41.0377586
  53.3526030  92.7942214  42.5118379  53.4439017  74.3705394  42.6457839
  53.7497894  73.5102758  42.3583754  54.1691622  74.9623015  42.4456833
  39.7363374  84.7736081  41.0339437  39.5387773  84.1805442  40.3090503
  39.1810038  84.4688291  41.7515376  47.7160097  84.6659188  43.1534030
  47.7708707  83.7133024  43.0776507  46.9051299  84.8218627  43.6375328
  48.8651291  88.5939311  34.3912313  48.4270721  87.8775170  33.9317951
  49.6061732  88.8215425  33.8297405  45.6552457  83.2836247  40.9124409
  44.8420323  83.5830418  41.3189601  46.1511451  82.8891936  41.6298891
  47.8061035  93.2794004  42.8458674  47.7637214  93.5054851  41.9167206
  48.7223734  93.0457379  42.9944475  51.2526669  83.7478072  49.7439303
  51.6076057  83.9749545  50.6033769  51.8998800  84.0796449  49.1216558
  56.9824406  86.8696508  40.4488632  56.8442304  87.0598104  39.5209821
  56.6260625  87.6315890  40.9056683  45.1466532  80.8554603  46.5285644
  45.7865911  80.7143362  45.8308607  44.3144062  80.5689116  46.1524246
  57.0093785  88.9373035  45.4599903  57.4430292  88.8448324  46.3082957
  57.7225366  88.9130535  44.8219919  45.9226836  90.1557033  42.6420636
  46.7167434  89.6607353  42.4403211  45.2118528  89.6274896  42.2788342
  50.7421680  92.5375129  46.9933004  50.7958703  93.1066065  47.7610720
  49.8736462  92.7077014  46.6287041  42.2309599  84.3000115  38.7180389
  41.3007187  84.2384570  38.9350351  42.3267071  83.7776068  37.9217030
  42.1495148  80.8254928  41.3058631  42.4101966  81.7400261  41.1967791
  42.9712321  80.3579370  41.4555243  43.6220074  82.2392685  48.4757455
  44.2943127  82.0310047  47.8270104  42.7949860  82.0414771  48.0362687
  57.8709335  88.9796735  47.9932789  58.0645225  89.8842546  48.2392064
  57.7709953  88.5204154  48.8271374  49.5245646  78.8654626  50.4923116
  48.8773561  79.5644576  50.3987592  50.2946661  79.2990770  50.8599364
  52.9324444  89.1303478  53.5673669  52.7809950  88.9014030  52.6503753
  52.9229123  90.0874079  53.5805014  49.7009780  86.7035391  48.5519936
  50.6301840  86.8546550  48.3788903  49.2800810  86.7919412  47.6968582
  48.4998112  90.7286055  46.3218473  48.3609197  90.3604840  47.1944411
  47.7112708  91.2433695  46.1502431  49.0946264  95.8295152  37.6644010
  49.2698019  95.3583195  38.4789633  48.4079052  96.4560918  37.8925271
  50.0503327  90.1067658  43.7107311  49.7153160  90.0668428  44.6064961
  49.5507273  89.4412374  43.2377721  44.0247571  85.5135288  49.2359892
  43.8867369  84.7815527  49.8371431  44.9352494  85.4244188  48.9544080
  52.9862519  87.4523692  33.9844371  52.3691689  86.7270520  33.8877423
  52.5179007  88.2133053  33.6411445  46.6529872  85.2255247  48.7243572
  47.3629490  84.5848439  48.6830190  46.6099180  85.4768142  49.6469753
  54.6416650  92.1622601  51.6450151  54.5829196  91.4781821  50.9780734
  55.0436169  92.9041591  51.1930777  45.3658806  82.2120465  50.5439211
  44.8296163  81.7611204  51.1960808  44.7775514  82.3466374  49.8009676
  43.6607349  98.9784514  44.4383870  43.9003947  99.6103039  45.1162889
  42.8176546  98.6272554  44.7249229  44.7761065  81.6709117  33.1065675
  43.8990531  81.5497917  32.7427922  45.2518818  80.8795195  32.8544564
  54.6434058  90.1262185  49.8764131  53.7560836  89.7888106  49.9990530
  55.2132609  89.3945216  50.1132896  36.2963205  86.4586276  43.2007182
  36.9834244  86.1448006  42.6128198  36.1411333  87.3627641  42.9274434
  41.0997927  81.3476473  47.6292206  41.0156116  80.7402142  46.8942616
  40.2780633  81.8385491  47.6301702  48.1735211  94.7863637  46.8425374
  48.1005382  95.5918608  47.3544679  47.7312604  94.9855603  46.0173395
  47.9624991  94.0235407  40.3528196  47.1792512  94.5657087  40.4466420
  48.6617736  94.5409387  40.7522437  51.2721641  79.8330036  42.9962401
  51.7690340  79.0799999  42.6763471  50.5008622  79.8694353  42.4305610
  59.1251398  85.5370402  44.6380692  59.1141274  86.4195117  44.2674626
  58.2568777  85.1841953  44.4435230  50.6333894  94.6850471  48.9983533
  51.3461867  95.3197936  48.9259434  50.1423923  94.7814337  48.1823535
  52.3551421  88.5901724  40.5700824  51.4207700  88.7103186  40.4005529
  52.5328090  87.6874190  40.3060834  47.8556609  81.9747419  42.7234086
  47.4854397  81.4218460  43.4114991  48.3515702  81.3705553  42.1709086
  55.7423973  84.4319043  41.1050859  56.2084425  85.2647034  41.0311161
  56.1931473  83.9664024  41.8096117  45.6845808  92.4344914  49.8189104
  46.3855267  93.0681397  49.9718498  45.2140923  92.7759646  49.0584743
  53.8100204  90.7762864  38.1037011  54.0860048  90.6619459  39.0130885
  52.9404703  90.3780349  38.0649184  53.7140635  76.7999630  45.1441760
  52.8003715  77.0303857  45.3123967  54.1433737  76.8838074  45.9955792
  53.4847094  84.9889522  47.6441654  52.8318544  85.2365429  46.9894107
  53.8627474  84.1753660  47.3104131  50.4454268  95.0249215  41.7469824
  50.6276662  94.2070871  42.2097577  51.2687254  95.2416907  41.3094714
  50.7796433  93.9517400  39.0084873  51.3084200  93.4409855  38.3955035
  51.0424653  93.6359930  39.8730406  49.5334667  85.7309333  54.1307691
  48.8575304  85.6303462  54.8010066  50.3562301  85.5748547  54.5943688
  41.2813526  91.9681269  46.7520206  41.8666963  91.2224957  46.8848110
  41.0838364  92.2785226  47.6356870  44.1352181  95.0032517  41.7682649
  43.4662557  95.4878644  41.2846689  43.9965051  95.2501737  42.6826027
  35.8731181  84.5386870  45.4724649  35.9115280  84.0050460  46.2661767
  35.3671474  84.0122075  44.8535627  48.2757450  97.0376260  48.3665307
  48.8275758  97.2007882  49.1314392  48.6163643  97.6280698  47.6945332
  43.2521943  79.3851410  48.9687192  43.3163270  80.2466241  48.5564589
  43.1889063  78.7725412  48.2359550  42.7274216  81.4574543  52.6160226
  43.3546254  81.0751620  53.2297750  41.8702134  81.2388745  52.9815918
  53.1268324  91.8637518  54.2213961  53.6708228  92.4767476  53.7268916
  52.5455169  92.4217096  54.7380974  39.5039758  83.2650972  38.5478581
  39.7993199  82.3561650  38.4945634  38.6027794  83.2438711  38.2259583
  51.4125837  94.9858236  45.3528989  51.2876977  94.1847976  44.8439935
  52.0704928  95.4804429  44.8642959  43.0334005  81.3406968  44.5306129
  42.3120591  81.9542936  44.3913603  43.8227261  81.8764733  44.4522775
  53.4760745  92.7867256  46.9808539  52.5291081  92.6672607  46.9086866
  53.8243519  91.8989754  47.0634801  45.8360319  78.6761395  50.8046781
  46.3594721  78.9223691  51.5673090  45.6172652  79.5081430  50.3849918
  41.2327600  80.9465069  38.6717906  40.9040306  80.0662448  38.4893012
  41.5866971  80.8912738  39.5594295  50.4807179  92.5819972  43.1812891
  50.3332141  91.6536680  43.3620461  51.3060672  92.6040063  42.6969967
  44.3469423  81.2338039  39.0393384  44.6865496  81.7623961  38.3171992
  44.7941544  81.5718445  39.8151950  54.0841301  93.4048531  44.2677764
  55.0087848  93.1991392  44.1302215  53.9156604  93.1564932  45.1767106
  47.0412864  79.6175090  48.4896452  46.7009684  78.8182903  48.8917132
  46.3351870  79.9176801  47.9173285  47.6929336  76.7024402  46.9423775
  48.5155405  76.2284881  46.8202665  47.9367399  77.4814886  47.4422461
  46.3337570  79.7312661  37.2386676  47.0545933  80.1093914  36.7350393
  45.7102874  80.4501538  37.3421654  50.4768693  80.4357810  38.1745009
  50.6932307  81.3182448  37.8733837  49.9962760  80.0444023  37.4450651
  45.2167914  83.3943523  44.7515753  45.0712495  83.7083826  45.6440035
  44.7393118  84.0128423  44.1986652  47.0764297  80.3846071  44.7996643
  47.0625866  79.4887164  44.4628941  47.7936725  80.3916735  45.4334929
  48.9290428  80.8183411  46.8449770  48.6708206  81.7400482  46.8434101
  48.3975468  80.4213846  47.5350234  53.8736617  93.9234198  39.6239856
  54.0473494  93.3580621  38.8713708  54.3665508  94.7235093  39.4419346
  39.6913577  85.9348867  47.6903414  39.1467045  86.7108675  47.8223689
  40.5692927  86.2819672  47.5322536  46.4801193  79.2660451  40.0684213
  46.6017105  78.3377097  40.2675100  46.1903236  79.2799137  39.1562528
  49.3492384  76.9515362  43.2050933  49.3714081  77.0154695  42.2502912
  49.7660443  76.1119870  43.3991439  59.7276008  86.6870621  41.2430155
  60.1707154  85.9377947  40.8449279  58.8502518  86.6780758  40.8603887
  54.8611789  93.2400963  36.7236754  55.5562694  93.8607655  36.9424069
  55.2034939  92.3896314  36.9989132  40.4779599  85.0618764  50.5833571
  39.7361335  85.2101399  51.1698202  40.1572343  85.3227029  49.7200321
  56.7603212  90.6900668  38.2524085  57.2854537  91.0287941  37.5273405
  56.6725565  89.7547684  38.0687219  48.4223261  94.6034742  50.3813961
  48.7310388  94.3583889  51.2536661  49.2198743  94.8081380  49.8932832
  48.4443873  96.7572652  42.6119338  48.0048863  96.2649030  43.3052195
  49.1951990  96.2145619  42.3711413  40.9236212  92.9484192  42.6143966
  41.7494232  92.6487964  42.2342609  40.5730264  92.1791815  43.0633755
  45.8917745  92.3010661  44.6841640  45.2697755  91.6381366  44.3843867
  46.5622612  92.3271793  44.0015287  39.1244817  90.8670519  43.5732900
  38.2876726  90.4392693  43.3916901  39.0968463  91.0602962  44.5103691
  45.9642273  80.7792449  54.2774146  46.0130428  81.6554571  53.8951915
  46.5064787  80.2369842  53.7045789  56.4497119  91.3233572  53.5575283
  55.6592662  91.3057711  53.0179782  56.2130473  91.8621866  54.3124319
  56.5694994  88.1726038  50.8708011  56.6192999  88.0076046  51.8123534
  56.4608917  87.3053297  50.4805892  45.4531252  90.8514584  38.1600100
  45.6019373  91.5350048  37.5066773  46.2597696  90.8319674  38.6749556
  53.8598756  84.1556966  52.1867318  54.7608619  84.0163431  51.8951316
  53.9346730  84.3211421  53.1265495  48.1941561  81.5323821  51.0320504
  47.3244871  81.8257387  50.7603093  48.4301042  82.1164266  51.7527768
  58.0713190  90.5922980  51.1150033  57.7797999  90.9552960  51.9513494
  57.4585322  89.8789988  50.9363365  59.2708873  88.1575860  43.6352603
  60.1055764  88.5965664  43.7990163  59.4068002  87.6814513  42.8160849
  56.3200379  85.7155594  49.5830091  56.7954500  85.9083241  48.7748942
  55.3965944  85.7714780  49.3373474  43.2083885  86.8779762  39.1661169
  42.9629927  85.9742092  39.3641379  43.3779800  86.8796912  38.2240647
  50.8980595  77.7503438  48.5485925  51.4162539  78.4864465  48.2232413
  50.5435728  78.0567431  49.3832684  42.4779533  82.6108119  36.6647330
  41.7848778  82.6852474  36.0087366  42.2331285  81.8468463  37.1868847
  51.1493189  74.1703721  44.0686821  51.4294943  73.5026910  44.6947248
  51.9343796  74.3632816  43.5561485  48.9526658  93.3462714  35.6311848
  48.3800625  93.9652902  35.1782319  49.5259451  93.8962076  36.1651769
  55.0202048  82.5921355  47.8158396  55.9719471  82.6919452  47.8370620
  54.8505498  81.7999623  48.3256481  53.0416427  79.6776938  48.0017797
  52.4466359  79.9581950  47.3064286  52.7566124  80.1670839  48.7734538
  52.1723918  93.6299865  36.7620430  53.1054591  93.5645426  36.9653305
  52.0847130  94.4656131  36.3034962  54.8011934  92.9465735  33.7224377
  54.7225566  92.6125599  34.6160135  55.6221601  93.4387503  33.7215850
  57.4990125  85.8127474  46.9300696  57.4666446  84.8743475  47.1160380
  58.1090749  85.8911511  46.1966521  49.3373456  84.6823527  32.9727900
  50.2832561  84.5529735  33.0416318  48.9587701  83.9438189  33.4497328
  57.6484614  82.6038518  46.9758979  57.1323663  81.8196974  46.7888908
  58.5324562  82.2757234  47.1405499  55.3095341  76.3479533  42.9354792
  55.1120162  76.0394621  43.8198124  55.9195046  77.0741172  43.0652722
  63.3166675  86.8743481  46.0706733  64.0470064  86.6128769  46.6314436
  62.7073621  86.1372203  46.1108801  61.3981972  85.0151344  46.6681184
  60.6715136  84.8807309  46.0597676  60.9829259  85.3228172  47.4737902
  49.2212149  88.7341273  54.4328557  50.1415158  88.9119872  54.6268604
  49.1861732  87.7897319  54.2808256  47.5216373  82.6073504  32.9082785
  46.6147829  82.3106616  32.9845499  47.7992354  82.3103322  32.0417071
  38.4394314  83.9279867  43.3581832  38.1197098  83.0745175  43.0656206
  37.8927742  84.1428445  44.1139799  42.2174221  86.6442308  47.0751338
  42.4360231  87.5759416  47.0939372  42.6299995  86.2850282  47.8606142
  49.1378439  77.1510393  39.0627027  48.3279167  76.8057478  39.4382273
  49.8262856  76.8417937  39.6514638  51.0668987  76.2288440  40.6851323
  51.6200026  76.6483894  41.3441346  51.3039074  75.3024188  40.7274279
  47.0902087  82.2175514  56.4654087  46.9898814  83.1669871  56.3966178
  46.8723629  81.8893753  55.5930157  46.2915158  79.4660439  33.0494764
  47.1534322  79.7915337  33.3090582  46.4765502  78.6791935  32.5367830
  38.3082574  87.5482778  45.3274953  37.6146045  87.1336731  44.8144908
  39.0555565  87.5903315  44.7308372  54.4447795  78.3388965  40.1929987
  53.8646464  78.9973769  39.8108040  54.1783727  77.5166310  39.7817405
  52.8951361  77.7394023  42.3951308  53.3951139  77.8510558  41.5865627
  53.5386969  77.4355076  43.0352116  46.9533357  85.6472653  55.2819149
  46.4700438  86.4473013  55.4883038  47.0394296  85.6580597  54.3286593
  40.2219316  87.4801032  43.2040968  40.1990004  87.5788720  42.2522851
  40.5319953  88.3266183  43.5258134  42.8806694  89.5377187  47.3187583
  43.8349948  89.5061130  47.2517514  42.6819218  89.0767811  48.1337808
  43.4706076  88.1078303  49.8858380  44.2898965  88.6022382  49.9093217
  43.7442884  87.1910271  49.8575948  53.2272673  80.4989056  39.2486336
  52.3398528  80.7838706  39.0306530  53.6426662  80.3382819  38.4013613
  56.5787209  80.5235577  42.9640675  57.3547599  81.0132029  43.2365292
  55.8535343  80.9493631  43.4212544  59.0159767  81.2363196  44.0214616
  59.6104258  80.9958932  43.3107924  59.0886351  80.5170326  44.6488152
  41.2356923  95.0796807  44.3357780  41.1011391  94.3197208  43.7695778
  40.8188985  95.8037707  43.8686569  52.3715886  90.2633730  33.3434356
  53.0751736  90.4683733  33.9592011  51.6478535  90.8310492  33.6083439
  53.2013696  86.0143592  39.4636626  53.1448898  86.4712143  38.6244258
  53.7542039  85.2534276  39.2859469  57.0118502  81.8033323  40.2886745
  56.7555436  81.4029959  41.1194953  56.3871370  82.5177117  40.1636885
  61.3230840  84.5429397  42.7958037  60.7630398  84.6122586  43.5689599
  60.7174343  84.3670381  42.0757533  44.3926049  95.9766124  44.5476223
  44.2758433  96.9211556  44.4454913  43.5718495  95.6739685  44.9362022
  54.2802583  90.7016260  35.3932816  55.1148187  90.2697458  35.2110291
  54.1186926  90.5298273  36.3209710  53.9348476  87.2048373  36.7589155
  53.8797279  87.0392644  35.8177599  53.3094531  87.9124406  36.9151345
  38.7240991  82.4416437  50.5850577  39.3699854  81.9315391  51.0737802
  38.5158142  83.1785119  51.1594003  51.2494383  89.5097285  56.0842718
  52.1185542  89.6837937  55.7229353  50.7701134  90.3291702  55.9618447
  47.2444601  76.7056482  36.3374473  47.2323271  77.6498322  36.4942744
  48.1368023  76.5226627  36.0433935  45.4180563  96.6294386  47.7632151
  46.3207810  96.6617996  48.0798646  45.1917933  95.6994837  47.7778487
  47.1734165  95.3825372  44.4242230  46.2229796  95.3827234  44.3106602
  47.4766651  94.6358107  43.9078265  51.0596721  73.2999258  40.5920410
  50.2929116  72.7457745  40.7377093  51.4707426  73.3721127  41.4534562
  43.0638482  79.5884054  54.6825591  43.9269943  79.2320859  54.8928916
  42.4903892  79.2497949  55.3700996  62.9086859 101.2185911  45.4887992
  63.5465268 101.0992658  44.7851333  62.7907701 102.1666755  45.5475945
  59.7176565 101.1713339  45.4249517  59.3795076 101.0554403  44.5370052
  60.5866333 100.7704504  45.4050523  55.5763380 103.0248815  41.4146408
  55.0128246 102.9338752  40.6462696  55.4615776 102.2048720  41.8948901
  60.1996348 102.3248190  51.3835723  60.1884989 101.9300989  50.5116226
  60.3616987 101.5914263  51.9769494  53.1227812 104.5200007  44.2530629
  53.9149104 104.1790831  43.8376928  53.3624463 104.6294982  45.1732782
  61.1562939 106.6919783  36.7260873  60.5050919 107.2773863  36.3394887
  61.9507302 107.2225978  36.7855910  55.0818566 103.7808920  37.1248007
  55.8549442 103.2337907  36.9860883  55.4343965 104.6453169  37.3362469
  56.9203609 105.1085302  50.3314907  56.6293475 106.0130933  50.2161573
  57.5560593 105.1501830  51.0458976  57.8459816 102.4862151  46.9216266
  58.4423388 102.2618173  46.2073229  57.9034787 101.7446896  47.5241714
  57.4184844  99.9401586  34.7566457  57.6710365  99.4183107  33.9949920
  56.4809403  99.7767732  34.8593141  62.4628127  98.9437364  42.5641201
  63.2491216  98.5256788  42.2131618  62.7266831  99.8483457  42.7322849
  62.6338204 104.3810215  37.2629857  61.9984037 104.4544841  37.9750762
  62.3035611 104.9703814  36.5848937  67.8636554  98.8812598  43.4674179
  68.5961726  98.3111814  43.7012009  67.1075910  98.4934198  43.9080685
  57.1381133 101.8429692  36.9590832  57.0217391 101.1674595  37.6271917
  57.2483393 101.3562066  36.1422985  59.4812674 101.3039839  40.6637521
  59.1170881 100.7770460  41.3750443  60.3379790 100.9138308  40.4904007
  65.3861974  92.5934172  47.9268788  65.0545299  93.4629583  47.7030003
  64.7907588  92.2770456  48.6062818  59.1218161  96.3329739  35.6598870
  59.2892563  97.2009975  36.0269341  58.9315330  96.4957021  34.7360159
  61.8793494 104.7946718  47.3264700  61.5794217 105.6971757  47.2180508
  61.5344554 104.5278901  48.1785853  55.3305975 101.2460515  43.3601405
  54.4056472 101.1136729  43.5679097  55.5790389 102.0254734  43.8571347
  65.2790638  97.3129258  45.0062138  64.3707515  97.2444666  44.7120899
  65.2278234  97.7901203  45.8343963  59.1007382  98.7887396  36.6445537
  58.9807007  99.2344447  37.4831017  58.4059970  99.1372714  36.0859075
  52.6914787 100.8893788  44.1945194  52.8207168 101.1428267  45.1084606
  52.0112238 101.4821496  43.8749849  56.8614274 111.5591038  40.2935668
  56.7838304 112.5098863  40.3724149  56.2575917 111.2136911  40.9510594
  59.3531504  98.7318904  52.9497035  58.5764838  99.2912824  52.9399900
  59.9922067  99.2175687  53.4711905  67.1452284  95.5145696  46.7840012
  66.5026664  95.8078230  46.1379806  66.6407213  95.3998617  47.5893208
  64.7992448  99.2608870  37.4725871  65.7110304  99.4936256  37.2973568
  64.2902095  99.8445914  36.9100949  57.6077876 101.5404357  52.5115002
  58.3492560 102.0789401  52.2349826  56.9014861 102.1670646  52.6686554
  63.0833216 103.6833497  51.1087163  63.4916572 103.2415908  50.3641796
  62.3610477 103.1086125  51.3621356  59.4364286  98.6206104  48.4820720
  60.2825481  99.0445518  48.6255369  59.3762923  97.9639728  49.1759284
  63.4062030 104.2434688  44.8639452  62.7770893 104.4080402  44.1615520
  63.0187692 104.6576298  45.6350416  67.2851262 105.1789126  42.2183816
  66.6002300 105.5588027  41.6680849  67.3695111 105.7884453  42.9515764
  62.5863731  96.2810473  50.1401894  62.3424663  97.0352533  49.6036170
  62.8623661  96.6595820  50.9749141  64.5402194 102.8249085  48.8179160
  64.7519089 103.4680845  48.1413541  64.4931942 101.9911401  48.3501090
  62.1428423  95.4366906  45.7215732  61.2812902  95.7348159  46.0132469
  62.1690857  95.6537304  44.7896764  58.9589992 103.9809096  42.1289537
  59.4228338 104.2596799  41.3394160  58.6946790 103.0792541  41.9462628
  55.8514073 103.5280578  45.0669301  56.4215430 103.9567846  44.4286785
  56.4422185 103.2463162  45.7653486  57.8958878 100.1032248  38.9379103
  58.5982921 100.5553292  39.4053029  57.5639507  99.4616067  39.5658996
  56.3439240  98.6944005  53.3130312  55.7137900  99.3760286  53.5465709
  56.2375328  98.5827087  52.3683450  51.6384212  98.3615801  44.2396236
  50.8483266  98.6173330  43.7636347  52.1295459  99.1764139  44.3448277
  65.6548022 105.7021040  46.9901517  66.4765465 105.3001228  46.7084199
  65.6510425 105.5989274  47.9417633  53.5898957  98.7260380  41.1979713
  52.7930121  98.8379075  41.7163209  53.3624550  99.0647033  40.3320603
  59.4204625 105.2505084  49.1462227  59.4849058 105.7125491  49.9820399
  58.7115549 104.6202449  49.2744537  49.9221915  98.6146292  46.6711227
  50.1729953  99.4993301  46.9368803  50.4581463  98.4350893  45.8986319
  73.7454015 102.0459789  43.3386488  72.9917723 101.4767187  43.1830493
  73.8801556 102.0122453  44.2857123  59.1352643 106.9173191  39.0141208
  58.9998318 107.7624727  39.4426056  59.6762455 107.1192469  38.2507142
  55.6219982  92.9964771  55.6755563  55.2286928  92.4430969  56.3503207
  56.4386123  93.3075349  56.0662081  52.5882040 104.4348629  39.5869133
  53.1006561 105.2291879  39.7374698  53.2404753 103.7374920  39.5202734
  54.3976925 107.5514385  41.6691886  54.5743553 108.4732350  41.4812870
  55.1933758 107.2372805  42.0986266  58.5387943  94.4122650  53.2675820
  59.2797657  95.0129803  53.1880282  58.7705866  93.6700288  52.7093862
  53.6829281  99.5979017  51.5454049  53.5682797  98.6964275  51.8461148
  52.8273799  99.8442714  51.1938866  60.7621119 107.5396758  53.1441550
  60.3184973 106.7533136  52.8262454  61.4238333 107.7275908  52.4785441
  55.5208240 109.0692559  47.6702228  56.0715665 108.9409623  46.8979222
  54.6819716 109.3687448  47.3197121  62.8602357 107.8199558  51.1722951
  62.8420833 108.6408439  50.6803220  63.7822277 107.6953633  51.3973092
  59.3175411 105.3343687  52.0146460  59.8503748 104.5731975  51.7845767
  58.7889492 105.0417339  52.7570614  62.4845106  90.4403753  47.5440101
  62.1409376  91.3305395  47.4679212  62.8524069  90.2505411  46.6809686
  50.5530957 102.7637283  40.3628703  51.3906179 103.1734292  40.1462411
  50.7309225 101.8236726  40.3328897  62.4495389 100.4312364  36.0512536
  61.9342012 101.2016969  36.2900924  62.1772697  99.7577500  36.6745598
  60.0342500  95.2762065  41.1097775  59.1784096  94.8868915  40.9303413
  60.4469452  95.3554026  40.2497560  61.5641647  92.8108408  45.5089334
  61.0606442  92.7738543  44.6957140  61.8572254  93.7201151  45.5685991
  57.8084533  92.8947138  44.5155516  58.6737529  92.6989947  44.1561406
  57.8762041  92.6657490  45.4424873  67.4229663 103.1844719  37.9865710
  66.6459106 102.8455878  37.5420872  68.1021144 103.1897342  37.3120675
  62.2381692  98.3039456  37.8772318  61.9331828  98.6185605  38.7282461
  63.1912134  98.3820876  37.9199651  60.6828124 104.4629679  39.5265272
  60.1549486 103.7282439  39.2138509  60.1815627 105.2404356  39.2805240
  65.6620970 102.6578700  44.6432318  65.0044644 103.3477961  44.7312446
  66.4661369 103.0475132  44.9866304  55.4146852  95.1249346  41.8871883
  55.9890604  94.9024527  41.1545076  56.0017834  95.1938040  42.6400484
  64.4726429 101.0123073  42.6936260  64.9858311 101.6453065  43.1957969
  65.1227653 100.4124268  42.3279620  55.7416439  97.1553807  35.9067768
  54.9053751  97.4928493  36.2277043  55.6021208  97.0202787  34.9694905
  57.7169519  91.9990595  40.6146952  57.0633932  91.6839612  39.9903567
  57.6749994  91.3766335  41.3406775  58.8280724 102.2809890  32.5300245
  57.9207786 102.0499143  32.7291394  59.3251756 101.4847509  32.7174226
  61.7348803 110.9907397  35.4496931  61.0610502 111.2939094  36.0581889
  62.1214625 111.7936477  35.1002388  60.9507260  98.4872528  44.9394600
  60.0329821  98.7087475  44.7816288  61.3667403  98.5618839  44.0806307
  61.7342307  99.8863944  40.0697280  62.4814126 100.3985341  39.7604402
  62.0033897  99.5647997  40.9301674  60.0068958 102.3822485  37.0524235
  59.0980177 102.0981517  37.1496704  60.0364041 102.8021563  36.1927542
  65.2388225 105.9929074  40.8215402  64.7850552 105.1519984  40.8780593
  64.6082192 106.6290472  41.1590182  64.1821145  96.9221060  42.0516070
  63.4443901  96.4098446  42.3826312  64.4347918  96.4821442  41.2399347
  63.6821164 107.8305571  41.7565220  63.9744139 108.3910628  41.0377586
  64.1919785 108.1234132  42.5118379  64.2832772  89.6997312  42.6457839
  64.5891649  88.8394676  42.3583754  65.0085377  90.2914932  42.4456833
  50.5757128 100.1027999  41.0339437  50.3781528  99.5097359  40.3090503
  50.0203792  99.7980209  41.7515376  58.5553852  99.9951105  43.1534030
  58.6102461  99.0424942  43.0776507  57.7445054 100.1510544  43.6375328
  59.7045045 103.9231228  34.3912313  59.2664475 103.2067087  33.9317951
  60.4455486 104.1507343  33.8297405  56.4946212  98.6128165  40.9124409
  55.6814077  98.9122336  41.3189601  56.9905206  98.2183854  41.6298891
  58.6454790 108.6085922  42.8458674  58.6030968 108.8346768  41.9167206
  59.5617488 108.3749296  42.9944475  62.0920423  99.0769989  49.7439303
  62.4469811  99.3041463  50.6033769  62.7392555  99.4088366  49.1216558
  67.8218160 102.1988425  40.4488632  67.6836059 102.3890021  39.5209821
  67.4654379 102.9607808  40.9056683  55.9860286  96.1846520  46.5285644
  56.6259666  96.0435280  45.8308607  55.1537817  95.8981034  46.1524246
  67.8487540 104.2664952  45.4599903  68.2824047 104.1740241  46.3082957
  68.5619121 104.2422453  44.8219919  56.7620590 105.4848951  42.6420636
  57.5561189 104.9899271  42.4403211  56.0512283 104.9566814  42.2788342
  61.5815435 107.8667046  46.9933004  61.6352457 108.4357983  47.7610720
  60.7130216 108.0368931  46.6287041  53.0703354  99.6292033  38.7180389
  52.1400942  99.5676488  38.9350351  53.1660826  99.1067985  37.9217030
  52.9888903  96.1546845  41.3058631  53.2495720  97.0692179  41.1967791
  53.8106075  95.6871288  41.4555243  54.4613828  97.5684603  48.4757455
  55.1336882  97.3601965  47.8270104  53.6343615  97.3706689  48.0362687
  68.7103089 104.3088653  47.9932789  68.9038979 105.2134463  48.2392064
  68.6103708 103.8496072  48.8271374  60.3639400  94.1946544  50.4923116
  59.7167315  94.8936493  50.3987592  61.1340416  94.6282687  50.8599364
  63.7718198 104.4595396  53.5673669  63.6203705 104.2305947  52.6503753
  63.7622878 105.4165997  53.5805014  60.5403534 102.0327308  48.5519936
  61.4695595 102.1838468  48.3788903  60.1194565 102.1211329  47.6968582
  59.3391866 106.0577973  46.3218473  59.2002952 105.6896757  47.1944411
  58.5506463 106.5725612  46.1502431  59.9340018 111.1587069  37.6644010
  60.1091774 110.6875113  38.4789633  59.2472806 111.7852836  37.8925271
  60.8897081 105.4359576  43.7107311  60.5546914 105.3960346  44.6064961
  60.3901027 104.7704292  43.2377721  54.8641325 100.8427206  49.2359892
  54.7261123 100.1107444  49.8371431  55.7746249 100.7536106  48.9544080
  63.8256273 102.7815610  33.9844371  63.2085444 102.0562438  33.8877423
  63.3572762 103.5424970  33.6411445  57.4923626 100.5547165  48.7243572
  58.2023245  99.9140357  48.6830190  57.4492934 100.8060060  49.6469753
  65.4810405 107.4914518  51.6450151  65.4222951 106.8073738  50.9780734
  65.8829923 108.2333508  51.1930777  56.2052560  97.5412383  50.5439211
  55.6689917  97.0903121  51.1960808  55.6169268  97.6758292  49.8009676
  54.5001104 114.3076432  44.4383870  54.7397702 114.9394956  45.1162889
  53.6570300 113.9564472  44.7249229  55.6154819  97.0001034  33.1065675
  54.7384285  96.8789835  32.7427922  56.0912572  96.2087113  32.8544564
  65.4827812 105.4554102  49.8764131  64.5954591 105.1180024  49.9990530
  66.0526363 104.7237133  50.1132896  47.1356959 101.7878194  43.2007182
  47.8227999 101.4739924  42.6128198  46.9805088 102.6919559  42.9274434
  51.9391681  96.6768391  47.6292206  51.8549870  96.0694060  46.8942616
  51.1174388  97.1677409  47.6301702  59.0128965 110.1155555  46.8425374
  58.9399137 110.9210526  47.3544679  58.5706359 110.3147520  46.0173395
  58.8018745 109.3527325  40.3528196  58.0186267 109.8949005  40.4466420
  59.5011490 109.8701304  40.7522437  62.1115395  95.1621954  42.9962401
  62.6084095  94.4091916  42.6763471  61.3402377  95.1986271  42.4305610
  69.9645153 100.8662320  44.6380692  69.9535029 101.7487035  44.2674626
  69.0962532 100.5133870  44.4435230  61.4727649 110.0142389  48.9983533
  62.1855621 110.6489853  48.9259434  60.9817678 110.1106255  48.1823535
  63.1945176 103.9193641  40.5700824  62.2601455 104.0395104  40.4005529
  63.3721844 103.0166108  40.3060834  58.6950364  97.3039337  42.7234086
  58.3248151  96.7510377  43.4114991  59.1909456  96.6997471  42.1709086
  66.5817727  99.7610961  41.1050859  67.0478179 100.5938952  41.0311161
  67.0325228  99.2955942  41.8096117  56.5239562 107.7636832  49.8189104
  57.2249022 108.3973315  49.9718498  56.0534677 108.1051564  49.0584743
  64.6493958 106.1054782  38.1037011  64.9253802 105.9911376  39.0130885
  63.7798457 105.7072267  38.0649184  64.5534390  92.1291548  45.1441760
  63.6397470  92.3595774  45.3123967  64.9827491  92.2129992  45.9955792
  64.3240848 100.3181440  47.6441654  63.6712299 100.5657347  46.9894107
  64.7021228  99.5045578  47.3104131  61.2848022 110.3541133  41.7469824
  61.4670417 109.5362789  42.2097577  62.1081008 110.5708825  41.3094714
  61.6190188 109.2809318  39.0084873  62.1477954 108.7701772  38.3955035
  61.8818407 108.9651848  39.8730406  60.3728421 101.0601251  54.1307691
  59.6969058 100.9595380  54.8010066  61.1956055 100.9040464  54.5943688
  52.1207281 107.2973187  46.7520206  52.7060717 106.5516875  46.8848110
  51.9232119 107.6077144  47.6356870  54.9745936 110.3324435  41.7682649
  54.3056311 110.8170562  41.2846689  54.8358805 110.5793655  42.6826027
  46.7124935  99.8678787  45.4724649  46.7509035  99.3342378  46.2661767
  46.2065228  99.3413993  44.8535627  59.1151204 112.3668178  48.3665307
  59.6669512 112.5299800  49.1314392  59.4557398 112.9572616  47.6945332
  54.0915698  94.7143328  48.9687192  54.1557024  95.5758159  48.5564589
  54.0282818  94.1017329  48.2359550  53.5667970  96.7866460  52.6160226
  54.1940009  96.4043538  53.2297750  52.7095889  96.5680662  52.9815918
  63.9662079 107.1929436  54.2213961  64.5101983 107.8059394  53.7268916
  63.3848923 107.7509014  54.7380974  50.3433513  98.5942889  38.5478581
  50.6386954  97.6853568  38.4945634  49.4421549  98.5730629  38.2259583
  62.2519592 110.3150154  45.3528989  62.1270731 109.5139893  44.8439935
  62.9098683 110.8096347  44.8642959  53.8727760  96.6698886  44.5306129
  53.1514346  97.2834854  44.3913603  54.6621016  97.2056651  44.4522775
  64.3154500 108.1159174  46.9808539  63.3684836 107.9964525  46.9086866
  64.6637273 107.2281672  47.0634801  56.6754073  94.0053313  50.8046781
  57.1988475  94.2515609  51.5673090  56.4566407  94.8373347  50.3849918
  52.0721354  96.2756987  38.6717906  51.7434061  95.3954366  38.4893012
  52.4260725  96.2204656  39.5594295  61.3200933 107.9111890  43.1812891
  61.1725896 106.9828597  43.3620461  62.1454427 107.9331981  42.6969967
  55.1863178  96.5629957  39.0393384  55.5259250  97.0915878  38.3171992
  55.6335298  96.9010363  39.8151950  64.9235055 108.7340449  44.2677764
  65.8481603 108.5283310  44.1302215  64.7550359 108.4856850  45.1767106
  57.8806618  94.9467008  48.4896452  57.5403439  94.1474821  48.8917132
  57.1745625  95.2468719  47.9173285  58.5323090  92.0316320  46.9423775
  59.3549160  91.5576798  46.8202665  58.7761154  92.8106804  47.4422461
  57.1731325  95.0604579  37.2386676  57.8939687  95.4385831  36.7350393
  56.5496629  95.7793455  37.3421654  61.3162448  95.7649728  38.1745009
  61.5326062  96.6474365  37.8733837  60.8356515  95.3735941  37.4450651
  56.0561669  98.7235441  44.7515753  55.9106250  99.0375744  45.6440035
  55.5786873  99.3420341  44.1986652  57.9158052  95.7137989  44.7996643
  57.9019621  94.8179082  44.4628941  58.6330480  95.7208652  45.4334929
  59.7684183  96.1475329  46.8449770  59.5101960  97.0692400  46.8434101
  59.2369223  95.7505763  47.5350234  64.7130371 109.2526116  39.6239856
  64.8867249 108.6872539  38.8713708  65.2059263 110.0527011  39.4419346
  50.5307331 101.2640785  47.6903414  49.9860799 102.0400593  47.8223689
  51.4086681 101.6111590  47.5322536  57.3194948  94.5952369  40.0684213
  57.4410859  93.6669015  40.2675100  57.0296990  94.6091055  39.1562528
  60.1886138  92.2807279  43.2050933  60.2107835  92.3446613  42.2502912
  60.6054197  91.4411788  43.3991439  70.5669763 102.0162539  41.2430155
  71.0100909 101.2669864  40.8449279  69.6896273 102.0072675  40.8603887
  65.7005544 108.5692880  36.7236754  66.3956448 109.1899573  36.9424069
  66.0428694 107.7188232  36.9989132  51.3173353 100.3910681  50.5833571
  50.5755089 100.5393317  51.1698202  50.9966097 100.6518947  49.7200321
  67.5996967 106.0192586  38.2524085  68.1248291 106.3579859  37.5273405
  67.5119320 105.0839601  38.0687219  59.2617016 109.9326660  50.3813961
  59.5704142 109.6875806  51.2536661  60.0592498 110.1373298  49.8932832
  59.2837628 112.0864569  42.6119338  58.8442618 111.5940948  43.3052195
  60.0345745 111.5437537  42.3711413  51.7629967 108.2776110  42.6143966
  52.5887987 107.9779882  42.2342609  51.4124019 107.5083733  43.0633755
  56.7311500 107.6302578  44.6841640  56.1091509 106.9673283  44.3843867
  57.4016367 107.6563710  44.0015287  49.9638572 106.1962437  43.5732900
  49.1270480 105.7684611  43.3916901  49.9362217 106.3894880  44.5103691
  56.8036027  96.1084366  54.2774146  56.8524183  96.9846489  53.8951915
  57.3458542  95.5661759  53.7045789  67.2890873 106.6525490  53.5575283
  66.4986417 106.6349628  53.0179782  67.0524228 107.1913783  54.3124319
  67.4088748 103.5017956  50.8708011  67.4586753 103.3367963  51.8123534
  67.3002671 102.6345215  50.4805892  56.2925007 106.1806502  38.1600100
  56.4413127 106.8641966  37.5066773  57.0991450 106.1611592  38.6749556
  64.6992510  99.4848884  52.1867318  65.6002373  99.3455349  51.8951316
  64.7740485  99.6503339  53.1265495  59.0335316  96.8615739  51.0320504
  58.1638625  97.1549305  50.7603093  59.2694796  97.4456184  51.7527768
  68.9106945 105.9214897  51.1150033  68.6191753 106.2844878  51.9513494
  68.2979076 105.2081906  50.9363365  70.1102627 103.4867777  43.6352603
  70.9449519 103.9257581  43.7990163  70.2461756 103.0106430  42.8160849
  67.1594133 101.0447512  49.5830091  67.6348255 101.2375158  48.7748942
  66.2359699 101.1006698  49.3373474  54.0477640 102.2071679  39.1661169
  53.8023682 101.3034009  39.3641379  54.2173554 102.2088830  38.2240647
  61.7374350  93.0795356  48.5485925  62.2556293  93.8156383  48.2232413
  61.3829482  93.3859349  49.3832684  53.3173287  97.9400037  36.6647330
  52.6242532  98.0144392  36.0087366  53.0725039  97.1760381  37.1868847
  61.9886944  89.4995638  44.0686821  62.2688698  88.8318827  44.6947248
  62.7737551  89.6924734  43.5561485  59.7920412 108.6754632  35.6311848
  59.2194379 109.2944819  35.1782319  60.3653206 109.2253994  36.1651769
  65.8595802  97.9213272  47.8158396  66.8113225  98.0211370  47.8370620
  65.6899253  97.1291541  48.3256481  63.8810182  95.0068855  48.0017797
  63.2860114  95.2873868  47.3064286  63.5959878  95.4962756  48.7734538
  63.0117672 108.9591782  36.7620430  63.9448345 108.8937344  36.9653305
  62.9240885 109.7948049  36.3034962  65.6405689 108.2757653  33.7224377
  65.5619320 107.9417516  34.6160135  66.4615356 108.7679421  33.7215850
  68.3383880 101.1419392  46.9300696  68.3060200 100.2035393  47.1160380
  68.9484504 101.2203429  46.1966521  60.1767211 100.0115445  32.9727900
  61.1226316  99.8821653  33.0416318  59.7981456  99.2730107  33.4497328
  68.4878368  97.9330435  46.9758979  67.9717417  97.1488892  46.7888908
  69.3718317  97.6049152  47.1405499  66.1489095  91.6771451  42.9354792
  65.9513916  91.3686539  43.8198124  66.7588801  92.4033090  43.0652722
  74.1560430 102.2035399  46.0706733  74.8863818 101.9420687  46.6314436
  73.5467375 101.4664121  46.1108801  72.2375727 100.3443261  46.6681184
  71.5108890 100.2099226  46.0597676  71.8223014 100.6520090  47.4737902
  60.0605903 104.0633191  54.4328557  60.9808913 104.2411790  54.6268604
  60.0255486 103.1189236  54.2808256  58.3610128  97.9365421  32.9082785
  57.4541583  97.6398534  32.9845499  58.6386109  97.6395239  32.0417071
  49.2788068  99.2571785  43.3581832  48.9590853  98.4037093  43.0656206
  48.7321497  99.4720363  44.1139799  53.0567976 101.9734226  47.0751338
  53.2753986 102.9051333  47.0939372  53.4693750 101.6142200  47.8606142
  59.9772194  92.4802311  39.0627027  59.1672922  92.1349396  39.4382273
  60.6656611  92.1709855  39.6514638  61.9062742  91.5580358  40.6851323
  62.4593781  91.9775811  41.3441346  62.1432828  90.6316106  40.7274279
  57.9295841  97.5467431  56.4654087  57.8292568  98.4961788  56.3966178
  57.7117383  97.2185670  55.5930157  57.1308913  94.7952356  33.0494764
  57.9928077  95.1207255  33.3090582  57.3159257  94.0083852  32.5367830
  49.1476328 102.8774696  45.3274953  48.4539800 102.4628649  44.8144908
  49.8949319 102.9195233  44.7308372  65.2841549  93.6680883  40.1929987
  64.7040218  94.3265687  39.8108040  65.0177482  92.8458228  39.7817405
  63.7345115  93.0685941  42.3951308  64.2344894  93.1802475  41.5865627
  64.3780723  92.7646993  43.0352116  57.7927111 100.9764570  55.2819149
  57.3094193 101.7764930  55.4883038  57.8788050 100.9872515  54.3286593
  51.0613071 102.8092950  43.2040968  51.0383759 102.9080637  42.2522851
  51.3713707 103.6558101  43.5258134  53.7200449 104.8669105  47.3187583
  54.6743702 104.8353047  47.2517514  53.5212972 104.4059729  48.1337808
  54.3099831 103.4370221  49.8858380  55.1292720 103.9314300  49.9093217
  54.5836639 102.5202189  49.8575948  64.0666427  95.8280973  39.2486336
  63.1792282  96.1130624  39.0306530  64.4820416  95.6674737  38.4013613
  67.4180963  95.8527494  42.9640675  68.1941353  96.3423947  43.2365292
  66.6929097  96.2785549  43.4212544  69.8553522  96.5655114  44.0214616
  70.4498013  96.3250849  43.3107924  69.9280106  95.8462244  44.6488152
  52.0750678 110.4088724  44.3357780  51.9405145 109.6489125  43.7695778
  51.6582740 111.1329624  43.8686569  63.2109641 105.5925648  33.3434356
  63.9145491 105.7975650  33.9592011  62.4872289 106.1602410  33.6083439
  64.0407451 101.3435509  39.4636626  63.9842652 101.8004061  38.6244258
  64.5935793 100.5826194  39.2859469  67.8512257  97.1325241  40.2886745
  67.5949191  96.7321877  41.1194953  67.2265125  97.8469035  40.1636885
  72.1624595  99.8721314  42.7958037  71.6024153  99.9414504  43.5689599
  71.5568098  99.6962299  42.0757533  55.2319803 111.3058041  44.5476223
  55.1152188 112.2503474  44.4454913  54.4112250 111.0031603  44.9362022
  65.1196338 106.0308177  35.3932816  65.9541942 105.5989376  35.2110291
  64.9580681 105.8590191  36.3209710  64.7742230 102.5340291  36.7589155
  64.7191034 102.3684562  35.8177599  64.1488285 103.2416323  36.9151345
  49.5634745  97.7708355  50.5850577  50.2093609  97.2607309  51.0737802
  49.3551896  98.5077037  51.1594003  62.0888137 104.8389202  56.0842718
  62.9579297 105.0129855  55.7229353  61.6094889 105.6583619  55.9618447
  58.0838356  92.0348400  36.3374473  58.0717025  92.9790239  36.4942744
  58.9761777  91.8518545  36.0433935  56.2574318 111.9586303  47.7632151
  57.1601564 111.9909914  48.0798646  56.0311688 111.0286754  47.7778487
  58.0127920 110.7117290  44.4242230  57.0623551 110.7119152  44.3106602
  58.3160406 109.9650024  43.9078265  61.8990475  88.6291176  40.5920410
  61.1322871  88.0749663  40.7377093  62.3101180  88.7013045  41.4534562
  53.9032236  94.9175972  54.6825591  54.7663698  94.5612777  54.8928916
  53.3297647  94.5789867  55.3700996  73.7480613 116.5477828  45.4887992
  74.3859023 116.4284576  44.7851333  73.6301456 117.4958672  45.5475945
  70.5570319 116.5005256  45.4249517  70.2188831 116.3846321  44.5370052
  71.4260087 116.0996422  45.4050523  66.4157135 118.3540733  41.4146408
  65.8522000 118.2630670  40.6462696  66.3009530 117.5340637  41.8948901
  71.0390102 117.6540108  51.3835723  71.0278743 117.2592906  50.5116226
  71.2010742 116.9206181  51.9769494  63.9621567 119.8491924  44.2530629
  64.7542859 119.5082749  43.8376928  64.2018217 119.9586899  45.1732782
  71.9956694 122.0211701  36.7260873  71.3444673 122.6065781  36.3394887
  72.7901057 122.5517895  36.7855910  65.9212321 119.1100838  37.1248007
  66.6943197 118.5629825  36.9860883  66.2737720 119.9745087  37.3362469
  67.7597363 120.4377220  50.3314907  67.4687229 121.3422851  50.2161573
  68.3954348 120.4793748  51.0458976  68.6853570 117.8154068  46.9216266
  69.2817143 117.5910091  46.2073229  68.7428542 117.0738814  47.5241714
  68.2578599 115.2693504  34.7566457  68.5104119 114.7475025  33.9949920
  67.3203158 115.1059649  34.8593141  73.3021881 114.2729282  42.5641201
  74.0884971 113.8548705  42.2131618  73.5660586 115.1775374  42.7322849
  73.4731959 119.7102132  37.2629857  72.8377792 119.7836759  37.9750762
  73.1429365 120.2995731  36.5848937  78.7030309 114.2104515  43.4674179
  79.4355481 113.6403732  43.7012009  77.9469664 113.8226116  43.9080685
  67.9774887 117.1721610  36.9590832  67.8611146 116.4966513  37.6271917
  68.0877147 116.6853984  36.1422985  70.3206428 116.6331757  40.6637521
  69.9564636 116.1062378  41.3750443  71.1773544 116.2430226  40.4904007
  76.2255729 107.9226089  47.9268788  75.8939054 108.7921500  47.7030003
  75.6301342 107.6062373  48.6062818  69.9611915 111.6621657  35.6598870
  70.1286318 112.5301893  36.0269341  69.7709084 111.8248938  34.7360159
  72.7187249 120.1238635  47.3264700  72.4187972 121.0263674  47.2180508
  72.3738308 119.8570819  48.1785853  66.1699730 116.5752432  43.3601405
  65.2450226 116.4428646  43.5679097  66.4184143 117.3546652  43.8571347
  76.1184392 112.6421176  45.0062138  75.2101270 112.5736584  44.7120899
  76.0671988 113.1193121  45.8343963  69.9401136 114.1179314  36.6445537
  69.8200761 114.5636365  37.4831017  69.2453725 114.4664632  36.0859075
  63.5308541 116.2185706  44.1945194  63.6600922 116.4720185  45.1084606
  62.8505992 116.8113414  43.8749849  67.7008028 126.8882956  40.2935668
  67.6232058 127.8390781  40.3724149  67.0969672 126.5428828  40.9510594
  70.1925258 114.0610821  52.9497035  69.4158592 114.6204741  52.9399900
  70.8315821 114.5467604  53.4711905  77.9846039 110.8437614  46.7840012
  77.3420419 111.1370147  46.1379806  77.4800967 110.7290534  47.5893208
  75.6386202 114.5900787  37.4725871  76.5504058 114.8228174  37.2973568
  75.1295849 115.1737831  36.9100949  68.4471630 116.8696275  52.5115002
  69.1886315 117.4081319  52.2349826  67.7408616 117.4962563  52.6686554
  73.9226970 119.0125415  51.1087163  74.3310326 118.5707826  50.3641796
  73.2004232 118.4378043  51.3621356  70.2758040 113.9498022  48.4820720
  71.1219235 114.3737435  48.6255369  70.2156678 113.2931646  49.1759284
  74.2455785 119.5726606  44.8639452  73.6164647 119.7372320  44.1615520
  73.8581447 119.9868215  45.6350416  78.1245017 120.5081044  42.2183816
  77.4396055 120.8879945  41.6680849  78.2088866 121.1176370  42.9515764
  73.4257485 111.6102390  50.1401894  73.1818417 112.3644451  49.6036170
  73.7017416 111.9887738  50.9749141  75.3795948 118.1541003  48.8179160
  75.5912843 118.7972762  48.1413541  75.3325696 117.3203319  48.3501090
  72.9822177 110.7658823  45.7215732  72.1206656 111.0640077  46.0132469
  73.0084612 110.9829222  44.7896764  69.7983747 119.3101014  42.1289537
  70.2622092 119.5888717  41.3394160  69.5340545 118.4084458  41.9462628
  66.6907828 118.8572495  45.0669301  67.2609185 119.2859764  44.4286785
  67.2815939 118.5755080  45.7653486  68.7352633 115.4324166  38.9379103
  69.4376676 115.8845210  39.4053029  68.4033261 114.7907985  39.5658996
  67.1832994 114.0235923  53.3130312  66.5531655 114.7052204  53.5465709
  67.0769082 113.9119004  52.3683450  62.4777967 113.6907719  44.2396236
  61.6877021 113.9465247  43.7636347  62.9689214 114.5056057  44.3448277
  76.4941776 121.0312958  46.9901517  77.3159220 120.6293145  46.7084199
  76.4904179 120.9281192  47.9417633  64.4292712 114.0552298  41.1979713
  63.6323875 114.1670992  41.7163209  64.2018304 114.3938950  40.3320603
  70.2598380 120.5797001  49.1462227  70.3242812 121.0417409  49.9820399
  69.5509303 119.9494366  49.2744537  60.7615670 113.9438209  46.6711227
  61.0123708 114.8285219  46.9368803  61.2975218 113.7642811  45.8986319
  84.5847769 117.3751706  43.3386488  83.8311478 116.8059105  43.1830493
  84.7195310 117.3414371  44.2857123  69.9746397 122.2465109  39.0141208
  69.8392072 123.0916644  39.4426056  70.5156210 122.4484386  38.2507142
  66.4613737 108.3256689  55.6755563  66.0680682 107.7722887  56.3503207
  67.2779877 108.6367267  56.0662081  63.4275795 119.7640547  39.5869133
  63.9400315 120.5583797  39.7374698  64.0798507 119.0666837  39.5202734
  65.2370679 122.8806303  41.6691886  65.4137308 123.8024268  41.4812870
  66.0327513 122.5664722  42.0986266  69.3781698 109.7414568  53.2675820
  70.1191411 110.3421721  53.1880282  69.6099621 108.9992205  52.7093862
  64.5223036 114.9270935  51.5454049  64.4076551 114.0256192  51.8461148
  63.6667554 115.1734632  51.1938866  71.6014874 122.8688675  53.1441550
  71.1578728 122.0825054  52.8262454  72.2632087 123.0567826  52.4785441
  66.3601995 124.3984477  47.6702228  66.9109420 124.2701540  46.8979222
  65.5213471 124.6979366  47.3197121  73.6996112 123.1491475  51.1722951
  73.6814587 123.9700356  50.6803220  74.6216032 123.0245550  51.3973092
  70.1569166 120.6635605  52.0146460  70.6897503 119.9023893  51.7845767
  69.6283247 120.3709256  52.7570614  73.3238861 105.7695671  47.5440101
  72.9803130 106.6597312  47.4679212  73.6917823 105.5797328  46.6809686
  61.3924711 118.0929201  40.3628703  62.2299933 118.5026209  40.1462411
  61.5702979 117.1528643  40.3328897  73.2889144 115.7604282  36.0512536
  72.7735767 116.5308886  36.2900924  73.0166452 115.0869418  36.6745598
  70.8736255 110.6053983  41.1097775  70.0177851 110.2160833  40.9303413
  71.2863206 110.6845943  40.2497560  72.4035401 108.1400326  45.5089334
  71.9000197 108.1030461  44.6957140  72.6966008 109.0493069  45.5685991
  68.6478287 108.2239056  44.5155516  69.5131284 108.0281864  44.1561406
  68.7155796 107.9949407  45.4424873  78.2623418 118.5136636  37.9865710
  77.4852860 118.1747796  37.5420872  78.9414899 118.5189260  37.3120675
  73.0775447 113.6331374  37.8772318  72.7725582 113.9477523  38.7282461
  74.0305889 113.7112794  37.9199651  71.5221879 119.7921597  39.5265272
  70.9943240 119.0574357  39.2138509  71.0209381 120.5696274  39.2805240
  76.5014725 117.9870618  44.6432318  75.8438399 118.6769879  44.7312446
  77.3055124 118.3767050  44.9866304  66.2540606 110.4541263  41.8871883
  66.8284358 110.2316445  41.1545076  66.8411589 110.5229958  42.6400484
  75.3120183 116.3414990  42.6936260  75.8252065 116.9744982  43.1957969
  75.9621407 115.7416186  42.3279620  66.5810193 112.4845724  35.9067768
  65.7447506 112.8220411  36.2277043  66.4414963 112.3494704  34.9694905
  68.5563274 107.3282512  40.6146952  67.9027686 107.0131530  39.9903567
  68.5143748 106.7058253  41.3406775  69.6674479 117.6101807  32.5300245
  68.7601540 117.3791061  32.7291394  70.1645511 116.8139427  32.7174226
  72.5742558 126.3199315  35.4496931  71.9004256 126.6231011  36.0581889
  72.9608380 127.1228395  35.1002388  71.7901014 113.8164446  44.9394600
  70.8723576 114.0379393  44.7816288  72.2061158 113.8910756  44.0806307
  72.5736062 115.2155862  40.0697280  73.3207881 115.7277259  39.7604402
  72.8427652 114.8939914  40.9301674  70.8462712 117.7114402  37.0524235
  69.9373931 117.4273435  37.1496704  70.8757796 118.1313481  36.1927542
  76.0781980 121.3220992  40.8215402  75.6244307 120.4811902  40.8780593
  75.4475946 121.9582390  41.1590182  75.0214899 112.2512978  42.0516070
  74.2837656 111.7390364  42.3826312  75.2741673 111.8113359  41.2399347
  74.5214919 123.1597488  41.7565220  74.8137893 123.7202546  41.0377586
  75.0313539 123.4526049  42.5118379  75.1226526 105.0289230  42.6457839
  75.4285403 104.1686593  42.3583754  75.8479131 105.6206850  42.4456833
  61.4150883 115.4319916  41.0339437  61.2175282 114.8389277  40.3090503
  60.8597547 115.1272127  41.7515376  69.3947606 115.3243023  43.1534030
  69.4496216 114.3716859  43.0776507  68.5838808 115.4802462  43.6375328
  70.5438800 119.2523146  34.3912313  70.1058230 118.5359005  33.9317951
  71.2849241 119.4799261  33.8297405  67.3339966 113.9420083  40.9124409
  66.5207832 114.2414253  41.3189601  67.8298960 113.5475771  41.6298891
  69.4848544 123.9377840  42.8458674  69.4424723 124.1638686  41.9167206
  70.4011243 123.7041214  42.9944475  72.9314178 114.4061907  49.7439303
  73.2863566 114.6333380  50.6033769  73.5786309 114.7380284  49.1216558
  78.6611915 117.5280343  40.4488632  78.5229813 117.7181939  39.5209821
  78.3048134 118.2899726  40.9056683  66.8254041 111.5138438  46.5285644
  67.4653420 111.3727197  45.8308607  65.9931571 111.2272952  46.1524246
  78.6881294 119.5956870  45.4599903  79.1217801 119.5032159  46.3082957
  79.4012875 119.5714370  44.8219919  67.6014345 120.8140869  42.6420636
  68.3954943 120.3191189  42.4403211  66.8906037 120.2858732  42.2788342
  72.4209189 123.1958964  46.9933004  72.4746212 123.7649900  47.7610720
  71.5523971 123.3660849  46.6287041  63.9097108 114.9583950  38.7180389
  62.9794696 114.8968406  38.9350351  64.0054580 114.4359903  37.9217030
  63.8282657 111.4838763  41.3058631  64.0889475 112.3984096  41.1967791
  64.6499830 111.0163206  41.4555243  65.3007583 112.8976520  48.4757455
  65.9730636 112.6893882  47.8270104  64.4737369 112.6998606  48.0362687
  79.5496844 119.6380571  47.9932789  79.7432734 120.5426381  48.2392064
  79.4497462 119.1787990  48.8271374  71.2033155 109.5238461  50.4923116
  70.5561070 110.2228411  50.3987592  71.9734170 109.9574605  50.8599364
  74.6111953 119.7887313  53.5673669  74.4597459 119.5597865  52.6503753
  74.6016632 120.7457915  53.5805014  71.3797289 117.3619226  48.5519936
  72.3089349 117.5130386  48.3788903  70.9588319 117.4503247  47.6968582
  70.1785621 121.3869891  46.3218473  70.0396706 121.0188675  47.1944411
  69.3900217 121.9017530  46.1502431  70.7733773 126.4878987  37.6644010
  70.9485528 126.0167030  38.4789633  70.0866561 127.1144753  37.8925271
  71.7290836 120.7651493  43.7107311  71.3940669 120.7252263  44.6064961
  71.2294782 120.0996209  43.2377721  65.7035080 116.1719123  49.2359892
  65.5654878 115.4399362  49.8371431  66.6140003 116.0828023  48.9544080
  74.6650028 118.1107528  33.9844371  74.0479198 117.3854356  33.8877423
  74.1966516 118.8716888  33.6411445  68.3317381 115.8839083  48.7243572
  69.0416999 115.2432275  48.6830190  68.2886689 116.1351977  49.6469753
  76.3204159 122.8206436  51.6450151  76.2616705 122.1365656  50.9780734
  76.7223678 123.5625426  51.1930777  67.0446315 112.8704301  50.5439211
  66.5083672 112.4195039  51.1960808  66.4563023 113.0050209  49.8009676
  65.3394858 129.6368350  44.4383870  65.5791456 130.2686874  45.1162889
  64.4964055 129.2856390  44.7249229  66.4548573 112.3292952  33.1065675
  65.5778040 112.2081753  32.7427922  66.9306327 111.5379030  32.8544564
  76.3221567 120.7846020  49.8764131  75.4348345 120.4471942  49.9990530
  76.8920118 120.0529051  50.1132896  57.9750714 117.1170112  43.2007182
  58.6621753 116.8031842  42.6128198  57.8198842 118.0211476  42.9274434
  62.7785436 112.0060308  47.6292206  62.6943624 111.3985978  46.8942616
  61.9568142 112.4969327  47.6301702  69.8522720 125.4447472  46.8425374
  69.7792891 126.2502444  47.3544679  69.4100113 125.6439438  46.0173395
  69.6412500 124.6819242  40.3528196  68.8580021 125.2240922  40.4466420
  70.3405245 125.1993222  40.7522437  72.9509150 110.4913872  42.9962401
  73.4477849 109.7383834  42.6763471  72.1796131 110.5278188  42.4305610
  80.8038907 116.1954237  44.6380692  80.7928783 117.0778953  44.2674626
  79.9356286 115.8425788  44.4435230  72.3121403 125.3434306  48.9983533
  73.0249376 125.9781771  48.9259434  71.8211432 125.4398172  48.1823535
  74.0338930 119.2485559  40.5700824  73.0995209 119.3687021  40.4005529
  74.2115599 118.3458026  40.3060834  69.5344118 112.6331255  42.7234086
  69.1641906 112.0802295  43.4114991  70.0303211 112.0289388  42.1709086
  77.4211482 115.0902878  41.1050859  77.8871934 115.9230870  41.0311161
  77.8718982 114.6247860  41.8096117  67.3633317 123.0928750  49.8189104
  68.0642776 123.7265233  49.9718498  66.8928432 123.4343481  49.0584743
  75.4887713 121.4346700  38.1037011  75.7647557 121.3203294  39.0130885
  74.6192212 121.0364184  38.0649184  75.3928144 107.4583465  45.1441760
  74.4791224 107.6887692  45.3123967  75.8221246 107.5421909  45.9955792
  75.1634603 115.6473357  47.6441654  74.5106053 115.8949265  46.9894107
  75.5414983 114.8337495  47.3104131  72.1241777 125.6833050  41.7469824
  72.3064171 124.8654706  42.2097577  72.9474763 125.9000743  41.3094714
  72.4583942 124.6101236  39.0084873  72.9871709 124.0993690  38.3955035
  72.7212162 124.2943766  39.8730406  71.2122176 116.3893168  54.1307691
  70.5362813 116.2887298  54.8010066  72.0349810 116.2332382  54.5943688
  62.9601035 122.6265105  46.7520206  63.5454472 121.8808793  46.8848110
  62.7625873 122.9369062  47.6356870  65.8139690 125.6616352  41.7682649
  65.1450065 126.1462480  41.2846689  65.6752560 125.9085573  42.6826027
  57.5518690 115.1970705  45.4724649  57.5902789 114.6634296  46.2661767
  57.0458983 114.6705911  44.8535627  69.9544959 127.6960096  48.3665307
  70.5063267 127.8591717  49.1314392  70.2951152 128.2864534  47.6945332
  64.9309452 110.0435246  48.9687192  64.9950779 110.9050076  48.5564589
  64.8676572 109.4309247  48.2359550  64.4061725 112.1158378  52.6160226
  65.0333763 111.7335455  53.2297750  63.5489643 111.8972580  52.9815918
  74.8055833 122.5221353  54.2213961  75.3495737 123.1351311  53.7268916
  74.2242678 123.0800932  54.7380974  61.1827267 113.9234807  38.5478581
  61.4780708 113.0145486  38.4945634  60.2815303 113.9022547  38.2259583
  73.0913346 125.6442071  45.3528989  72.9664486 124.8431811  44.8439935
  73.7492437 126.1388265  44.8642959  64.7121514 111.9990804  44.5306129
  63.9908100 112.6126771  44.3913603  65.5014770 112.5348569  44.4522775
  75.1548254 123.4451091  46.9808539  74.2078590 123.3256443  46.9086866
  75.5031028 122.5573589  47.0634801  67.5147828 109.3345230  50.8046781
  68.0382230 109.5807527  51.5673090  67.2960161 110.1665265  50.3849918
  62.9115109 111.6048905  38.6717906  62.5827815 110.7246284  38.4893012
  63.2654480 111.5496574  39.5594295  72.1594688 123.2403808  43.1812891
  72.0119650 122.3120515  43.3620461  72.9848181 123.2623898  42.6969967
  66.0256932 111.8921875  39.0393384  66.3653005 112.4207796  38.3171992
  66.4729053 112.2302281  39.8151950  75.7628810 124.0632366  44.2677764
  76.6875357 123.8575228  44.1302215  75.5944113 123.8148767  45.1767106
  68.7200373 110.2758925  48.4896452  68.3797193 109.4766738  48.8917132
  68.0139379 110.5760636  47.9173285  69.3716845 107.3608238  46.9423775
  70.1942914 106.8868716  46.8202665  69.6154908 108.1398722  47.4422461
  68.0125079 110.3896496  37.2386676  68.7333442 110.7677749  36.7350393
  67.3890383 111.1085373  37.3421654  72.1556202 111.0941645  38.1745009
  72.3719816 111.9766283  37.8733837  71.6750269 110.7027859  37.4450651
  66.8955423 114.0527358  44.7515753  66.7500004 114.3667661  45.6440035
  66.4180627 114.6712259  44.1986652  68.7551806 111.0429906  44.7996643
  68.7413375 110.1471000  44.4628941  69.4724234 111.0500570  45.4334929
  70.6077937 111.4767247  46.8449770  70.3495715 112.3984317  46.8434101
  70.0762977 111.0797681  47.5350234  75.5524126 124.5818034  39.6239856
  75.7261003 124.0164456  38.8713708  76.0453017 125.3818929  39.4419346
  61.3701086 116.5932703  47.6903414  60.8254554 117.3692511  47.8223689
  62.2480435 116.9403507  47.5322536  68.1588702 109.9244287  40.0684213
  68.2804613 108.9960933  40.2675100  67.8690745 109.9382973  39.1562528
  71.0279893 107.6099197  43.2050933  71.0501589 107.6738530  42.2502912
  71.4447952 106.7703706  43.3991439  81.4063517 117.3454457  41.2430155
  81.8494663 116.5961782  40.8449279  80.5290027 117.3364593  40.8603887
  76.5399298 123.8984798  36.7236754  77.2350203 124.5191491  36.9424069
  76.8822448 123.0480149  36.9989132  62.1567107 115.7202599  50.5833571
  61.4148844 115.8685234  51.1698202  61.8359852 115.9810865  49.7200321
  78.4390721 121.3484504  38.2524085  78.9642046 121.6871776  37.5273405
  78.3513074 120.4131519  38.0687219  70.1010770 125.2618577  50.3813961
  70.4097897 125.0167724  51.2536661  70.8986252 125.4665216  49.8932832
  70.1231382 127.4156487  42.6119338  69.6836372 126.9232866  43.3052195
  70.8739499 126.8729455  42.3711413  62.6023721 123.6068028  42.6143966
  63.4281741 123.3071800  42.2342609  62.2517773 122.8375650  43.0633755
  67.5705254 122.9594496  44.6841640  66.9485264 122.2965201  44.3843867
  68.2410121 122.9855628  44.0015287  60.8032326 121.5254354  43.5732900
  59.9664235 121.0976529  43.3916901  60.7755972 121.7186798  44.5103691
  67.6429782 111.4376284  54.2774146  67.6917937 112.3138407  53.8951915
  68.1852296 110.8953677  53.7045789  78.1284628 121.9817407  53.5575283
  77.3380171 121.9641546  53.0179782  77.8917982 122.5205701  54.3124319
  78.2482503 118.8309874  50.8708011  78.2980507 118.6659881  51.8123534
  78.1396426 117.9637133  50.4805892  67.1318761 121.5098419  38.1600100
  67.2806882 122.1933884  37.5066773  67.9385205 121.4903509  38.6749556
  75.5386265 114.8140802  52.1867318  76.4396128 114.6747267  51.8951316
  75.6134239 114.9795257  53.1265495  69.8729070 112.1907656  51.0320504
  69.0032380 112.4841222  50.7603093  70.1088551 112.7748101  51.7527768
  79.7500699 121.2506815  51.1150033  79.4585508 121.6136796  51.9513494
  79.1372831 120.5373823  50.9363365  80.9496382 118.8159695  43.6352603
  81.7843273 119.2549499  43.7990163  81.0855510 118.3398348  42.8160849
  77.9987888 116.3739430  49.5830091  78.4742009 116.5667076  48.7748942
  77.0753453 116.4298616  49.3373474  64.8871394 117.5363597  39.1661169
  64.6417436 116.6325927  39.3641379  65.0567309 117.5380747  38.2240647
  72.5768104 108.4087273  48.5485925  73.0950048 109.1448300  48.2232413
  72.2223237 108.7151267  49.3832684  64.1567042 113.2691955  36.6647330
  63.4636287 113.3436310  36.0087366  63.9118794 112.5052298  37.1868847
  72.8280698 104.8287556  44.0686821  73.1082452 104.1610745  44.6947248
  73.6131305 105.0216652  43.5561485  70.6314167 124.0046550  35.6311848
  70.0588134 124.6236737  35.1782319  71.2046960 124.5545911  36.1651769
  76.6989557 113.2505190  47.8158396  77.6506980 113.3503288  47.8370620
  76.5293007 112.4583458  48.3256481  74.7203936 110.3360773  48.0017797
  74.1253868 110.6165786  47.3064286  74.4353633 110.8254674  48.7734538
  73.8511427 124.2883700  36.7620430  74.7842100 124.2229262  36.9653305
  73.7634639 125.1239967  36.3034962  76.4799443 123.6049570  33.7224377
  76.4013075 123.2709434  34.6160135  77.3009110 124.0971338  33.7215850
  79.1777634 116.4711310  46.9300696  79.1453955 115.5327310  47.1160380
  79.7878258 116.5495346  46.1966521  71.0160965 115.3407363  32.9727900
  71.9620070 115.2113571  33.0416318  70.6375210 114.6022024  33.4497328
  79.3272123 113.2622353  46.9758979  78.8111172 112.4780810  46.7888908
  80.2112071 112.9341070  47.1405499  76.9882850 107.0063369  42.9354792
  76.7907671 106.6978457  43.8198124  77.5982555 107.7325007  43.0652722
  84.9954184 117.5327316  46.0706733  85.7257573 117.2712605  46.6314436
  84.3861130 116.7956038  46.1108801  83.0769481 115.6735179  46.6681184
  82.3502645 115.5391144  46.0597676  82.6616768 115.9812008  47.4737902
  70.8999658 119.3925109  54.4328557  71.8202667 119.5703708  54.6268604
  70.8649241 118.4481154  54.2808256  69.2003882 113.2657339  32.9082785
  68.2935338 112.9690452  32.9845499  69.4779863 112.9687157  32.0417071
  60.1181823 114.5863702  43.3581832  59.7984607 113.7329011  43.0656206
  59.5715251 114.8012280  44.1139799  63.8961730 117.3026143  47.0751338
  64.1147740 118.2343251  47.0939372  64.3087504 116.9434118  47.8606142
  70.8165948 107.8094229  39.0627027  70.0066676 107.4641314  39.4382273
  71.5050365 107.5001772  39.6514638  72.7456496 106.8872275  40.6851323
  73.2987535 107.3067729  41.3441346  72.9826583 105.9608024  40.7274279
  68.7689596 112.8759349  56.4654087  68.6686323 113.8253706  56.3966178
  68.5511138 112.5477588  55.5930157  67.9702667 110.1244274  33.0494764
  68.8321831 110.4499172  33.3090582  68.1553011 109.3375770  32.5367830
  59.9870083 118.2066614  45.3274953  59.2933554 117.7920567  44.8144908
  60.7343074 118.2487150  44.7308372  76.1235304 108.9972801  40.1929987
  75.5433973 109.6557605  39.8108040  75.8571236 108.1750145  39.7817405
  74.5738870 108.3977858  42.3951308  75.0738648 108.5094393  41.5865627
  75.2174478 108.0938911  43.0352116  68.6320866 116.3056488  55.2819149
  68.1487947 117.1056848  55.4883038  68.7181805 116.3164433  54.3286593
  61.9006825 118.1384868  43.2040968  61.8777513 118.2372555  42.2522851
  62.2107462 118.9850018  43.5258134  64.5594203 120.1961023  47.3187583
  65.5137457 120.1644965  47.2517514  64.3606727 119.7351646  48.1337808
  65.1493585 118.7662139  49.8858380  65.9686474 119.2606217  49.9093217
  65.4230393 117.8494107  49.8575948  74.9060182 111.1572891  39.2486336
  74.0186037 111.4422542  39.0306530  75.3214171 110.9966654  38.4013613
  78.2574718 111.1819412  42.9640675  79.0335108 111.6715864  43.2365292
  77.5322852 111.6077466  43.4212544  80.6947276 111.8947031  44.0214616
  81.2891767 111.6542767  43.3107924  80.7673860 111.1754162  44.6488152
  62.9144432 125.7380642  44.3357780  62.7798900 124.9781043  43.7695778
  62.4976494 126.4621542  43.8686569  74.0503395 120.9217566  33.3434356
  74.7539245 121.1267568  33.9592011  73.3266044 121.4894328  33.6083439
  74.8801205 116.6727427  39.4636626  74.8236407 117.1295978  38.6244258
  75.4329548 115.9118112  39.2859469  78.6906011 112.4617159  40.2886745
  78.4342945 112.0613794  41.1194953  78.0658879 113.1760953  40.1636885
  83.0018349 115.2013232  42.7958037  82.4417907 115.2706421  43.5689599
  82.3961852 115.0254217  42.0757533  66.0713558 126.6349959  44.5476223
  65.9545942 127.5795392  44.4454913  65.2506004 126.3323521  44.9362022
  75.9590092 121.3600095  35.3932816  76.7935696 120.9281293  35.2110291
  75.7974435 121.1882109  36.3209710  75.6135985 117.8632208  36.7589155
  75.5584788 117.6976480  35.8177599  74.9882040 118.5708241  36.9151345
  60.4028500 113.1000273  50.5850577  61.0487363 112.5899227  51.0737802
  60.1945651 113.8368954  51.1594003  72.9281892 120.1681120  56.0842718
  73.7973051 120.3421772  55.7229353  72.4488643 120.9875537  55.9618447
  68.9232110 107.3640317  36.3374473  68.9110780 108.3082157  36.4942744
  69.8155532 107.1810463  36.0433935  67.0968072 127.2878221  47.7632151
  67.9995319 127.3201831  48.0798646  66.8705442 126.3578672  47.7778487
  68.8521674 126.0409208  44.4242230  67.9017305 126.0411069  44.3106602
  69.1554160 125.2941942  43.9078265  72.7384230 103.9583094  40.5920410
  71.9716625 103.4041581  40.7377093  73.1494934 104.0304963  41.4534562
  64.7425991 110.2467890  54.6825591  65.6057452 109.8904694  54.8928916
  64.1691401 109.9081784  55.3700996  84.5874368 131.8769746  45.4887992
  85.2252777 131.7576493  44.7851333  84.4695210 132.8250590  45.5475945
  81.3964074 131.8297174  45.4249517  81.0582585 131.7138239  44.5370052
  82.2653842 131.4288339  45.4050523  77.2550889 133.6832651  41.4146408
  76.6915755 133.5922587  40.6462696  77.1403285 132.8632555  41.8948901
  81.8783857 132.9832026  51.3835723  81.8672498 132.5884824  50.5116226
  82.0404496 132.2498098  51.9769494  74.8015321 135.1783842  44.2530629
  75.5936613 134.8374667  43.8376928  75.0411972 135.2878817  45.1732782
  82.8350448 137.3503618  36.7260873  82.1838428 137.9357699  36.3394887
  83.6294811 137.8809813  36.7855910  76.7606075 134.4392755  37.1248007
  77.5336951 133.8921742  36.9860883  77.1131474 135.3037005  37.3362469
  78.5991118 135.7669138  50.3314907  78.3080984 136.6714768  50.2161573
  79.2348102 135.8085665  51.0458976  79.5247325 133.1445986  46.9216266
  80.1210897 132.9202009  46.2073229  79.5822296 132.4030732  47.5241714
  79.0972353 130.5985421  34.7566457  79.3497874 130.0766943  33.9949920
  78.1596912 130.4351567  34.8593141  84.1415636 129.6021200  42.5641201
  84.9278725 129.1840623  42.2131618  84.4054340 130.5067292  42.7322849
  84.3125713 135.0394050  37.2629857  83.6771546 135.1128677  37.9750762
  83.9823120 135.6287649  36.5848937  89.5424063 129.5396433  43.4674179
  90.2749235 128.9695650  43.7012009  88.7863419 129.1518033  43.9080685
  78.8168642 132.5013527  36.9590832  78.7004900 131.8258431  37.6271917
  78.9270902 132.0145901  36.1422985  81.1600183 131.9623675  40.6637521
  80.7958390 131.4354296  41.3750443  82.0167299 131.5722144  40.4904007
  87.0649483 123.2518007  47.9268788  86.7332808 124.1213418  47.7030003
  86.4695097 122.9354291  48.6062818  80.8005670 126.9913574  35.6598870
  80.9680072 127.8593811  36.0269341  80.6102839 127.1540856  34.7360159
  83.5581003 135.4530553  47.3264700  83.2581726 136.3555592  47.2180508
  83.2132063 135.1862736  48.1785853  77.0093484 131.9044350  43.3601405
  76.0843981 131.7720564  43.5679097  77.2577898 132.6838569  43.8571347
  86.9578147 127.9713093  45.0062138  86.0495024 127.9028502  44.7120899
  86.9065743 128.4485038  45.8343963  80.7794891 129.4471232  36.6445537
  80.6594516 129.8928282  37.4831017  80.0847479 129.7956549  36.0859075
  74.3702296 131.5477624  44.1945194  74.4994677 131.8012102  45.1084606
  73.6899747 132.1405332  43.8749849  78.5401783 142.2174873  40.2935668
  78.4625812 143.1682699  40.3724149  77.9363426 141.8720746  40.9510594
  81.0319013 129.3902739  52.9497035  80.2552347 129.9496659  52.9399900
  81.6709576 129.8759522  53.4711905  88.8239793 126.1729532  46.7840012
  88.1814173 126.4662065  46.1379806  88.3194722 126.0582452  47.5893208
  86.4779957 129.9192705  37.4725871  87.3897813 130.1520092  37.2973568
  85.9689604 130.5029749  36.9100949  79.2865385 132.1988192  52.5115002
  80.0280069 132.7373236  52.2349826  78.5802370 132.8254481  52.6686554
  84.7620725 134.3417333  51.1087163  85.1704081 133.8999743  50.3641796
  84.0397986 133.7669960  51.3621356  81.1151795 129.2789940  48.4820720
  81.9612990 129.7029353  48.6255369  81.0550432 128.6223564  49.1759284
  85.0849539 134.9018523  44.8639452  84.4558402 135.0664237  44.1615520
  84.6975201 135.3160133  45.6350416  88.9638771 135.8372961  42.2183816
  88.2789809 136.2171863  41.6680849  89.0482620 136.4468288  42.9515764
  84.2651240 126.9394308  50.1401894  84.0212172 127.6936368  49.6036170
  84.5411170 127.3179655  50.9749141  86.2189703 133.4832920  48.8179160
  86.4306598 134.1264680  48.1413541  86.1719451 132.6495237  48.3501090
  83.8215932 126.0950741  45.7215732  82.9600411 126.3931994  46.0132469
  83.8478366 126.3121140  44.7896764  80.6377501 134.6392931  42.1289537
  81.1015847 134.9180634  41.3394160  80.3734299 133.7376376  41.9462628
  77.5301582 134.1864413  45.0669301  78.1002939 134.6151681  44.4286785
  78.1209694 133.9046998  45.7653486  79.5746387 130.7616084  38.9379103
  80.2770430 131.2137127  39.4053029  79.2427016 130.1199903  39.5658996
  78.0226749 129.3527840  53.3130312  77.3925409 130.0344121  53.5465709
  77.9162837 129.2410922  52.3683450  73.3171721 129.0199636  44.2396236
  72.5270775 129.2757165  43.7636347  73.8082968 129.8347974  44.3448277
  87.3335531 136.3604876  46.9901517  88.1552974 135.9585063  46.7084199
  87.3297933 136.2573110  47.9417633  75.2686466 129.3844216  41.1979713
  74.4717630 129.4962910  41.7163209  75.0412059 129.7230868  40.3320603
  81.0992134 135.9088919  49.1462227  81.1636567 136.3709326  49.9820399
  80.3903058 135.2786284  49.2744537  71.6009424 129.2730127  46.6711227
  71.8517462 130.1577137  46.9368803  72.1368972 129.0934728  45.8986319
  95.4241524 132.7043624  43.3386488  94.6705232 132.1351022  43.1830493
  95.5589065 132.6706289  44.2857123  80.8140152 137.5757026  39.0141208
  80.6785827 138.4208562  39.4426056  81.3549964 137.7776304  38.2507142
  77.3007491 123.6548606  55.6755563  76.9074437 123.1014805  56.3503207
  78.1173632 123.9659185  56.0662081  74.2669549 135.0932464  39.5869133
  74.7794070 135.8875715  39.7374698  74.9192262 134.3958755  39.5202734
  76.0764434 138.2098221  41.6691886  76.2531062 139.1316185  41.4812870
  76.8721267 137.8956640  42.0986266  80.2175452 125.0706485  53.2675820
  80.9585166 125.6713639  53.1880282  80.4493375 124.3284123  52.7093862
  75.3616790 130.2562853  51.5454049  75.2470305 129.3548110  51.8461148
  74.5061308 130.5026549  51.1938866  82.4408628 138.1980593  53.1441550
  81.9972482 137.4116972  52.8262454  83.1025842 138.3859743  52.4785441
  77.1995749 139.7276395  47.6702228  77.7503174 139.5993458  46.8979222
  76.3607225 140.0271284  47.3197121  84.5389866 138.4783393  51.1722951
  84.5208342 139.2992274  50.6803220  85.4609786 138.3537468  51.3973092
  80.9962920 135.9927522  52.0146460  81.5291257 135.2315811  51.7845767
  80.4677001 135.7001174  52.7570614  84.1632615 121.0987588  47.5440101
  83.8196885 121.9889230  47.4679212  84.5311578 120.9089246  46.6809686
  72.2318466 133.4221119  40.3628703  73.0693688 133.8318127  40.1462411
  72.4096734 132.4820561  40.3328897  84.1282898 131.0896199  36.0512536
  83.6129521 131.8600804  36.2900924  83.8560206 130.4161336  36.6745598
  81.7130009 125.9345900  41.1097775  80.8571605 125.5452751  40.9303413
  82.1256961 126.0137861  40.2497560  83.2429156 123.4692243  45.5089334
  82.7393951 123.4322379  44.6957140  83.5359763 124.3784986  45.5685991
  79.4872042 123.5530973  44.5155516  80.3525038 123.3573782  44.1561406
  79.5549550 123.3241325  45.4424873  89.1017172 133.8428554  37.9865710
  88.3246615 133.5039714  37.5420872  89.7808653 133.8481177  37.3120675
  83.9169201 128.9623292  37.8772318  83.6119337 129.2769441  38.7282461
  84.8699643 129.0404711  37.9199651  82.3615633 135.1213515  39.5265272
  81.8336995 134.3866274  39.2138509  81.8603136 135.8988191  39.2805240
  87.3408479 133.3162535  44.6432318  86.6832153 134.0061797  44.7312446
  88.1448878 133.7058967  44.9866304  77.0934361 125.7833181  41.8871883
  77.6678113 125.5608363  41.1545076  77.6805343 125.8521876  42.6400484
  86.1513938 131.6706908  42.6936260  86.6645820 132.3036900  43.1957969
  86.8015162 131.0708104  42.3279620  77.4203948 127.8137642  35.9067768
  76.5841260 128.1512329  36.2277043  77.2808717 127.6786622  34.9694905
  79.3957028 122.6574430  40.6146952  78.7421441 122.3423447  39.9903567
  79.3537502 122.0350170  41.3406775  80.5068233 132.9393725  32.5300245
  79.5995295 132.7082979  32.7291394  81.0039265 132.1431344  32.7174226
  83.4136312 141.6491232  35.4496931  82.7398011 141.9522929  36.0581889
  83.8002134 142.4520313  35.1002388  82.6294769 129.1456364  44.9394600
  81.7117330 129.3671311  44.7816288  83.0454912 129.2202674  44.0806307
  83.4129816 130.5447779  40.0697280  84.1601635 131.0569176  39.7604402
  83.6821406 130.2231832  40.9301674  81.6856467 133.0406320  37.0524235
  80.7767686 132.7565353  37.1496704  81.7151550 133.4605399  36.1927542
  86.9175734 136.6512909  40.8215402  86.4638061 135.8103819  40.8780593
  86.2869701 137.2874308  41.1590182  85.8608654 127.5804896  42.0516070
  85.1231410 127.0682282  42.3826312  86.1135427 127.1405277  41.2399347
  85.3608673 138.4889406  41.7565220  85.6531648 139.0494463  41.0377586
  85.8707294 138.7817967  42.5118379  85.9620281 120.3581148  42.6457839
  86.2679158 119.4978511  42.3583754  86.6872886 120.9498768  42.4456833
  72.2544637 130.7611834  41.0339437  72.0569037 130.1681195  40.3090503
  71.6991301 130.4564044  41.7515376  80.2341361 130.6534941  43.1534030
  80.2889970 129.7008777  43.0776507  79.4232563 130.8094380  43.6375328
  81.3832554 134.5815064  34.3912313  80.9451984 133.8650923  33.9317951
  82.1242995 134.8091178  33.8297405  78.1733721 129.2712000  40.9124409
  77.3601586 129.5706171  41.3189601  78.6692715 128.8767689  41.6298891
  80.3242298 139.2669757  42.8458674  80.2818477 139.4930604  41.9167206
  81.2404997 139.0333132  42.9944475  83.7707932 129.7353825  49.7439303
  84.1257320 129.9625298  50.6033769  84.4180064 130.0672202  49.1216558
  89.5005669 132.8572261  40.4488632  89.3623568 133.0473857  39.5209821
  89.1441888 133.6191643  40.9056683  77.6647795 126.8430356  46.5285644
  78.3047175 126.7019115  45.8308607  76.8325326 126.5564869  46.1524246
  89.5275049 134.9248788  45.4599903  89.9611556 134.8324077  46.3082957
  90.2406630 134.9006288  44.8219919  78.4408099 136.1432786  42.6420636
  79.2348698 135.6483106  42.4403211  77.7299792 135.6150649  42.2788342
  83.2602944 138.5250882  46.9933004  83.3139966 139.0941818  47.7610720
  82.3917725 138.6952767  46.6287041  74.7490863 130.2875868  38.7180389
  73.8188451 130.2260323  38.9350351  74.8448335 129.7651821  37.9217030
  74.6676412 126.8130681  41.3058631  74.9283229 127.7276014  41.1967791
  75.4893584 126.3455123  41.4555243  76.1401337 128.2268438  48.4757455
  76.8124391 128.0185800  47.8270104  75.3131124 128.0290524  48.0362687
  90.3890598 134.9672488  47.9932789  90.5826488 135.8718299  48.2392064
  90.2891217 134.5079907  48.8271374  82.0426909 124.8530379  50.4923116
  81.3954824 125.5520329  50.3987592  82.8127925 125.2866523  50.8599364
  85.4505707 135.1179231  53.5673669  85.2991213 134.8889783  52.6503753
  85.4410387 136.0749833  53.5805014  82.2191043 132.6911144  48.5519936
  83.1483103 132.8422303  48.3788903  81.7982073 132.7795165  47.6968582
  81.0179375 136.7161808  46.3218473  80.8790461 136.3480593  47.1944411
  80.2293971 137.2309448  46.1502431  81.6127527 141.8170905  37.6644010
  81.7879283 141.3458948  38.4789633  80.9260315 142.4436671  37.8925271
  82.5684590 136.0943411  43.7107311  82.2334423 136.0544181  44.6064961
  82.0688536 135.4288127  43.2377721  76.5428834 131.5011041  49.2359892
  76.4048632 130.7691280  49.8371431  77.4533758 131.4119941  48.9544080
  85.5043782 133.4399445  33.9844371  84.8872953 132.7146273  33.8877423
  85.0360271 134.2008806  33.6411445  79.1711135 131.2131000  48.7243572
  79.8810754 130.5724192  48.6830190  79.1280443 131.4643895  49.6469753
  87.1597914 138.1498354  51.6450151  87.1010460 137.4657574  50.9780734
  87.5617432 138.8917344  51.1930777  77.8840069 128.1996218  50.5439211
  77.3477426 127.7486957  51.1960808  77.2956777 128.3342127  49.8009676
  76.1788613 144.9660267  44.4383870  76.4185211 145.5978792  45.1162889
  75.3357809 144.6148308  44.7249229  77.2942328 127.6584870  33.1065675
  76.4171794 127.5373670  32.7427922  77.7700081 126.8670948  32.8544564
  87.1615321 136.1137938  49.8764131  86.2742100 135.7763859  49.9990530
  87.7313872 135.3820969  50.1132896  68.8144468 132.4462029  43.2007182
  69.5015508 132.1323759  42.6128198  68.6592597 133.3503394  42.9274434
  73.6179190 127.3352226  47.6292206  73.5337379 126.7277895  46.8942616
  72.7961897 127.8261244  47.6301702  80.6916474 140.7739390  46.8425374
  80.6186646 141.5794361  47.3544679  80.2493867 140.9731356  46.0173395
  80.4806254 140.0111160  40.3528196  79.6973776 140.5532840  40.4466420
  81.1798999 140.5285140  40.7522437  83.7902904 125.8205789  42.9962401
  84.2871604 125.0675752  42.6763471  83.0189886 125.8570106  42.4305610
  91.6432662 131.5246155  44.6380692  91.6322538 132.4070870  44.2674626
  90.7750041 131.1717706  44.4435230  83.1515158 140.6726224  48.9983533
  83.8643130 141.3073689  48.9259434  82.6605187 140.7690090  48.1823535
  84.8732685 134.5777477  40.5700824  83.9388964 134.6978939  40.4005529
  85.0509353 133.6749943  40.3060834  80.3737873 127.9623172  42.7234086
  80.0035660 127.4094213  43.4114991  80.8696965 127.3581306  42.1709086
  88.2605236 130.4194796  41.1050859  88.7265688 131.2522788  41.0311161
  88.7112737 129.9539777  41.8096117  78.2027071 138.4220667  49.8189104
  78.9036531 139.0557150  49.9718498  77.7322186 138.7635399  49.0584743
  86.3281467 136.7638617  38.1037011  86.6041311 136.6495212  39.0130885
  85.4585966 136.3656102  38.0649184  86.2321899 122.7875383  45.1441760
  85.3184979 123.0179610  45.3123967  86.6615000 122.8713827  45.9955792
  86.0028357 130.9765275  47.6441654  85.3499808 131.2241182  46.9894107
  86.3808737 130.1629413  47.3104131  82.9635531 141.0124968  41.7469824
  83.1457926 140.1946624  42.2097577  83.7868517 141.2292660  41.3094714
  83.2977697 139.9393153  39.0084873  83.8265463 139.4285608  38.3955035
  83.5605916 139.6235683  39.8730406  82.0515930 131.7185086  54.1307691
  81.3756567 131.6179215  54.8010066  82.8743564 131.5624300  54.5943688
  73.7994789 137.9557022  46.7520206  74.3848226 137.2100710  46.8848110
  73.6019628 138.2660979  47.6356870  76.6533445 140.9908270  41.7682649
  75.9843820 141.4754397  41.2846689  76.5146314 141.2377490  42.6826027
  68.3912444 130.5262623  45.4724649  68.4296544 129.9926213  46.2661767
  67.8852737 129.9997828  44.8535627  80.7938713 143.0252013  48.3665307
  81.3457021 143.1883635  49.1314392  81.1344907 143.6156451  47.6945332
  75.7703207 125.3727163  48.9687192  75.8344533 126.2341994  48.5564589
  75.7070327 124.7601165  48.2359550  75.2455479 127.4450296  52.6160226
  75.8727518 127.0627373  53.2297750  74.3883398 127.2264498  52.9815918
  85.6449588 137.8513271  54.2213961  86.1889492 138.4643229  53.7268916
  85.0636432 138.4092849  54.7380974  72.0221022 129.2526725  38.5478581
  72.3174463 128.3437403  38.4945634  71.1209058 129.2314464  38.2259583
  83.9307101 140.9733989  45.3528989  83.8058240 140.1723729  44.8439935
  84.5886192 141.4680182  44.8642959  75.5515269 127.3282721  44.5306129
  74.8301855 127.9418689  44.3913603  76.3408525 127.8640486  44.4522775
  85.9942009 138.7743009  46.9808539  85.0472344 138.6548360  46.9086866
  86.3424782 137.8865507  47.0634801  78.3541582 124.6637148  50.8046781
  78.8775984 124.9099444  51.5673090  78.1353916 125.4957183  50.3849918
  73.7508863 126.9340822  38.6717906  73.4221570 126.0538201  38.4893012
  74.1048234 126.8788491  39.5594295  82.9988442 138.5695725  43.1812891
  82.8513405 137.6412433  43.3620461  83.8241936 138.5915816  42.6969967
  76.8650687 127.2213792  39.0393384  77.2046759 127.7499714  38.3171992
  77.3122807 127.5594198  39.8151950  86.6022564 139.3924284  44.2677764
  87.5269112 139.1867145  44.1302215  86.4337867 139.1440685  45.1767106
  79.5594127 125.6050843  48.4896452  79.2190948 124.8058656  48.8917132
  78.8533134 125.9052554  47.9173285  80.2110599 122.6900155  46.9423775
  81.0336669 122.2160634  46.8202665  80.4548663 123.4690639  47.4422461
  78.8518834 125.7188414  37.2386676  79.5727196 126.0969667  36.7350393
  78.2284138 126.4377291  37.3421654  82.9949957 126.4233563  38.1745009
  83.2113571 127.3058201  37.8733837  82.5144024 126.0319776  37.4450651
  77.7349178 129.3819276  44.7515753  77.5893759 129.6959579  45.6440035
  77.2574382 130.0004176  44.1986652  79.5945561 126.3721824  44.7996643
  79.5807130 125.4762917  44.4628941  80.3117989 126.3792488  45.4334929
  81.4471692 126.8059164  46.8449770  81.1889469 127.7276235  46.8434101
  80.9156732 126.4089599  47.5350234  86.3917880 139.9109951  39.6239856
  86.5654758 139.3456374  38.8713708  86.8846772 140.7110846  39.4419346
  72.2094840 131.9224620  47.6903414  71.6648308 132.6984428  47.8223689
  73.0874190 132.2695425  47.5322536  78.9982457 125.2536204  40.0684213
  79.1198368 124.3252851  40.2675100  78.7084499 125.2674890  39.1562528
  81.8673647 122.9391115  43.2050933  81.8895344 123.0030448  42.2502912
  82.2841706 122.0995623  43.3991439  92.2457271 132.6746374  41.2430155
  92.6888418 131.9253700  40.8449279  91.3683782 132.6656511  40.8603887
  87.3793053 139.2276716  36.7236754  88.0743957 139.8483408  36.9424069
  87.7216203 138.3772067  36.9989132  72.9960862 131.0494517  50.5833571
  72.2542598 131.1977152  51.1698202  72.6753606 131.3102782  49.7200321
  89.2784476 136.6776421  38.2524085  89.8035800 137.0163694  37.5273405
  89.1906828 135.7423437  38.0687219  80.9404525 140.5910495  50.3813961
  81.2491651 140.3459642  51.2536661  81.7380007 140.7957133  49.8932832
  80.9625137 142.7448405  42.6119338  80.5230127 142.2524783  43.3052195
  81.7133254 142.2021372  42.3711413  73.4417476 138.9359945  42.6143966
  74.2675496 138.6363717  42.2342609  73.0911528 138.1667568  43.0633755
  78.4099009 138.2886414  44.6841640  77.7879018 137.6257119  44.3843867
  79.0803876 138.3147546  44.0015287  71.6426081 136.8546272  43.5732900
  70.8057989 136.4268446  43.3916901  71.6149726 137.0478715  44.5103691
  78.4823536 126.7668202  54.2774146  78.5311692 127.6430325  53.8951915
  79.0246051 126.2245595  53.7045789  88.9678382 137.3109325  53.5575283
  88.1773926 137.2933464  53.0179782  88.7311737 137.8497619  54.3124319
  89.0876257 134.1601791  50.8708011  89.1374262 133.9951799  51.8123534
  88.9790180 133.2929050  50.4805892  77.9712516 136.8390337  38.1600100
  78.1200636 137.5225801  37.5066773  78.7778959 136.8195427  38.6749556
  86.3780019 130.1432719  52.1867318  87.2789882 130.0039184  51.8951316
  86.4527994 130.3087174  53.1265495  80.7122825 127.5199574  51.0320504
  79.8426134 127.8133140  50.7603093  80.9482305 128.1040019  51.7527768
  90.5894454 136.5798733  51.1150033  90.2979262 136.9428713  51.9513494
  89.9766585 135.8665741  50.9363365  91.7890136 134.1451613  43.6352603
  92.6237028 134.5841417  43.7990163  91.9249265 133.6690266  42.8160849
  88.8381642 131.7031347  49.5830091  89.3135764 131.8958994  48.7748942
  87.9147207 131.7590533  49.3373474  75.7265149 132.8655515  39.1661169
  75.4811191 131.9617845  39.3641379  75.8961063 132.8672665  38.2240647
  83.4161859 123.7379191  48.5485925  83.9343802 124.4740218  48.2232413
  83.0616991 124.0443184  49.3832684  74.9960796 128.5983872  36.6647330
  74.3030041 128.6728227  36.0087366  74.7512548 127.8344216  37.1868847
  83.6674453 120.1579474  44.0686821  83.9476207 119.4902663  44.6947248
  84.4525060 120.3508569  43.5561485  81.4707921 139.3338467  35.6311848
  80.8981888 139.9528655  35.1782319  82.0440715 139.8837829  36.1651769
  87.5383311 128.5797108  47.8158396  88.4900734 128.6795205  47.8370620
  87.3686762 127.7875376  48.3256481  85.5597691 125.6652691  48.0017797
  84.9647623 125.9457703  47.3064286  85.2747387 126.1546592  48.7734538
  84.6905181 139.6175618  36.7620430  85.6235854 139.5521179  36.9653305
  84.6028394 140.4531884  36.3034962  87.3193198 138.9341488  33.7224377
  87.2406829 138.6001352  34.6160135  88.1402865 139.4263256  33.7215850
  90.0171389 131.8003227  46.9300696  89.9847709 130.8619228  47.1160380
  90.6272013 131.8787264  46.1966521  81.8554720 130.6699280  32.9727900
  82.8013824 130.5405488  33.0416318  81.4768965 129.9313942  33.4497328
  90.1665877 128.5914271  46.9758979  89.6504926 127.8072727  46.7888908
  91.0505826 128.2632987  47.1405499  87.8276604 122.3355286  42.9354792
  87.6301425 122.0270374  43.8198124  88.4376310 123.0616925  43.0652722
  95.8347939 132.8619234  46.0706733  96.5651327 132.6004522  46.6314436
  95.2254884 132.1247956  46.1108801  93.9163236 131.0027097  46.6681184
  93.1896399 130.8683062  46.0597676  93.5010523 131.3103925  47.4737902
  81.7393412 134.7217026  54.4328557  82.6596422 134.8995625  54.6268604
  81.7042995 133.7773072  54.2808256  80.0397637 128.5949257  32.9082785
  79.1329092 128.2982369  32.9845499  80.3173618 128.2979075  32.0417071
  70.9575577 129.9155620  43.3581832  70.6378362 129.0620928  43.0656206
  70.4109005 130.1304198  44.1139799  74.7355485 132.6318061  47.0751338
  74.9541495 133.5635169  47.0939372  75.1481259 132.2726035  47.8606142
  81.6559703 123.1386146  39.0627027  80.8460431 122.7933231  39.4382273
  82.3444120 122.8293690  39.6514638  83.5850251 122.2164193  40.6851323
  84.1381290 122.6359647  41.3441346  83.8220337 121.2899941  40.7274279
  79.6083350 128.2051267  56.4654087  79.5080077 129.1545624  56.3966178
  79.3904892 127.8769506  55.5930157  78.8096422 125.4536192  33.0494764
  79.6715586 125.7791090  33.3090582  78.9946766 124.6667688  32.5367830
  70.8263837 133.5358532  45.3274953  70.1327309 133.1212484  44.8144908
  71.5736828 133.5779068  44.7308372  86.9629058 124.3264718  40.1929987
  86.3827727 124.9849522  39.8108040  86.6964991 123.5042063  39.7817405
  85.4132624 123.7269776  42.3951308  85.9132403 123.8386311  41.5865627
  86.0568232 123.4230829  43.0352116  79.4714620 131.6348406  55.2819149
  78.9881702 132.4348766  55.4883038  79.5575559 131.6456350  54.3286593
  72.7400580 133.4676785  43.2040968  72.7171268 133.5664473  42.2522851
  73.0501216 134.3141936  43.5258134  75.3987958 135.5252940  47.3187583
  76.3531211 135.4936883  47.2517514  75.2000481 135.0643564  48.1337808
  75.9887340 134.0954056  49.8858380  76.8080229 134.5898135  49.9093217
  76.2624148 133.1786025  49.8575948  85.7453936 126.4864809  39.2486336
  84.8579791 126.7714459  39.0306530  86.1607925 126.3258572  38.4013613
  89.0968472 126.5111330  42.9640675  89.8728862 127.0007782  43.2365292
  88.3716606 126.9369384  43.4212544  91.5341031 127.2238949  44.0214616
  92.1285522 126.9834685  43.3107924  91.6067614 126.5046079  44.6488152
  73.7538186 141.0672560  44.3357780  73.6192654 140.3072961  43.7695778
  73.3370249 141.7913460  43.8686569  84.8897149 136.2509483  33.3434356
  85.5933000 136.4559486  33.9592011  84.1659798 136.8186245  33.6083439
  85.7194960 132.0019345  39.4636626  85.6630161 132.4587896  38.6244258
  86.2723302 131.2410029  39.2859469  89.5299766 127.7909076  40.2886745
  89.2736700 127.3905712  41.1194953  88.9052634 128.5052870  40.1636885
  93.8412104 130.5305150  42.7958037  93.2811662 130.5998339  43.5689599
  93.2355607 130.3546134  42.0757533  76.9107312 141.9641877  44.5476223
  76.7939697 142.9087309  44.4454913  76.0899759 141.6615438  44.9362022
  86.7983847 136.6892013  35.3932816  87.6329451 136.2573211  35.2110291
  86.6368190 136.5174026  36.3209710  86.4529739 133.1924126  36.7589155
  86.3978543 133.0268397  35.8177599  85.8275794 133.9000159  36.9151345
  71.2422254 128.4292190  50.5850577  71.8881118 127.9191144  51.0737802
  71.0339405 129.1660872  51.1594003  83.7675646 135.4973038  56.0842718
  84.6366806 135.6713690  55.7229353  83.2882398 136.3167455  55.9618447
  79.7625865 122.6932235  36.3374473  79.7504534 123.6374075  36.4942744
  80.6549286 122.5102380  36.0433935  77.9361826 142.6170139  47.7632151
  78.8389073 142.6493749  48.0798646  77.7099197 141.6870590  47.7778487
  79.6915429 141.3701125  44.4242230  78.7411060 141.3702987  44.3106602
  79.9947915 140.6233860  43.9078265  83.5777984 119.2875011  40.5920410
  82.8110380 118.7333498  40.7377093  83.9888689 119.3596880  41.4534562
  75.5819745 125.5759807  54.6825591  76.4451207 125.2196612  54.8928916
  75.0085156 125.2373702  55.3700996  95.4268122 147.2061664  45.4887992
  96.0646532 147.0868411  44.7851333  95.3088965 148.1542508  45.5475945
  92.2357828 147.1589092  45.4249517  91.8976340 147.0430156  44.5370052
  93.1047596 146.7580257  45.4050523  88.0944644 149.0124568  41.4146408
  87.5309509 148.9214505  40.6462696  87.9797039 148.1924473  41.8948901
  92.7177611 148.3123943  51.3835723  92.7066252 147.9176742  50.5116226
  92.8798251 147.5790016  51.9769494  85.6409076 150.5075760  44.2530629
  86.4330368 150.1666584  43.8376928  85.8805726 150.6170735  45.1732782
  90.3641079 148.4737904  46.9216266  90.9604652 148.2493926  46.2073229
  90.4216051 147.7322649  47.5241714  94.9809390 144.9313118  42.5641201
  95.7672480 144.5132541  42.2131618  95.2448095 145.8359210  42.7322849
 100.3817818 144.8688351  43.4674179 101.1142990 144.2987568  43.7012009
  99.6257173 144.4809951  43.9080685  91.9993937 147.2915592  40.6637521
  91.6352145 146.7646213  41.3750443  92.8561053 146.9014061  40.4904007
  97.9043238 138.5809925  47.9268788  97.5726563 139.4505336  47.7030003
  97.3088851 138.2646209  48.6062818  91.6399424 142.3205492  35.6598870
  91.8073827 143.1885728  36.0269341  91.4496593 142.4832774  34.7360159
  94.3974757 150.7822471  47.3264700  94.0975481 151.6847510  47.2180508
  94.0525817 150.5154654  48.1785853  87.8487239 147.2336268  43.3601405
  86.9237735 147.1012482  43.5679097  88.0971652 148.0130487  43.8571347
  97.7971901 143.3005011  45.0062138  96.8888779 143.2320419  44.7120899
  97.7459497 143.7776956  45.8343963  91.6188645 144.7763149  36.6445537
  91.4988270 145.2220200  37.4831017  90.9241234 145.1248467  36.0859075
  85.2096050 146.8769541  44.1945194  85.3388431 147.1304020  45.1084606
  84.5293501 147.4697249  43.8749849  91.8712767 144.7194657  52.9497035
  91.0946101 145.2788577  52.9399900  92.5103330 145.2051440  53.4711905
  99.6633548 141.5021449  46.7840012  99.0207928 141.7953983  46.1379806
  99.1588476 141.3874370  47.5893208  90.1259139 147.5280110  52.5115002
  90.8673824 148.0665154  52.2349826  89.4196125 148.1546399  52.6686554
  95.6014479 149.6709250  51.1087163  96.0097835 149.2291661  50.3641796
  94.8791741 149.0961878  51.3621356  91.9545549 144.6081857  48.4820720
  92.8006744 145.0321271  48.6255369  91.8944187 143.9515481  49.1759284
  95.9243294 150.2310441  44.8639452  95.2952156 150.3956155  44.1615520
  95.5368956 150.6452051  45.6350416  95.1044994 142.2686226  50.1401894
  94.8605926 143.0228286  49.6036170  95.3804925 142.6471573  50.9749141
  97.0583457 148.8124838  48.8179160  97.2700352 149.4556598  48.1413541
  97.0113205 147.9787154  48.3501090  94.6609686 141.4242659  45.7215732
  93.7994165 141.7223912  46.0132469  94.6872121 141.6413057  44.7896764
  91.4771256 149.9684849  42.1289537  91.9409601 150.2472552  41.3394160
  91.2128054 149.0668294  41.9462628  88.3695337 149.5156331  45.0669301
  88.9396694 149.9443599  44.4286785  88.9603448 149.2338915  45.7653486
  90.4140142 146.0908001  38.9379103  91.1164185 146.5429045  39.4053029
  90.0820770 145.4491820  39.5658996  88.8620503 144.6819758  53.3130312
  88.2319164 145.3636039  53.5465709  88.7556591 144.5702840  52.3683450
  84.1565476 144.3491554  44.2396236  83.3664530 144.6049083  43.7636347
  84.6476723 145.1639892  44.3448277  86.1080221 144.7136133  41.1979713
  85.3111384 144.8254828  41.7163209  85.8805813 145.0522786  40.3320603
  91.9385889 151.2380837  49.1462227  92.0030321 151.7001244  49.9820399
  91.2296812 150.6078202  49.2744537  82.4403179 144.6022045  46.6711227
  82.6911217 145.4869055  46.9368803  82.9762727 144.4226646  45.8986319
  88.1401246 138.9840524  55.6755563  87.7468191 138.4306723  56.3503207
  88.9567386 139.2951102  56.0662081  91.0569207 140.3998403  53.2675820
  91.7978920 141.0005556  53.1880282  91.2887130 139.6576041  52.7093862
  86.2010545 145.5854770  51.5454049  86.0864060 144.6840028  51.8461148
  85.3455063 145.8318467  51.1938866  91.8356675 151.3219440  52.0146460
  92.3685012 150.5607728  51.7845767  91.3070756 151.0293092  52.7570614
  95.0026370 136.4279506  47.5440101  94.6590639 137.3181148  47.4679212
  95.3705332 136.2381164  46.6809686  83.0712220 148.7513036  40.3628703
  83.9087442 149.1610045  40.1462411  83.2490488 147.8112479  40.3328897
  92.5523764 141.2637818  41.1097775  91.6965360 140.8744668  40.9303413
  92.9650715 141.3429779  40.2497560  94.0822910 138.7984161  45.5089334
  93.5787706 138.7614296  44.6957140  94.3753517 139.7076904  45.5685991
  90.3265796 138.8822891  44.5155516  91.1918793 138.6865700  44.1561406
  90.3943305 138.6533243  45.4424873  94.7562956 144.2915209  37.8772318
  94.4513091 144.6061358  38.7282461  95.7093398 144.3696629  37.9199651
  98.1802234 148.6454453  44.6432318  97.5225908 149.3353714  44.7312446
  98.9842633 149.0350885  44.9866304  87.9328115 141.1125099  41.8871883
  88.5071867 140.8900280  41.1545076  88.5199098 141.1813793  42.6400484
  96.9907692 146.9998826  42.6936260  97.5039574 147.6328818  43.1957969
  97.6408916 146.4000021  42.3279620  88.2597702 143.1429560  35.9067768
  87.4235014 143.4804246  36.2277043  88.1202472 143.0078540  34.9694905
  90.2350783 137.9866348  40.6146952  89.5815195 137.6715365  39.9903567
  90.1931257 137.3642088  41.3406775  93.4688523 144.4748281  44.9394600
  92.5511085 144.6963228  44.7816288  93.8848667 144.5494592  44.0806307
  94.2523571 145.8739697  40.0697280  94.9995390 146.3861094  39.7604402
  94.5215161 145.5523750  40.9301674  96.7002408 142.9096813  42.0516070
  95.9625165 142.3974199  42.3826312  96.9529182 142.4697195  41.2399347
  96.8014035 135.6873065  42.6457839  97.1072912 134.8270429  42.3583754
  97.5266640 136.2790685  42.4456833  83.0938392 146.0903752  41.0339437
  82.8962791 145.4973112  40.3090503  82.5385056 145.7855962  41.7515376
  91.0735115 145.9826858  43.1534030  91.1283725 145.0300695  43.0776507
  90.2626317 146.1386297  43.6375328  89.0127475 144.6003918  40.9124409
  88.1995341 144.8998089  41.3189601  89.5086469 144.2059607  41.6298891
  94.6101687 145.0645742  49.7439303  94.9651075 145.2917216  50.6033769
  95.2573818 145.3964119  49.1216558  88.5041550 142.1722274  46.5285644
  89.1440929 142.0311033  45.8308607  87.6719080 141.8856787  46.1524246
  89.2801854 151.4724704  42.6420636  90.0742452 150.9775024  42.4403211
  88.5693546 150.9442567  42.2788342  85.5884617 145.6167786  38.7180389
  84.6582205 145.5552241  38.9350351  85.6842089 145.0943738  37.9217030
  85.5070166 142.1422599  41.3058631  85.7676984 143.0567932  41.1967791
  86.3287339 141.6747041  41.4555243  86.9795092 143.5560356  48.4757455
  87.6518145 143.3477718  47.8270104  86.1524878 143.3582442  48.0362687
  92.8820664 140.1822297  50.4923116  92.2348579 140.8812246  50.3987592
  93.6521679 140.6158441  50.8599364  96.2899462 150.4471149  53.5673669
  96.1384968 150.2181700  52.6503753  96.2804141 151.4041750  53.5805014
  93.0584798 148.0203062  48.5519936  93.9876858 148.1714221  48.3788903
  92.6375828 148.1087082  47.6968582  93.4078345 151.4235329  43.7107311
  93.0728178 151.3836099  44.6064961  92.9082291 150.7580045  43.2377721
  87.3822589 146.8302959  49.2359892  87.2442387 146.0983197  49.8371431
  88.2927512 146.7411859  48.9544080  90.0104890 146.5422918  48.7243572
  90.7204508 145.9016110  48.6830190  89.9674198 146.7935813  49.6469753
  88.7233824 143.5288136  50.5439211  88.1871181 143.0778874  51.1960808
  88.1350532 143.6634045  49.8009676  84.4572945 142.6644144  47.6292206
  84.3731133 142.0569813  46.8942616  83.6355651 143.1553162  47.6301702
  94.6296659 141.1497707  42.9962401  95.1265358 140.3967669  42.6763471
  93.8583640 141.1862024  42.4305610 102.4826416 146.8538073  44.6380692
 102.4716292 147.7362788  44.2674626 101.6143795 146.5009623  44.4435230
  95.7126439 149.9069394  40.5700824  94.7782718 150.0270857  40.4005529
  95.8903108 149.0041861  40.3060834  91.2131627 143.2915090  42.7234086
  90.8429415 142.7386130  43.4114991  91.7090720 142.6873224  42.1709086
  99.0998991 145.7486714  41.1050859  99.5659443 146.5814705  41.0311161
  99.5506491 145.2831695  41.8096117  97.0715653 138.1167301  45.1441760
  96.1578733 138.3471527  45.3123967  97.5008755 138.2005745  45.9955792
  96.8422112 146.3057193  47.6441654  96.1893562 146.5533100  46.9894107
  97.2202492 145.4921331  47.3104131  92.8909685 147.0477004  54.1307691
  92.2150322 146.9471133  54.8010066  93.7137319 146.8916217  54.5943688
  79.2306199 145.8554540  45.4724649  79.2690298 145.3218131  46.2661767
  78.7246492 145.3289746  44.8535627  86.6096961 140.7019081  48.9687192
  86.6738288 141.5633912  48.5564589  86.5464081 140.0893083  48.2359550
  86.0849234 142.7742213  52.6160226  86.7121272 142.3919291  53.2297750
  85.2277152 142.5556415  52.9815918  82.8614776 144.5818643  38.5478581
  83.1568217 143.6729321  38.4945634  81.9602812 144.5606382  38.2259583
  86.3909023 142.6574639  44.5306129  85.6695609 143.2710607  44.3913603
  87.1802279 143.1932404  44.4522775  89.1935337 139.9929066  50.8046781
  89.7169739 140.2391362  51.5673090  88.9747670 140.8249100  50.3849918
  84.5902618 142.2632740  38.6717906  84.2615324 141.3830119  38.4893012
  84.9441989 142.2080409  39.5594295  87.7044441 142.5505710  39.0393384
  88.0440514 143.0791631  38.3171992  88.1516562 142.8886116  39.8151950
  90.3987882 140.9342761  48.4896452  90.0584702 140.1350574  48.8917132
  89.6926888 141.2344472  47.9173285  91.0504354 138.0192073  46.9423775
  91.8730423 137.5452551  46.8202665  91.2942417 138.7982557  47.4422461
  89.6912588 141.0480332  37.2386676  90.4120951 141.4261584  36.7350393
  89.0677892 141.7669208  37.3421654  93.8343711 141.7525481  38.1745009
  94.0507325 142.6350118  37.8733837  93.3537778 141.3611694  37.4450651
  88.5742932 144.7111194  44.7515753  88.4287513 145.0251497  45.6440035
  88.0968136 145.3296094  44.1986652  90.4339315 141.7013742  44.7996643
  90.4200884 140.8054835  44.4628941  91.1511743 141.7084405  45.4334929
  92.2865446 142.1351082  46.8449770  92.0283224 143.0568153  46.8434101
  91.7550486 141.7381516  47.5350234  83.0488595 147.2516538  47.6903414
  82.5042063 148.0276346  47.8223689  83.9267944 147.5987343  47.5322536
  89.8376211 140.5828122  40.0684213  89.9592122 139.6544768  40.2675100
  89.5478254 140.5966808  39.1562528  92.7067402 138.2683032  43.2050933
  92.7289098 138.3322366  42.2502912  93.1235461 137.4287541  43.3991439
  83.8354616 146.3786434  50.5833571  83.0936353 146.5269070  51.1698202
  83.5147361 146.6394700  49.7200321  89.3217291 142.0960119  54.2774146
  89.3705446 142.9722242  53.8951915  89.8639805 141.5537512  53.7045789
  99.9270012 149.4893709  50.8708011  99.9768016 149.3243716  51.8123534
  99.8183935 148.6220968  50.4805892  97.2173774 145.4724637  52.1867318
  98.1183637 145.3331102  51.8951316  97.2921748 145.6379092  53.1265495
  91.5516579 142.8491492  51.0320504  90.6819889 143.1425058  50.7603093
  91.7876060 143.4331937  51.7527768  99.6775397 147.0323265  49.5830091
 100.1529518 147.2250911  48.7748942  98.7540962 147.0882451  49.3373474
  86.5658903 148.1947432  39.1661169  86.3204945 147.2909762  39.3641379
  86.7354818 148.1964583  38.2240647  94.2555613 139.0671109  48.5485925
  94.7737557 139.8032136  48.2232413  93.9010746 139.3735102  49.3832684
  85.8354551 143.9275790  36.6647330  85.1423796 144.0020145  36.0087366
  85.5906303 143.1636134  37.1868847  94.5068207 135.4871391  44.0686821
  94.7869961 134.8194580  44.6947248  95.2918814 135.6800487  43.5561485
  98.3777066 143.9089025  47.8158396  99.3294488 144.0087123  47.8370620
  98.2080516 143.1167294  48.3256481  96.3991445 140.9944608  48.0017797
  95.8041377 141.2749621  47.3064286  96.1141142 141.4838509  48.7734538
 100.8565143 147.1295145  46.9300696 100.8241463 146.1911146  47.1160380
 101.4665767 147.2079182  46.1966521 101.0059632 143.9206188  46.9758979
 100.4898681 143.1364645  46.7888908 101.8899580 143.5924905  47.1405499
  98.6670359 137.6647204  42.9354792  98.4695180 137.3562292  43.8198124
  99.2770064 138.3908843  43.0652722  92.5787167 150.0508944  54.4328557
  93.4990176 150.2287543  54.6268604  92.5436750 149.1064989  54.2808256
  81.7969332 145.2447538  43.3581832  81.4772116 144.3912846  43.0656206
  81.2502760 145.4596116  44.1139799  85.5749239 147.9609979  47.0751338
  85.7935249 148.8927087  47.0939372  85.9875013 147.6017953  47.8606142
  92.4953457 138.4678064  39.0627027  91.6854185 138.1225149  39.4382273
  93.1837874 138.1585608  39.6514638  94.4244005 137.5456111  40.6851323
  94.9775044 137.9651564  41.3441346  94.6614092 136.6191859  40.7274279
  90.4477105 143.5343184  56.4654087  90.3473832 144.4837541  56.3966178
  90.2298647 143.2061423  55.5930157  89.6490176 140.7828110  33.0494764
  90.5109340 141.1083008  33.3090582  89.8340520 139.9959605  32.5367830
  81.6657592 148.8650449  45.3274953  80.9721063 148.4504402  44.8144908
  82.4130583 148.9070986  44.7308372  97.8022812 139.6556636  40.1929987
  97.2221482 140.3141440  39.8108040  97.5358745 138.8333981  39.7817405
  96.2526379 139.0561694  42.3951308  96.7526157 139.1678228  41.5865627
  96.8961987 138.7522747  43.0352116  90.3108375 146.9640323  55.2819149
  89.8275456 147.7640683  55.4883038  90.3969314 146.9748268  54.3286593
  83.5794334 148.7968703  43.2040968  83.5565022 148.8956390  42.2522851
  83.8894971 149.6433854  43.5258134  86.8281094 149.4245974  49.8858380
  87.6473983 149.9190053  49.9093217  87.1017902 148.5077942  49.8575948
  96.5847691 141.8156726  39.2486336  95.6973546 142.1006377  39.0306530
  97.0001680 141.6550490  38.4013613  99.9362227 141.8403247  42.9640675
 100.7122617 142.3299700  43.2365292  99.2110361 142.2661302  43.4212544
 102.3734785 142.5530867  44.0214616 102.9679276 142.3126603  43.3107924
 102.4461369 141.8337997  44.6488152 100.3693520 143.1200994  40.2886745
 100.1130454 142.7197630  41.1194953  99.7446388 143.8344788  40.1636885
 104.6805858 145.8597067  42.7958037 104.1205416 145.9290257  43.5689599
 104.0749361 145.6838052  42.0757533  82.0816009 143.7584108  50.5850577
  82.7274872 143.2483062  51.0737802  81.8733160 144.4952790  51.1594003
  94.6069401 150.8264955  56.0842718  95.4760560 151.0005608  55.7229353
  94.1276152 151.6459372  55.9618447  90.6019619 138.0224153  36.3374473
  90.5898289 138.9665992  36.4942744  91.4943041 137.8394298  36.0433935
  94.4171738 134.6166929  40.5920410  93.6504134 134.0625416  40.7377093
  94.8282443 134.6888798  41.4534562  86.4213500 140.9051725  54.6825591
  87.2844961 140.5488530  54.8928916  85.8478910 140.5665620  55.3700996
  16.8421331  18.0142642  38.1081029  16.8309972  17.6195441  37.2361533
  17.0041971  17.2808715  38.7014801  13.5628592  20.7979754  37.0560213
  13.2718458  21.7025385  36.9406880  14.1985577  20.8396282  37.7704283
  15.9956487  14.4213355  39.6742342  15.2189821  14.9807276  39.6645206
  16.6347050  14.9070138  40.1957212  14.2502859  17.2298809  39.2360309
  14.9917544  17.7683853  38.9595132  13.5439845  17.8565098  39.3931860
  19.7258199  19.3727949  37.8332470  20.1341555  18.9310360  37.0887102
  19.0035460  18.7980577  38.0866663  22.2973005  21.3915492  33.7146824
  23.1190449  20.9895679  33.4329505  22.2935408  21.2883726  34.6662939
  17.4046102  23.2291209  39.8686857  16.9609957  22.4427588  39.5507761
  18.0663316  23.4170360  39.2030747  19.5027340  23.5094009  37.8968258
  19.4845816  24.3302890  37.4048527  20.4247261  23.3848085  38.1218399
  15.9600395  21.0238139  38.7391766  16.4928731  20.2626427  38.5091074
  15.4314476  20.7311791  39.4815921  25.3528073  19.9983105  34.7178095
  25.5463963  20.9028915  34.9637370  25.2528691  19.5390524  35.5516680
  20.4143181  20.1489848  40.2918976  20.2628688  19.9200399  39.3749060
  20.4047861  21.1060449  40.3050321  22.1235388  23.1808970  38.3695458
  22.0647934  22.4968190  37.7026041  22.5254906  23.9227960  37.9176084
  22.1252795  21.1448554  36.6009437  21.2379574  20.8074476  36.7235836
  22.6951346  20.4131585  36.8378203  18.1152632  25.7036840  35.7228839
  18.8280604  26.3384305  35.6504741  17.6242661  25.8000706  34.9068841
  13.1664546  23.4531284  36.5434410  13.8674005  24.0867767  36.6963804
  12.6959661  23.7946015  35.7830049  17.0153405  16.7495702  40.8552998
  16.3394042  16.6489832  41.5255373  17.8381039  16.5934916  41.3188995
  15.7576188  28.0562630  35.0910614  16.3094496  28.2194251  35.8559699
  16.0982381  28.6467068  34.4190638  20.6087062  22.8823887  40.9459268
  21.1526966  23.4953846  40.4514223  20.0273907  23.4403466  41.4626281
  20.9579483  23.8053626  33.7053846  20.0109819  23.6858977  33.6332173
  21.3062256  22.9176124  33.7880107  15.9041999  25.6221112  37.1059268
  16.2129125  25.3770258  37.9781968  16.7017481  25.8267750  36.6178138
  23.9315856  22.3419942  40.2820589  23.1411400  22.3244080  39.7425089
  23.6949211  22.8808235  41.0369626  24.0513731  19.1912408  37.5953318
  24.1011736  19.0262415  38.5368841  23.9427655  18.3239667  37.2051199
  21.3417494  15.1743336  38.9112625  22.2427357  15.0349801  38.6196622
  21.4165468  15.3397791  39.8510802  25.5531928  21.6109349  37.8395339
  25.2616736  21.9739330  38.6758800  24.9404059  20.8976358  37.6608671
  23.8019116  16.7341964  36.3075397  24.2773238  16.9269610  35.4994249
  22.8784682  16.7901150  36.0618781  30.7985413  17.8929851  32.7952039
  31.5288802  17.6315139  33.3559743  30.1892359  17.1558573  32.8354107
  16.7030887  19.7527643  41.1573864  17.6233896  19.9306242  41.3513910
  16.6680470  18.8083688  41.0053563  14.5720824  13.2361883  43.1899394
  14.4717551  14.1856240  43.1211485  14.3542367  12.9080122  42.3175464
  14.4352095  16.6659022  42.0064455  13.9519176  17.4659382  42.2128344
  14.5213034  16.6766967  41.0531899  18.7313121  20.5283654  42.8088024
  19.6004280  20.7024307  42.4474659  18.2519872  21.3478071  42.6863754
  12.8999301  27.6480755  34.4877458  13.8026548  27.6804366  34.8043953
  12.6736671  26.7181206  34.5023794  30.3905596  32.2372280  32.2133299
  31.0284006  32.1179028  31.5096639  30.2726439  33.1853124  32.2721251
  27.1995303  32.1899708  32.1494824  26.8613814  32.0740773  31.2615359
  28.0685071  31.7890873  32.1295830  23.0582118  34.0435185  28.1391715
  22.4946983  33.9525122  27.3708003  22.9434513  33.2235089  28.6194207
  27.6815086  33.3434560  38.1081029  27.6703726  32.9487358  37.2361533
  27.8435725  32.6100633  38.7014801  20.6046550  35.5386376  30.9775935
  21.3967842  35.1977201  30.5622235  20.8443200  35.6481351  31.8978089
  28.6381677  37.7106152  23.4506180  27.9869657  38.2960233  23.0640193
  29.4326040  38.2412347  23.5101217  24.4022347  36.1271672  37.0560213
  24.1112213  37.0317303  36.9406880  25.0379331  36.1688199  37.7704283
  25.3278554  33.5048520  33.6461573  25.9242126  33.2804543  32.9318536
  25.3853525  32.7633266  34.2487021  29.9446865  29.9623734  29.2886507
  30.7309954  29.5443157  28.9376924  30.2085569  30.8669826  29.4568156
  30.1156942  35.3996584  23.9875164  29.4802775  35.4731211  24.6996069
  29.7854349  35.9890183  23.3094243  35.3455292  29.8998967  30.1919486
  36.0780464  29.3298184  30.4257315  34.5894648  29.5120568  30.6325991
  26.9631412  32.3226209  27.3882828  26.5989619  31.7956830  28.0995750
  27.8198528  31.9324678  27.2149314  32.8680712  23.6120541  34.6514094
  32.5364037  24.4815952  34.4275309  32.2726326  23.2956825  35.3308125
  29.3612232  35.8133087  34.0510007  29.0612955  36.7158126  33.9425814
  29.0163291  35.5465271  34.9031160  22.8124713  32.2646884  30.0846711
  21.8875210  32.1323098  30.2924403  23.0609126  33.0441103  30.5816654
  32.7609376  28.3315628  31.7307444  31.8526253  28.2631036  31.4366205
  32.7096971  28.8087572  32.5589270  20.1733524  31.9080158  30.9190501
  20.3025905  32.1614637  31.8329912  19.4930976  32.5007866  30.5995156
  24.3433012  42.5777408  27.0180975  24.2657041  43.5285233  27.0969455
  23.7394655  42.2323280  27.6755901  26.8350241  29.7505273  39.6742342
  26.0583575  30.3099193  39.6645206  27.4740804  30.2362056  40.1957212
  34.6271022  26.5332066  33.5085318  33.9845402  26.8264599  32.8625113
  34.1225951  26.4184986  34.3138515  32.2811186  30.2795239  24.1971178
  33.1929042  30.5122626  24.0218875  31.7720833  30.8632283  23.6346256
  25.0896614  32.5590726  39.2360309  25.8311298  33.0975770  38.9595132
  24.3833599  33.1857015  39.3931860  30.5651953  34.7019867  37.8332470
  30.9735309  34.2602277  37.0887102  29.8429215  34.1272494  38.0866663
  26.9183023  29.6392474  35.2066027  27.7644219  30.0631887  35.3500676
  26.8581661  28.9826098  35.9004590  30.8880768  35.2621058  31.5884759
  30.2589630  35.4266772  30.8860827  30.5006430  35.6762667  32.3595723
  34.7670000  36.1975495  28.9429123  34.0821038  36.5774397  28.3926156
  34.8513849  36.8070822  29.6761070  30.0682469  27.2996842  36.8647201
  29.8243401  28.0538903  36.3281476  30.3442399  27.6782190  37.6994448
  32.0220931  33.8435454  35.5424466  32.2337827  34.4867214  34.8658847
  31.9750680  33.0097771  35.0746396  29.6247160  26.4553275  32.4461038
  28.7631639  26.7534529  32.7377776  29.6509595  26.6723674  31.5142071
  26.4408730  34.9995466  28.8534844  26.9047075  35.2783169  28.0639467
  26.1765528  34.0978910  28.6707935  23.3332811  34.5466947  31.7914607
  23.9034168  34.9754216  31.1532092  23.9240923  34.2649532  32.4898793
  23.8257977  29.7130375  40.0375619  23.1956638  30.3946656  40.2711015
  23.7194065  29.6013456  39.0928757  19.1202950  29.3802171  30.9641543
  18.3302004  29.6359699  30.4881653  19.6114197  30.1950509  31.0693583
  33.1366759  36.7207410  33.7146824  33.9584203  36.3187597  33.4329505
  33.1329162  36.6175644  34.6662939  26.9023363  36.2691453  35.8707534
  26.9667795  36.7311860  36.7065706  26.1934287  35.6388818  35.9989844
  17.4040653  29.6332661  33.3956534  17.6548691  30.5179671  33.6614110
  17.9400201  29.4537263  32.6231625  41.2272752  33.0646158  30.0631795
  40.4736461  32.4953556  29.9075799  41.3620294  33.0308823  31.0102430
  26.6171381  37.9359561  25.7386514  26.4817055  38.7811096  26.1671362
  27.1581193  38.1378838  24.9752448  23.1038720  24.0151141  42.4000870
  22.7105666  23.4617339  43.0748514  23.9204860  24.3261719  42.7907387
  20.0700778  35.4534999  26.3114440  20.5825298  36.2478249  26.4620004
  20.7223491  34.7561289  26.2448041  21.8795663  38.5700755  28.3937193
  22.0562291  39.4918720  28.2058177  22.6752496  38.2559174  28.8231572
  26.0206681  25.4309020  39.9921126  26.7616395  26.0316173  39.9125589
  26.2524604  24.6886657  39.4339169  21.1648019  30.6165387  38.2699356
  21.0501534  29.7150644  38.5706455  20.3092537  30.8629084  37.9184172
  28.2439857  38.5583127  39.8686857  27.8003711  37.7719506  39.5507761
  28.9057070  38.7462278  39.2030747  23.0026978  40.0878929  34.3947535
  23.5534403  39.9595992  33.6224529  22.1638454  40.3873818  34.0442428
  30.3421095  38.8385927  37.8968258  30.3239570  39.6594808  37.4048527
  31.2641015  38.7140002  38.1218399  26.7994149  36.3530057  38.7391766
  27.3322486  35.5918345  38.5091074  26.2708230  36.0603708  39.4815921
  29.9663844  21.4590123  34.2685408  29.6228113  22.3491764  34.1924518
  30.3342807  21.2691780  33.4054993  29.0460384  23.8294778  32.2334641
  28.5425180  23.7924913  31.4202446  29.3390991  24.7387520  32.2931298
  25.2903270  23.9133507  31.2400823  26.1556267  23.7176316  30.8806712
  25.3580779  23.6843859  32.1670180  34.9048401  34.2031088  24.7111016
  34.1277844  33.8642248  24.2666179  35.5839882  34.2083711  24.0365982
  28.1646862  35.4816049  26.2510578  27.6368223  34.7468809  25.9383816
  27.6634365  36.2590725  26.0050546  33.1439708  33.6765070  31.3677624
  32.4863382  34.3664331  31.4557753  33.9480107  34.0661501  31.7111611
  31.9545167  32.0309442  29.4181566  32.4677048  32.6639434  29.9203276
  32.6046391  31.4310638  29.0524926  29.2167541  42.0093767  22.1742237
  28.5429240  42.3125463  22.7827195  29.6033363  42.8122847  21.8247694
  28.4325998  29.5058898  31.6639907  27.5148559  29.7273845  31.5061595
  28.8486141  29.5805208  30.8051614  29.2161045  30.9050313  26.7942587
  29.9632864  31.4171711  26.4849709  29.4852635  30.5834366  27.6546981
  32.7206963  37.0115444  27.5460709  32.2669290  36.1706354  27.6025899
  32.0900930  37.6476842  27.8835489  31.6639882  27.9407430  28.7761376
  30.9262639  27.4284816  29.1071619  31.9166656  27.5007811  27.9644653
  31.1639902  38.8491940  28.4810527  31.4562876  39.4096997  27.7622893
  31.6738523  39.1420501  29.2363686  26.0372589  31.0137475  29.8779337
  26.0921199  30.0611311  29.8021813  25.2263792  31.1696914  30.3620635
  23.9764949  29.6314535  27.6369716  23.1632815  29.9308705  28.0434908
  24.4723944  29.2370223  28.3544198  26.1273527  39.6272291  29.5703980
  26.0849706  39.8533138  28.6412512  27.0436226  39.3935666  29.7189781
  29.5739161  30.0956359  36.4684609  29.9288549  30.3227832  37.3279075
  30.2211292  30.4274736  35.8461865  35.3036898  33.2174795  27.1733938
  35.1654797  33.4076391  26.2455128  34.9473117  33.9794178  27.6301990
  23.4679024  27.2032890  33.2530950  24.1078403  27.0621649  32.5553914
  22.6356555  26.9167403  32.8769552  35.3306278  35.2851322  32.1845210
  35.7642784  35.1926611  33.0328264  36.0437858  35.2608822  31.5465226
  24.2439328  36.5035320  29.3665943  25.0379927  36.0085641  29.1648518
  23.5331020  35.9753184  29.0033648  29.0634173  38.8853416  33.7178311
  29.1171195  39.4544352  34.4856026  28.1948954  39.0555301  33.3532348
  21.9432566  28.5870972  35.2002762  22.6155619  28.3788334  34.5515411
  21.1162352  28.3893058  34.7607994  36.1921827  35.3275023  34.7178095
  36.3857717  36.2320833  34.9637370  36.0922445  34.8682442  35.5516680
  27.8458138  25.2132913  37.2168423  27.1986053  25.9122863  37.1232899
  28.6159153  25.6469057  37.5844671  31.2536936  35.4781765  40.2918976
  31.1022442  35.2492317  39.3749060  31.2441615  36.4352367  40.3050321
  28.0222272  33.0513678  35.2765242  28.9514332  33.2024838  35.1034210
  27.6013302  33.1397699  34.4213889  26.8210604  37.0764342  33.0463780
  26.6821690  36.7083127  33.9189718  26.0325200  37.5911982  32.8747738
  27.4158756  42.1773439  24.3889317  27.5910512  41.7061482  25.2034939
  26.7291544  42.8039205  24.6170577  28.3715819  36.4545945  30.4352618
  28.0365652  36.4146715  31.3310268  27.8719765  35.7890661  29.9623028
  22.3460063  31.8613575  35.9605199  22.2079861  31.1293814  36.5616738
  23.2564987  31.7722475  35.6789387  24.9742364  31.5733535  35.4488879
  25.6841982  30.9326727  35.4075497  24.9311672  31.8246429  36.3715059
  32.9629143  38.5100888  38.3695458  32.9041689  37.8260108  37.7026041
  33.3648661  39.2519878  37.9176084  23.6871298  28.5598752  37.2684518
  23.1508655  28.1089491  37.9206114  23.0988006  28.6944661  36.5254982
  21.9819841  45.3262802  31.1629177  22.2216440  45.9581326  31.8408195
  21.1389038  44.9750842  31.4494536  32.9646550  36.4740472  36.6009437
  32.0773329  36.1366394  36.7235836  33.5345101  35.7423503  36.8378203
  14.6175697  32.8064564  29.9252489  15.3046737  32.4926294  29.3373504
  14.4623826  33.7105928  29.6519740  19.4210419  27.6954760  34.3537513
  19.3368608  27.0880430  33.6187923  18.5993125  28.1863778  34.3547009
  26.4947703  41.1341924  33.5670681  26.4217875  41.9396896  34.0789985
  26.0525096  41.3333890  32.7418702  26.2837483  40.3713694  27.0773502
  25.5005005  40.9135374  27.1711727  26.9830228  40.8887674  27.4767743
  29.5934133  26.1808324  29.7207708  30.0902832  25.4278286  29.4008778
  28.8221114  26.2172640  29.1550917  37.4463890  31.8848689  31.3625999
  37.4353767  32.7673405  30.9919932  36.5781270  31.5320240  31.1680536
  28.9546387  41.0328758  35.7228839  29.6674359  41.6676223  35.6504741
  28.4636415  41.1292624  34.9068841  30.6763914  34.9380011  27.2946131
  29.7420192  35.0581473  27.1250835  30.8540582  34.0352478  27.0306141
  26.1769102  28.3225707  29.4479392  25.8066889  27.7696747  30.1360298
  26.6728194  27.7183840  28.8954392  34.0636465  30.7797330  27.8296165
  34.5296917  31.6125322  27.7556468  34.5143965  30.3142312  28.5341424
  24.0058300  38.7823202  36.5434410  24.7067760  39.4159685  36.6963804
  23.5353415  39.1237933  35.7830049  32.1312696  37.1241151  24.8282317
  32.4072540  37.0097746  25.7376191  31.2617195  36.7258636  24.7894490
  32.0353128  23.1477917  31.8687066  31.1216208  23.3782144  32.0369273
  32.4646229  23.2316361  32.7201099  31.8059586  31.3367809  34.3686961
  31.1531036  31.5843717  33.7139413  32.1839966  30.5231947  34.0349438
  28.7666760  41.3727502  28.4715131  28.9489155  40.5549158  28.9342883
  29.5899746  41.5895195  28.0340021  29.1008926  40.2995687  25.7330179
  29.6296692  39.7888142  25.1200341  29.3637145  39.9838218  26.5975712
  27.8547159  32.0787620  40.8552998  27.1787796  31.9781749  41.5255373
  28.6774793  31.9226834  41.3188995  19.6026018  38.3159557  33.4765513
  20.1879455  37.5703245  33.6093417  19.4050857  38.6263513  34.3602177
  22.4564674  41.3510804  28.4927955  21.7875049  41.8356932  28.0091995
  22.3177543  41.5980025  29.4071334  14.1943673  30.8865157  32.1969956
  14.2327773  30.3528748  32.9907074  13.6883966  30.3600362  31.5780933
  26.5969942  43.3854548  35.0910614  27.1488250  43.5486169  35.8559699
  26.9376136  43.9758985  34.4190638  21.5734435  25.7329697  35.6932498
  21.6375762  26.5944528  35.2809896  21.5101556  25.1203699  34.9604857
  21.0486708  27.8052830  39.3405533  21.6758747  27.4229907  39.9543057
  20.1914627  27.5867032  39.7061225  31.4480816  38.2115805  40.9459268
  31.9920720  38.8245763  40.4514223  30.8667661  38.7695384  41.4626281
  29.7338329  41.3336523  32.0774296  29.6089469  40.5326263  31.5685241
  30.3917421  41.8282716  31.5888266  21.3546498  27.6885256  31.2551436
  20.6333083  28.3021223  31.1158909  22.1439753  28.2243020  31.1768082
  31.7973238  39.1345543  33.7053846  30.8503573  39.0150894  33.6332173
  32.1456011  38.2468041  33.7880107  24.1572811  25.0239682  37.5292088
  24.6807213  25.2701979  38.2918397  23.9385144  25.8559717  37.1095225
  28.8019671  38.9298259  29.9058198  28.6544634  38.0014967  30.0865768
  29.6273165  38.9518350  29.4215273  32.4053793  39.7526818  30.9923071
  33.3300340  39.5469679  30.8547522  32.2369096  39.5043219  31.9012412
  25.3625356  25.9653377  35.2141758  25.0222177  25.1661190  35.6162438
  24.6564362  26.2655088  34.6418591  26.0141828  23.0502690  33.6669081
  26.8367897  22.5763168  33.5447972  26.2579892  23.8293173  34.1667768
  23.5380407  29.7421810  31.4761060  23.3924987  30.0562113  32.3685341
  23.0605610  30.3606711  30.9231959  25.3976790  26.7324358  31.5241949
  25.3838358  25.8365452  31.1874247  26.1149218  26.7395022  32.1580236
  27.2502920  27.1661698  33.5695077  26.9920698  28.0878769  33.5679407
  26.7187961  26.7692133  34.2595541  32.1949109  40.2712486  26.3485162
  32.3685987  39.7058908  25.5959015  32.6878000  41.0713380  26.1664652
  18.0126069  32.2827155  34.4148721  17.4679537  33.0586963  34.5468995
  18.8905419  32.6297959  34.2567843  38.0488500  33.0348909  27.9675462
  38.4919646  32.2856234  27.5694585  37.1715011  33.0259045  27.5849194
  33.1824282  39.5879250  23.4482061  33.8775186  40.2085943  23.6669375
  33.5247432  38.7374601  23.7234438  18.7992091  31.4097051  37.3078878
  18.0573827  31.5579686  37.8943508  18.4784835  31.6705317  36.4445627
  35.0815705  37.0378956  24.9769391  35.6067029  37.3766228  24.2518711
  34.9938057  36.1025971  24.7932526  26.7435753  40.9513029  37.1059268
  27.0522880  40.7062176  37.9781968  27.5411235  41.1559668  36.6178138
  26.7656365  43.1050939  29.3364645  26.3261356  42.6127318  30.0297501
  27.5164482  42.5623906  29.0956720  19.2448704  39.2962480  29.3389273
  20.0706724  38.9966252  28.9587916  18.8942756  38.5270102  29.7879061
  24.2130238  38.6488948  31.4086946  23.5910247  37.9859653  31.1089174
  24.8835105  38.6750080  30.7260594  17.4457310  37.2148806  30.2978206
  16.6089218  36.7870980  30.1162207  17.4180955  37.4081249  31.2348997
  24.2854765  27.1270736  41.0019452  24.3342921  28.0032859  40.6197222
  24.8277279  26.5848129  40.4291095  34.7709611  37.6711859  40.2820589
  33.9805155  37.6535998  39.7425089  34.5342965  38.2100153  41.0369626
  34.8907486  34.5204326  37.5953318  34.9405491  34.3554333  38.5368841
  34.7821409  33.6531585  37.2051199  23.7743745  37.1992871  24.8845407
  23.9231865  37.8828336  24.2312079  24.5810188  37.1797961  25.3994862
  32.1811248  30.5035254  38.9112625  33.0821111  30.3641718  38.6196622
  32.2559223  30.6689708  39.8510802  26.5154054  27.8802108  37.7565811
  25.6457363  28.1735674  37.4848399  26.7513534  28.4642553  38.4773074
  36.3925683  36.9401267  37.8395339  36.1010491  37.3031248  38.6758800
  35.7797814  36.2268275  37.6608671  37.5921365  34.5054147  30.3597910
  38.4268256  34.9443951  30.5235470  37.7280494  34.0292800  29.5406155
  34.6412871  32.0633882  36.3075397  35.1166993  32.2561528  35.4994249
  33.7178436  32.1193068  36.0618781  29.2193087  24.0981725  35.2731231
  29.7375031  24.8342752  34.9477720  28.8648220  24.4045719  36.1077990
  29.4705682  20.5182008  30.7932128  29.7507435  19.8505197  31.4192554
  30.2556289  20.7111103  30.2806792  27.2739150  39.6941002  22.3557154
  26.7013117  40.3131189  21.9027626  27.8471944  40.2440363  22.8897076
  33.3414540  28.9399642  34.5403703  34.2931963  29.0397739  34.5615927
  33.1717990  28.1477910  35.0501787  31.3628919  26.0255225  34.7263104
  30.7678852  26.3060238  34.0309592  31.0778616  26.5149126  35.4979845
  30.4936410  39.9778152  23.4865736  31.4267083  39.9123713  23.6898612
  30.4059623  40.8134419  23.0280269  33.1224427  39.2944022  20.4469684
  33.0438058  38.9603886  21.3405442  33.9434093  39.7865790  20.4461156
  35.8202618  32.1605761  33.6546003  35.7878938  31.2221762  33.8405686
  36.4303241  32.2389798  32.9211827  35.9697106  28.9516805  33.7004286
  35.4536155  28.1675262  33.5134215  36.8537055  28.6235522  33.8650805
  33.6307833  22.6957820  29.6600098  33.4332654  22.3872909  30.5443430
  34.2407539  23.4219459  29.7898028  41.6379168  33.2221768  32.7952039
  42.3682556  32.9607056  33.3559743  41.0286113  32.4850490  32.8354107
  39.7194465  31.3629631  33.3926491  38.9927628  31.2285596  32.7842982
  39.3041752  31.6706460  34.1983209  27.5424641  35.0819561  41.1573864
  28.4627651  35.2598160  41.3513910  27.5074224  34.1375606  41.0053563
  20.5386714  32.9920595  33.7996645  20.7572723  33.9237703  33.8184679
  20.9512487  32.6328570  34.5851449  25.4114579  28.5653801  43.1899394
  25.3111306  29.5148158  43.1211485  25.1936121  28.2372040  42.3175464
  16.6295066  33.8961066  32.0520260  15.9358538  33.4815019  31.5390214
  17.3768057  33.9381602  31.4553679  31.2163853  24.0872310  29.1196614
  31.7163632  24.1988845  28.3110933  31.8599461  23.7833363  29.7597423
  25.2745849  31.9950940  42.0064455  24.7912931  32.7951300  42.2128344
  25.3606788  32.0058885  41.0531899  18.5431809  33.8279320  29.9286275
  18.5202497  33.9267007  28.9768158  18.8532445  34.6744470  30.2503441
  21.2019187  35.8855475  34.0432889  22.1562440  35.8539417  33.9762821
  21.0031710  35.4246098  34.8583115  21.7918569  34.4556591  36.6103687
  22.6111458  34.9500669  36.6338524  22.0655376  33.5388559  36.5821254
  34.8999701  26.8713864  29.6885982  35.6760091  27.3610316  29.9610598
  34.1747835  27.2971918  30.1457851  37.3372260  27.5841483  30.7459922
  37.9316750  27.3437219  30.0353230  37.4098843  26.8648614  31.3733458
  19.5569415  41.4275094  31.0603087  19.4223883  40.6675495  30.4941085
  19.1401478  42.1515994  30.5931876  31.5226189  32.3621879  26.1881932
  31.4661390  32.8190430  25.3489565  32.0754531  31.6012563  26.0104775
  35.3330995  28.1511611  27.0132052  35.0767929  27.7508246  27.8440260
  34.7083863  28.8655405  26.8882191  39.6443332  30.8907684  29.5203343
  39.0842890  30.9600873  30.2934905  39.0386836  30.7148669  28.8002840
  22.7138541  42.3244411  31.2721530  22.5970925  43.2689844  31.1700220
  21.8930987  42.0217973  31.6607329  32.6015076  37.0494547  22.1178122
  33.4360680  36.6175745  21.9355597  32.4399419  36.8776560  23.0455017
  32.2560968  33.5526660  23.4834462  32.2009772  33.3870932  22.5422906
  31.6307023  34.2602693  23.6396651  17.0453483  28.7894724  37.3095884
  17.6912346  28.2793678  37.7983109  16.8370634  29.5263406  37.8839309
  29.5706875  35.8575572  42.8088024  30.4398035  36.0316224  42.4474659
  29.0913627  36.6769989  42.6863754  23.7393055  42.9772673  34.4877458
  24.6420302  43.0096283  34.8043953  23.5130425  42.0473124  34.5023794
  25.4946657  41.7303659  31.1487537  24.5442288  41.7305521  31.0351909
  25.7979143  40.9836394  30.6323571  21.3850974  25.9362342  41.4070898
  22.2482435  25.5799146  41.6174223  20.8116385  25.5976236  42.0946302
  41.2299351  47.5664198  32.2133299  41.8677761  47.4470945  31.5096639
  41.1120194  48.5145042  32.2721251  38.0389057  47.5191626  32.1494824
  37.7007569  47.4032691  31.2615359  38.9078825  47.1182791  32.1295830
  33.8975873  49.3727102  28.1391715  33.3340738  49.2817039  27.3708003
  33.7828268  48.5527007  28.6194207  38.5208840  48.6726478  38.1081029
  38.5097481  48.2779276  37.2361533  38.6829480  47.9392550  38.7014801
  31.4440305  50.8678294  30.9775935  32.2361597  50.5269119  30.5622235
  31.6836955  50.9773269  31.8978089  39.4775432  53.0398070  23.4506180
  38.8263411  53.6252151  23.0640193  40.2719794  53.5704265  23.5101217
  33.4031059  50.1287207  23.8493314  34.1761935  49.5816194  23.7106190
  33.7556458  50.9931457  24.0607775  35.2416101  51.4563590  37.0560213
  34.9505967  52.3609220  36.9406880  35.8773086  51.4980117  37.7704283
  36.1672308  48.8340438  33.6461573  36.7635880  48.6096460  32.9318536
  36.2247280  48.0925184  34.2487021  35.7397336  46.2879873  21.4811764
  35.9922857  45.7661395  20.7195227  34.8021896  46.1246019  21.5838448
  40.7840619  45.2915652  29.2886507  41.5703709  44.8735075  28.9376924
  41.0479324  46.1961744  29.4568156  40.9550697  50.7288502  23.9875164
  40.3196530  50.8023129  24.6996069  40.6248103  51.3182101  23.3094243
  46.1849046  45.2290885  30.1919486  46.9174218  44.6590102  30.4257315
  45.4288402  44.8412485  30.6325991  35.4593625  48.1907979  23.6836139
  35.3429883  47.5152883  24.3517223  35.5695885  47.7040353  22.8668292
  37.8025166  47.6518126  27.3882828  37.4383373  47.1248747  28.0995750
  38.6592282  47.2616595  27.2149314  43.7074467  38.9412459  34.6514094
  43.3757792  39.8107870  34.4275309  43.1120080  38.6248743  35.3308125
  37.4430653  42.6808026  22.3844177  37.6105055  43.5488263  22.7514648
  37.2527822  42.8435308  21.4605466  40.2005986  51.1425005  34.0510007
  39.9006709  52.0450044  33.9425814  39.8557046  50.8757188  34.9031160
  33.6518468  47.5938802  30.0846711  32.7268964  47.4615016  30.2924403
  33.9002881  48.3733021  30.5816654  43.6003130  43.6607545  31.7307444
  42.6920007  43.5922954  31.4366205  43.5490726  44.1379490  32.5589270
  37.4219874  45.1365684  23.3690843  37.3019499  45.5822734  24.2076324
  36.7272462  45.4851001  22.8104382  31.0127279  47.2372075  30.9190501
  31.1419660  47.4906554  31.8329912  30.3324730  47.8299783  30.5995156
  35.1826766  57.9069325  27.0180975  35.1050796  58.8577150  27.0969455
  34.5788410  57.5615198  27.6755901  37.6743996  45.0797191  39.6742342
  36.8977330  45.6391111  39.6645206  38.3134559  45.5653974  40.1957212
  45.4664776  41.8623984  33.5085318  44.8239157  42.1556517  32.8625113
  44.9619705  41.7476904  34.3138515  43.1204940  45.6087157  24.1971178
  44.0322796  45.8414544  24.0218875  42.6114587  46.1924201  23.6346256
  35.9290368  47.8882644  39.2360309  36.6705053  48.4267688  38.9595132
  35.2227354  48.5148933  39.3931860  41.4045708  50.0311785  37.8332470
  41.8129064  49.5894195  37.0887102  40.6822969  49.4564412  38.0866663
  37.7576778  44.9684391  35.2066027  38.6037973  45.3923805  35.3500676
  37.6975416  44.3118016  35.9004590  41.7274522  50.5912975  31.5884759
  41.0983385  50.7558689  30.8860827  41.3400185  51.0054585  32.3595723
  45.6063754  51.5267413  28.9429123  44.9214793  51.9066314  28.3926156
  45.6907604  52.1362740  29.6761070  40.9076223  42.6288760  36.8647201
  40.6637155  43.3830820  36.3281476  41.1836154  43.0074107  37.6994448
  42.8614686  49.1727372  35.5424466  43.0731581  49.8159132  34.8658847
  42.8144434  48.3389689  35.0746396  40.4640915  41.7845193  32.4461038
  39.6025394  42.0826446  32.7377776  40.4903350  42.0015592  31.5142071
  37.2802484  50.3287383  28.8534844  37.7440830  50.6075086  28.0639467
  37.0159282  49.4270828  28.6707935  34.1726565  49.8758865  31.7914607
  34.7427922  50.3046133  31.1532092  34.7634677  49.5941450  32.4898793
  36.2171370  46.4510536  25.6624409  36.9195414  46.9031579  26.1298336
  35.8851999  45.8094355  26.2904302  34.6651732  45.0422292  40.0375619
  34.0350393  45.7238573  40.2711015  34.5587820  44.9305374  39.0928757
  29.9596704  44.7094088  30.9641543  29.1695758  44.9651617  30.4881653
  30.4507952  45.5242426  31.0693583  43.9760514  52.0499328  33.7146824
  44.7977958  51.6479515  33.4329505  43.9722917  51.9467562  34.6662939
  31.9111450  45.0738668  27.9225019  31.1142613  45.1857362  28.4408515
  31.6837042  45.4125320  27.0565910  37.7417117  51.5983371  35.8707534
  37.8061550  52.0603778  36.7065706  37.0328041  50.9680736  35.9989844
  28.2434407  44.9624579  33.3956534  28.4942446  45.8471589  33.6614110
  28.7793956  44.7829180  32.6231625  52.0666507  48.3938076  30.0631795
  51.3130215  47.8245474  29.9075799  52.2014048  48.3600741  31.0102430
  37.4565135  53.2651478  25.7386514  37.3210810  54.1103014  26.1671362
  37.9974948  53.4670756  24.9752448  33.9432475  39.3443058  42.4000870
  33.5499420  38.7909257  43.0748514  34.7598615  39.6553637  42.7907387
  30.9094532  50.7826916  26.3114440  31.4219053  51.5770167  26.4620004
  31.5617245  50.0853207  26.2448041  32.7189417  53.8992673  28.3937193
  32.8956045  54.8210637  28.2058177  33.5146251  53.5851092  28.8231572
  36.8600436  40.7600937  39.9921126  37.6010149  41.3608090  39.9125589
  37.0918358  40.0178575  39.4339169  32.0041774  45.9457305  38.2699356
  31.8895289  45.0442562  38.5706455  31.1486291  46.1921001  37.9184172
  39.0833611  53.8875045  39.8686857  38.6397466  53.1011423  39.5507761
  39.7450825  54.0754195  39.2030747  33.8420733  55.4170846  34.3947535
  34.3928158  55.2887910  33.6224529  33.0032208  55.7165735  34.0442428
  41.1814849  54.1677845  37.8968258  41.1633325  54.9886726  37.4048527
  42.1034770  54.0431920  38.1218399  37.6387904  51.6821974  38.7391766
  38.1716240  50.9210262  38.5091074  37.1101985  51.3895626  39.4815921
  40.8057599  36.7882040  34.2685408  40.4621868  37.6783682  34.1924518
  41.1736561  36.5983698  33.4054993  28.8743449  49.1115571  27.0874010
  29.7118671  49.5212579  26.8707718  29.0521717  48.1715013  27.0574204
  40.7707881  46.7790651  22.7757843  40.2554505  47.5495256  23.0146230
  40.4985190  46.1055787  23.3990904  38.3554992  41.6240352  27.8343081
  37.4996589  41.2347202  27.6548720  38.7681944  41.7032313  26.9742867
  39.8854139  39.1586695  32.2334641  39.3818935  39.1216831  31.4202446
  40.1784746  40.0679438  32.2931298  36.1297025  39.2425425  31.2400823
  36.9950022  39.0468234  30.8806712  36.1974534  39.0135777  32.1670180
  45.7442155  49.5323006  24.7111016  44.9671598  49.1934165  24.2666179
  46.4233636  49.5375629  24.0365982  40.5594184  44.6517743  24.6017624
  40.2544320  44.9663893  25.4527767  41.5124627  44.7299163  24.6444957
  39.0040616  50.8107967  26.2510578  38.4761978  50.0760726  25.9383816
  38.5028119  51.5882643  26.0050546  43.9833462  49.0056987  31.3677624
  43.3257137  49.6956249  31.4557753  44.7873862  49.3953419  31.7111611
  33.7359344  41.4727633  28.6117190  34.3103096  41.2502815  27.8790383
  34.3230326  41.5416328  29.3645791  42.7938921  47.3601360  29.4181566
  43.3070803  47.9931352  29.9203276  43.4440145  46.7602555  29.0524926
  34.0628931  43.5032094  22.6313075  33.2266243  43.8406781  22.9522350
  33.9233701  43.3681074  21.6940212  36.0382012  38.3468882  27.3392259
  35.3846424  38.0317899  26.7148874  35.9962486  37.7244622  28.0652082
  37.1493216  48.6288177  19.2545551  36.2420278  48.3977430  19.4536700
  37.6464248  47.8325796  19.4419533  40.0561295  57.3385684  22.1742237
  39.3822994  57.6417381  22.7827195  40.4427117  58.1414765  21.8247694
  39.2719752  44.8350815  31.6639907  38.3542313  45.0565762  31.5061595
  39.6879896  44.9097126  30.8051614  40.0554800  46.2342231  26.7942587
  40.8026619  46.7463628  26.4849709  40.3246389  45.9126284  27.6546981
  38.3281450  48.7300772  23.7769541  37.4192669  48.4459805  23.8742011
  38.3576534  49.1499850  22.9172848  43.5600717  52.3407361  27.5460709
  43.1063044  51.4998271  27.6025899  42.9294684  52.9768760  27.8835489
  42.5033637  43.2699347  28.7761376  41.7656394  42.7576734  29.1071619
  42.7560410  42.8299729  27.9644653  42.0033657  54.1783858  28.4810527
  42.2956631  54.7388915  27.7622893  42.5132277  54.4712419  29.2363686
  42.6045264  36.0475599  29.3703146  42.9104141  35.1872963  29.0829061
  43.3297869  36.6393220  29.1702139  28.8969620  46.4506286  27.7584743
  28.6994020  45.8575647  27.0335810  28.3416284  46.1458496  28.4760682
  36.8766344  46.3429392  29.8779337  36.9314954  45.3903229  29.8021813
  36.0657546  46.4988832  30.3620635  38.0257538  50.2709516  21.1157620
  37.5876968  49.5545374  20.6563257  38.7667979  50.4985630  20.5542711
  34.8158704  44.9606452  27.6369716  34.0026569  45.2600623  28.0434908
  35.3117698  44.5662141  28.3544198  36.9667282  54.9564209  29.5703980
  36.9243461  55.1825055  28.6412512  37.8829981  54.7227584  29.7189781
  40.4132916  45.4248277  36.4684609  40.7682303  45.6519750  37.3279075
  41.0605047  45.7566653  35.8461865  46.1430653  48.5466713  27.1733938
  46.0048551  48.7368309  26.2455128  45.7866871  49.3086095  27.6301990
  34.3072779  42.5324808  33.2530950  34.9472158  42.3913567  32.5553914
  33.4750309  42.2459321  32.8769552  46.1700032  50.6143240  32.1845210
  46.6036539  50.5218529  33.0328264  46.8831613  50.5900740  31.5465226
  35.0833083  51.8327238  29.3665943  35.8773681  51.3377558  29.1648518
  34.3724775  51.3045101  29.0033648  39.9027927  54.2145334  33.7178311
  39.9564949  54.7836270  34.4856026  39.0342708  54.3847219  33.3532348
  31.3915846  45.9770320  25.4425696  30.4613434  45.9154775  25.6595658
  31.4873318  45.4546273  24.6462337  31.3101395  42.5025133  28.0303937
  31.5708212  43.4170466  27.9213098  32.1318567  42.0349575  28.1800550
  32.7826320  43.9162890  35.2002762  33.4549374  43.7080252  34.5515411
  31.9556107  43.7184976  34.7607994  47.0315582  50.6566940  34.7178095
  47.2251472  51.5612751  34.9637370  46.9316200  50.1974359  35.5516680
  38.6851892  40.5424831  37.2168423  38.0379807  41.2414780  37.1232899
  39.4552908  40.9760975  37.5844671  42.0930690  50.8073683  40.2918976
  41.9416197  50.5784235  39.3749060  42.0835370  51.7644284  40.3050321
  38.8616027  48.3805596  35.2765242  39.7908087  48.5316755  35.1034210
  38.4407057  48.4689617  34.4213889  37.6604359  52.4056260  33.0463780
  37.5215444  52.0375045  33.9189718  36.8718955  52.9203900  32.8747738
  38.2552511  57.5065357  24.3889317  38.4304266  57.0353400  25.2034939
  37.5685299  58.1331123  24.6170577  39.2109574  51.7837863  30.4352618
  38.8759406  51.7438633  31.3310268  38.7113519  51.1182579  29.9623028
  33.1853818  47.1905493  35.9605199  33.0473616  46.4585732  36.5616738
  34.0958741  47.1014393  35.6789387  42.1468765  49.1293897  20.7089677
  41.5297936  48.4040725  20.6122730  41.6785254  49.8903257  20.3656752
  35.8136118  46.9025452  35.4488879  36.5235737  46.2618644  35.4075497
  35.7705426  47.1538347  36.3715059  43.8022897  53.8392806  38.3695458
  43.7435443  53.1552026  37.7026041  44.2042415  54.5811796  37.9176084
  34.5265052  43.8890670  37.2684518  33.9902409  43.4381409  37.9206114
  33.9381761  44.0236579  36.5254982  32.8213596  60.6554719  31.1629177
  33.0610194  61.2873244  31.8408195  31.9782792  60.3042759  31.4494536
  33.9367311  43.3479321  19.8310982  33.0596778  43.2268122  19.4673228
  34.4125064  42.5565400  19.5789870  43.8040304  51.8032389  36.6009437
  42.9167083  51.4658311  36.7235836  44.3738855  51.0715421  36.8378203
  25.4569451  48.1356481  29.9252489  26.1440491  47.8218211  29.3373504
  25.3017580  49.0397846  29.6519740  30.2604174  43.0246678  34.3537513
  30.1762362  42.4172347  33.6187923  29.4386880  43.5155696  34.3547009
  37.3341458  56.4633842  33.5670681  37.2611629  57.2688813  34.0789985
  36.8918851  56.6625808  32.7418702  37.1231237  55.7005612  27.0773502
  36.3398759  56.2427292  27.1711727  37.8223982  56.2179591  27.4767743
  40.4327887  41.5100241  29.7207708  40.9296587  40.7570204  29.4008778
  39.6614869  41.5464558  29.1550917  48.2857645  47.2140607  31.3625999
  48.2747521  48.0965322  30.9919932  47.4175024  46.8612158  31.1680536
  39.7940141  56.3620676  35.7228839  40.5068113  56.9968141  35.6504741
  39.3030170  56.4584542  34.9068841  41.5157668  50.2671929  27.2946131
  40.5813947  50.3873391  27.1250835  41.6934337  49.3644395  27.0306141
  37.0162856  43.6517624  29.4479392  36.6460644  43.0988665  30.1360298
  37.5121949  43.0475758  28.8954392  44.9030219  46.1089248  27.8296165
  45.3690672  46.9417239  27.7556468  45.3537720  45.6434229  28.5341424
  34.8452055  54.1115119  36.5434410  35.5461514  54.7451602  36.6963804
  34.3747170  54.4529851  35.7830049  42.9706451  52.4533069  24.8282317
  43.2466294  52.3389664  25.7376191  42.1010949  52.0550554  24.7894490
  42.8746882  38.4769835  31.8687066  41.9609962  38.7074062  32.0369273
  43.3039984  38.5608279  32.7201099  42.6453341  46.6659727  34.3686961
  41.9924791  46.9135634  33.7139413  43.0233721  45.8523865  34.0349438
  39.6060515  56.7019420  28.4715131  39.7882909  55.8841076  28.9342883
  40.4293501  56.9187112  28.0340021  39.9402680  55.6287605  25.7330179
  40.4690447  55.1180060  25.1200341  40.2030900  55.3130135  26.5975712
  38.6940914  47.4079538  40.8552998  38.0181551  47.3073667  41.5255373
  39.5168548  47.2518752  41.3188995  30.4419773  53.6451474  33.4765513
  31.0273210  52.8995162  33.6093417  30.2444611  53.9555431  34.3602177
  33.2958428  56.6802722  28.4927955  32.6268803  57.1648849  28.0091995
  33.1571298  56.9271942  29.4071334  25.0337428  46.2157075  32.1969956
  25.0721527  45.6820665  32.9907074  24.5277720  45.6892280  31.5780933
  37.4363697  58.7146465  35.0910614  37.9882005  58.8778087  35.8559699
  37.7769890  59.3050903  34.4190638  32.4128190  41.0621615  35.6932498
  32.4769516  41.9236446  35.2809896  32.3495310  40.4495617  34.9604857
  31.8880462  43.1344748  39.3405533  32.5152501  42.7521825  39.9543057
  31.0308381  42.9158950  39.7061225  42.2874571  53.5407723  40.9459268
  42.8314475  54.1537681  40.4514223  41.7061416  54.0987301  41.4626281
  28.6646005  44.9421177  25.2723887  28.9599446  44.0331855  25.2190941
  27.7634041  44.9208916  24.9504890  40.5732084  56.6628441  32.0774296
  40.4483223  55.8618181  31.5685241  41.2311175  57.1574634  31.5888266
  32.1940252  43.0177173  31.2551436  31.4726838  43.6313141  31.1158909
  32.9833508  43.5534938  31.1768082  42.6366992  54.4637461  33.7053846
  41.6897328  54.3442812  33.6332173  42.9849765  53.5759959  33.7880107
  34.9966566  40.3531600  37.5292088  35.5200967  40.5993896  38.2918397
  34.7778899  41.1851635  37.1095225  30.3933847  42.6235274  25.3963213
  30.0646553  41.7432653  25.2138318  30.7473217  42.5682943  26.2839602
  39.6413426  54.2590177  29.9058198  39.4938388  53.3306885  30.0865768
  40.4666919  54.2810268  29.4215273  33.5075670  42.9108244  25.7638690
  33.8471742  43.4394165  25.0417299  33.9547790  43.2488650  26.5397257
  43.2447547  55.0818736  30.9923071  44.1694095  54.8761597  30.8547522
  43.0762851  54.8335137  31.9012412  36.2019111  41.2945295  35.2141758
  35.8615931  40.4953108  35.6162438  35.4958117  41.5947006  34.6418591
  36.8535582  38.3794607  33.6669081  37.6761652  37.9055086  33.5447972
  37.0973646  39.1585091  34.1667768  35.4943817  41.4082866  23.9631983
  36.2152179  41.7864119  23.4595700  34.8709121  42.1271743  24.0666961
  39.6374940  42.1128015  24.8990315  39.8538554  42.9952653  24.5979143
  39.1569007  41.7214228  24.1695957  34.3774161  45.0713728  31.4761060
  34.2318742  45.3854031  32.3685341  33.8999365  45.6898628  30.9231959
  36.2370544  42.0616276  31.5241949  36.2232113  41.1657369  31.1874247
  36.9542972  42.0686940  32.1580236  38.0896675  42.4953616  33.5695077
  37.8314453  43.4170687  33.5679407  37.5581715  42.0984051  34.2595541
  43.0342864  55.6004403  26.3485162  43.2079741  55.0350826  25.5959015
  43.5271755  56.4005298  26.1664652  28.8519823  47.6119072  34.4148721
  28.3073291  48.3878880  34.5468995  29.7299173  47.9589877  34.2567843
  35.6407440  40.9430656  26.7929520  35.7623351  40.0147302  26.9920407
  35.3509482  40.9569342  25.8807835  38.5098630  38.6285567  29.9296239
  38.5320327  38.6924900  28.9748219  38.9266689  37.7890075  30.1236746
  48.8882255  48.3640826  27.9675462  49.3313401  47.6148151  27.5694585
  48.0108765  48.3550963  27.5849194  44.0218036  54.9171168  23.4482061
  44.7168941  55.5377860  23.6669375  44.3641186  54.0666519  23.7234438
  29.6385845  46.7388969  37.3078878  28.8967581  46.8871604  37.8943508
  29.3178590  46.9997234  36.4445627  45.9209459  52.3670873  24.9769391
  46.4460783  52.7058146  24.2518711  45.8331812  51.4317889  24.7932526
  37.5829508  56.2804947  37.1059268  37.8916634  56.0354094  37.9781968
  38.3804990  56.4851585  36.6178138  37.6050120  58.4342856  29.3364645
  37.1655110  57.9419235  30.0297501  38.3558237  57.8915824  29.0956720
  30.0842459  54.6254397  29.3389273  30.9100479  54.3258169  28.9587916
  29.7336511  53.8562020  29.7879061  35.0523992  53.9780866  31.4086946
  34.4304001  53.3151571  31.1089174  35.7228859  54.0041997  30.7260594
  28.2851064  52.5440724  30.2978206  27.4482972  52.1162898  30.1162207
  28.2574709  52.7373167  31.2348997  35.1248520  42.4562654  41.0019452
  35.1736675  43.3324776  40.6197222  35.6671034  41.9140047  40.4291095
  45.6103365  53.0003777  40.2820589  44.8198909  52.9827916  39.7425089
  45.3736720  53.5392071  41.0369626  45.7301240  49.8496243  37.5953318
  45.7799245  49.6846251  38.5368841  45.6215164  48.9823502  37.2051199
  34.6137499  52.5284789  24.8845407  34.7625619  53.2120253  24.2312079
  35.4203942  52.5089879  25.3994862  43.0205003  45.8327171  38.9112625
  43.9214865  45.6933636  38.6196622  43.0952977  45.9981626  39.8510802
  37.3547808  43.2094026  37.7565811  36.4851117  43.5027592  37.4848399
  37.5907288  43.7934471  38.4773074  47.2319437  52.2693185  37.8395339
  46.9404245  52.6323165  38.6758800  46.6191568  51.5560193  37.6608671
  48.4315119  49.8346065  30.3597910  49.2662011  50.2735869  30.5235470
  48.5674248  49.3584718  29.5406155  45.4806625  47.3925799  36.3075397
  45.9560747  47.5853446  35.4994249  44.5572191  47.4484985  36.0618781
  32.3690132  48.5549967  25.8906476  32.1236174  47.6512297  26.0886686
  32.5386047  48.5567117  24.9485954  40.0586842  39.4273643  35.2731231
  40.5768786  40.1634670  34.9477720  39.7041975  39.7337636  36.1077990
  31.6385780  44.2878324  23.3892637  30.9455024  44.3622679  22.7332673
  31.3937531  43.5238668  23.9114154  40.3099436  35.8473925  30.7932128
  40.5901190  35.1797115  31.4192554  41.0950043  36.0403021  30.2806792
  38.1132905  55.0232919  22.3557154  37.5406872  55.6423107  21.9027626
  38.6865698  55.5732281  22.8897076  44.1808294  44.2691559  34.5403703
  45.1325717  44.3689657  34.5615927  44.0111745  43.4769828  35.0501787
  42.2022674  41.3547143  34.7263104  41.6072606  41.6352155  34.0309592
  41.9172371  41.8441044  35.4979845  41.3330164  55.3070070  23.4865736
  42.2660837  55.2415631  23.6898612  41.2453377  56.1426336  23.0280269
  43.9618181  54.6235940  20.4469684  43.8831813  54.2895803  21.3405442
  44.7827848  55.1157708  20.4461156  46.6596372  47.4897679  33.6546003
  46.6272692  46.5513680  33.8405686  47.2696996  47.5681716  32.9211827
  38.4979703  46.3593732  19.6973207  39.4438808  46.2299940  19.7661625
  38.1193948  45.6208394  20.1742635  46.8090861  44.2808723  33.7004286
  46.2929909  43.4967179  33.5134215  47.6930809  43.9527439  33.8650805
  44.4701588  38.0249738  29.6600098  44.2726409  37.7164826  30.5443430
  45.0801293  38.7511377  29.7898028  52.4772922  48.5513686  32.7952039
  53.2076311  48.2898974  33.3559743  51.8679868  47.8142408  32.8354107
  50.5588219  46.6921549  33.3926491  49.8321383  46.5577514  32.7842982
  50.1435506  46.9998377  34.1983209  38.3818396  50.4111478  41.1573864
  39.3021405  50.5890077  41.3513910  38.3467979  49.4667524  41.0053563
  36.6822620  44.2843709  19.6328092  35.7754076  43.9876821  19.7090805
  36.9598601  43.9873527  18.7662378  27.6000561  45.6050072  30.0827138
  27.2803345  44.7515380  29.7901512  27.0533989  45.8198650  30.8385106
  31.3780468  48.3212513  33.7996645  31.5966478  49.2529621  33.8184679
  31.7906242  47.9620487  34.5851449  38.2984686  38.8280598  25.7872333
  37.4885414  38.4827683  26.1627579  38.9869103  38.5188142  26.3759945
  40.2275234  37.9058645  27.4096630  40.7806273  38.3254098  28.0686653
  40.4645321  36.9794393  27.4519586  36.2508333  43.8945719  43.1899394
  36.1505060  44.8440076  43.1211485  36.0329876  43.5663958  42.3175464
  35.4521405  41.1430644  19.7740071  36.3140569  41.4685542  20.0335888
  35.6371749  40.3562140  19.2613137  27.4688821  49.2252983  32.0520260
  26.7752292  48.8106936  31.5390214  28.2161812  49.2673520  31.4553679
  43.6054041  40.0159170  26.9175294  43.0252710  40.6743974  26.5353346
  43.3389974  39.1936515  26.5062712  42.0557608  39.4164228  29.1196614
  42.5557386  39.5280762  28.3110933  42.6993216  39.1125281  29.7597423
  36.1139604  47.3242858  42.0064455  35.6306685  48.1243218  42.2128344
  36.2000543  47.3350802  41.0531899  29.3825563  49.1571237  29.9286275
  29.3596251  49.2558924  28.9768158  29.6926200  50.0036388  30.2503441
  32.0412941  51.2147392  34.0432889  32.9956195  51.1831335  33.9762821
  31.8425465  50.7538016  34.8583115  32.6312323  49.7848508  36.6103687
  33.4505212  50.2792587  36.6338524  32.9049131  48.8680476  36.5821254
  42.3878919  42.1759261  25.9731642  41.5004774  42.4608911  25.7551837
  42.8032908  42.0153024  25.1258919  45.7393455  42.2005782  29.6885982
  46.5153846  42.6902234  29.9610598  45.0141590  42.6263836  30.1457851
  48.1766014  42.9133401  30.7459922  48.7710505  42.6729137  30.0353230
  48.2492598  42.1940531  31.3733458  30.3963170  56.7567012  31.0603087
  30.2617638  55.9967413  30.4941085  29.9795232  57.4807912  30.5931876
  41.5322133  51.9403935  20.0679662  42.2357983  52.1453938  20.6837318
  40.8084782  52.5080697  20.3328746  42.3619943  47.6913797  26.1881932
  42.3055144  48.1482348  25.3489565  42.9148286  46.9304481  26.0104775
  46.1724749  43.4803528  27.0132052  45.9161683  43.0800164  27.8440260
  45.5477617  44.1947322  26.8882191  50.4837087  46.2199602  29.5203343
  49.9236645  46.2892791  30.2934905  49.8780590  46.0440586  28.8002840
  33.5532296  57.6536329  31.2721530  33.4364680  58.5981761  31.1700220
  32.7324742  57.3509890  31.6607329  43.4408830  52.3786464  22.1178122
  44.2754434  51.9467663  21.9355597  43.2793173  52.2068478  23.0455017
  43.0954722  48.8818578  23.4834462  43.0403526  48.7162849  22.5422906
  42.4700778  49.5894611  23.6396651  27.8847237  44.1186642  37.3095884
  28.5306101  43.6085596  37.7983109  27.6764388  44.8555324  37.8839309
  40.4100630  51.1867490  42.8088024  41.2791789  51.3608142  42.4474659
  39.9307381  52.0061906  42.6863754  36.4050848  38.3826687  23.0619780
  36.3929518  39.3268527  23.2188051  37.2974270  38.1996832  22.7679241
  34.5786810  58.3064591  34.4877458  35.4814056  58.3388201  34.8043953
  34.3524180  57.3765042  34.5023794  36.3340412  57.0595577  31.1487537
  35.3836043  57.0597439  31.0351909  36.6372898  56.3128312  30.6323571
  40.2202967  34.9769463  27.3165717  39.4535363  34.4227950  27.4622399
  40.6313672  35.0491332  28.1779868  32.2244728  41.2654259  41.4070898
  33.0876190  40.9091064  41.6174223  31.6510139  40.9268154  42.0946302
  52.0693105  62.8956116  32.2133299  52.7071515  62.7762863  31.5096639
  51.9513948  63.8436960  32.2721251  48.8782812  62.8483544  32.1494824
  48.5401323  62.7324608  31.2615359  49.7472580  62.4474709  32.1295830
  44.7369627  64.7019020  28.1391715  44.1734492  64.6108957  27.3708003
  44.6222022  63.8818925  28.6194207  49.3602595  64.0018395  38.1081029
  49.3491235  63.6071194  37.2361533  49.5223234  63.2684468  38.7014801
  42.2834059  66.1970212  30.9775935  43.0755351  65.8561036  30.5622235
  42.5230709  66.3065187  31.8978089  50.3169186  68.3689988  23.4506180
  49.6657166  68.9544068  23.0640193  51.1113549  68.8996183  23.5101217
  44.2424813  65.4579125  23.8493314  45.0155689  64.9108112  23.7106190
  44.5950212  66.3223374  24.0607775  46.0809856  66.7855507  37.0560213
  45.7899722  67.6901138  36.9406880  46.7166840  66.8272035  37.7704283
  47.0066063  64.1632356  33.6461573  47.6029635  63.9388378  32.9318536
  47.0641034  63.4217101  34.2487021  46.5791091  61.6171791  21.4811764
  46.8316612  61.0953312  20.7195227  45.6415650  61.4537936  21.5838448
  51.6234374  60.6207569  29.2886507  52.4097463  60.2026993  28.9376924
  51.8873078  61.5253662  29.4568156  51.7944451  66.0580420  23.9875164
  51.1590284  66.1315046  24.6996069  51.4641858  66.6474019  23.3094243
  46.2987380  63.5199897  23.6836139  46.1823638  62.8444800  24.3517223
  46.4089640  63.0332271  22.8668292  48.6418921  62.9810044  27.3882828
  48.2777128  62.4540665  28.0995750  49.4986037  62.5908513  27.2149314
  54.5468221  54.2704377  34.6514094  54.2151546  55.1399788  34.4275309
  53.9513835  53.9540661  35.3308125  48.2824408  58.0099944  22.3844177
  48.4498810  58.8780180  22.7514648  48.0921577  58.1727225  21.4605466
  51.0399741  66.4716923  34.0510007  50.7400464  67.3741962  33.9425814
  50.6950800  66.2049106  34.9031160  44.4912222  62.9230720  30.0846711
  43.5662719  62.7906934  30.2924403  44.7396635  63.7024939  30.5816654
  48.2613628  60.4657601  23.3690843  48.1413254  60.9114652  24.2076324
  47.5666217  60.8142919  22.8104382  41.8521033  62.5663993  30.9190501
  41.9813414  62.8198472  31.8329912  41.1718485  63.1591701  30.5995156
  46.0220521  73.2361243  27.0180975  45.9444550  74.1869068  27.0969455
  45.4182164  72.8907116  27.6755901  48.5137750  60.4089108  39.6742342
  47.7371084  60.9683029  39.6645206  49.1528313  60.8945891  40.1957212
  53.9598695  60.9379074  24.1971178  54.8716551  61.1706461  24.0218875
  53.4508342  61.5216119  23.6346256  46.7684123  63.2174562  39.2360309
  47.5098807  63.7559606  38.9595132  46.0621108  63.8440851  39.3931860
  52.2439462  65.3603702  37.8332470  52.6522818  64.9186113  37.0887102
  51.5216724  64.7856330  38.0866663  48.5970532  60.2976309  35.2066027
  49.4431728  60.7215723  35.3500676  48.5369170  59.6409933  35.9004590
  52.5668277  65.9204893  31.5884759  51.9377139  66.0850607  30.8860827
  52.1793939  66.3346502  32.3595723  56.4457509  66.8559331  28.9429123
  55.7608547  67.2358232  28.3926156  56.5301358  67.4654657  29.6761070
  51.7469978  57.9580677  36.8647201  51.5030910  58.7122738  36.3281476
  52.0229908  58.3366025  37.6994448  53.7008440  64.5019290  35.5424466
  53.9125336  65.1451050  34.8658847  53.6538189  63.6681606  35.0746396
  51.3034669  57.1137110  32.4461038  50.4419148  57.4118364  32.7377776
  51.3297104  57.3307509  31.5142071  48.1196239  65.6579301  28.8534844
  48.5834584  65.9367004  28.0639467  47.8553037  64.7562746  28.6707935
  45.0120320  65.2050783  31.7914607  45.5821677  65.6338051  31.1532092
  45.6028432  64.9233367  32.4898793  47.0565125  61.7802453  25.6624409
  47.7589168  62.2323497  26.1298336  46.7245753  61.1386272  26.2904302
  45.5045486  60.3714210  40.0375619  44.8744147  61.0530491  40.2711015
  45.3981574  60.2597292  39.0928757  40.7990459  60.0386006  30.9641543
  40.0089513  60.2943535  30.4881653  41.2901706  60.8534344  31.0693583
  54.8154268  67.3791245  33.7146824  55.6371712  66.9771432  33.4329505
  54.8116671  67.2759479  34.6662939  42.7505204  60.4030585  27.9225019
  41.9536368  60.5149280  28.4408515  42.5230796  60.7417238  27.0565910
  48.5810872  66.9275289  35.8707534  48.6455304  67.3895696  36.7065706
  47.8721796  66.2972653  35.9989844  39.0828162  60.2916496  33.3956534
  39.3336200  61.1763506  33.6614110  39.6187710  60.1121098  32.6231625
  48.2958889  68.5943396  25.7386514  48.1604564  69.4394932  26.1671362
  48.8368702  68.7962674  24.9752448  44.7826229  54.6734976  42.4000870
  44.3893175  54.1201174  43.0748514  45.5992369  54.9845554  42.7907387
  41.7488287  66.1118834  26.3114440  42.2612807  66.9062084  26.4620004
  42.4011000  65.4145124  26.2448041  43.5583172  69.2284590  28.3937193
  43.7349800  70.1502555  28.2058177  44.3540005  68.9143010  28.8231572
  47.6994190  56.0892855  39.9921126  48.4403904  56.6900008  39.9125589
  47.9312113  55.3470493  39.4339169  42.8435528  61.2749222  38.2699356
  42.7289043  60.3734479  38.5706455  41.9880046  61.5212919  37.9184172
  49.9227366  69.2166963  39.8686857  49.4791220  68.4303341  39.5507761
  50.5844579  69.4046113  39.2030747  44.6814487  70.7462764  34.3947535
  45.2321912  70.6179827  33.6224529  43.8425963  71.0457653  34.0442428
  52.0208604  69.4969762  37.8968258  52.0027079  70.3178643  37.4048527
  52.9428524  69.3723838  38.1218399  48.4781658  67.0113892  38.7391766
  49.0109995  66.2502180  38.5091074  47.9495739  66.7187544  39.4815921
  51.6451353  52.1173958  34.2685408  51.3015622  53.0075600  34.1924518
  52.0130316  51.9275616  33.4054993  39.7137204  64.4407488  27.0874010
  40.5512426  64.8504497  26.8707718  39.8915471  63.5006931  27.0574204
  51.6101636  62.1082569  22.7757843  51.0948259  62.8787174  23.0146230
  51.3378944  61.4347705  23.3990904  49.1948747  56.9532270  27.8343081
  48.3390343  56.5639120  27.6548720  49.6075699  57.0324231  26.9742867
  50.7247893  54.4878613  32.2334641  50.2212689  54.4508748  31.4202446
  51.0178500  55.3971356  32.2931298  46.9690779  54.5717343  31.2400823
  47.8343776  54.3760151  30.8806712  47.0368288  54.3427695  32.1670180
  56.5835910  64.8614924  24.7111016  55.8065353  64.5226083  24.2666179
  57.2627391  64.8667547  24.0365982  51.3987939  59.9809661  24.6017624
  51.0938075  60.2955810  25.4527767  52.3518381  60.0591081  24.6444957
  49.8434371  66.1399884  26.2510578  49.3155732  65.4052644  25.9383816
  49.3421874  66.9174561  26.0050546  54.8227217  64.3348905  31.3677624
  54.1650891  65.0248166  31.4557753  55.6267616  64.7245337  31.7111611
  44.5753098  56.8019551  28.6117190  45.1496850  56.5794732  27.8790383
  45.1624081  56.8708245  29.3645791  53.6332676  62.6893278  29.4181566
  54.1464557  63.3223269  29.9203276  54.2833900  62.0894473  29.0524926
  44.9022686  58.8324012  22.6313075  44.0659998  59.1698698  22.9522350
  44.7627455  58.6972992  21.6940212  46.8775766  53.6760800  27.3392259
  46.2240178  53.3609817  26.7148874  46.8356240  53.0536540  28.0652082
  47.9886971  63.9580095  19.2545551  47.0814033  63.7269348  19.4536700
  48.4858003  63.1617714  19.4419533  50.8955050  72.6677602  22.1742237
  50.2216749  72.9709299  22.7827195  51.2820872  73.4706682  21.8247694
  50.1113506  60.1642733  31.6639907  49.1936068  60.3857680  31.5061595
  50.5273650  60.2389044  30.8051614  50.8948554  61.5634149  26.7942587
  51.6420373  62.0755546  26.4849709  51.1640144  61.2418202  27.6546981
  49.1675204  64.0592690  23.7769541  48.2586424  63.7751722  23.8742011
  49.1970288  64.4791768  22.9172848  54.3994472  67.6699279  27.5460709
  53.9456799  66.8290189  27.6025899  53.7688439  68.3060677  27.8835489
  52.8427411  69.5075776  28.4810527  53.1350385  70.0680833  27.7622893
  53.3526032  69.8004337  29.2363686  53.4439019  51.3767517  29.3703146
  53.7497896  50.5164881  29.0829061  54.1691624  51.9685137  29.1702139
  39.7363375  61.7798204  27.7584743  39.5387775  61.1867564  27.0335810
  39.1810039  61.4750414  28.4760682  47.7160098  61.6721310  29.8779337
  47.7708708  60.7195147  29.8021813  46.9051300  61.8280749  30.3620635
  48.8651292  65.6001433  21.1157620  48.4270722  64.8837292  20.6563257
  49.6061733  65.8277548  20.5542711  45.6552458  60.2898370  27.6369716
  44.8420324  60.5892540  28.0434908  46.1511453  59.8954059  28.3544198
  47.8061036  70.2856127  29.5703980  47.7637215  70.5116973  28.6412512
  48.7223735  70.0519501  29.7189781  51.2526670  60.7540194  36.4684609
  51.6076058  60.9811667  37.3279075  51.8998801  61.0858571  35.8461865
  56.9824407  63.8758630  27.1733938  56.8442306  64.0660226  26.2455128
  56.6260626  64.6378013  27.6301990  45.1466533  57.8616725  33.2530950
  45.7865912  57.7205485  32.5553914  44.3144064  57.5751239  32.8769552
  57.0093787  65.9435157  32.1845210  57.4430293  65.8510446  33.0328264
  57.7225367  65.9192658  31.5465226  45.9226837  67.1619156  29.3665943
  46.7167436  66.6669476  29.1648518  45.2118529  66.6337019  29.0033648
  50.7421682  69.5437251  33.7178311  50.7958704  70.1128188  34.4856026
  49.8736463  69.7139136  33.3532348  42.2309601  61.3062238  25.4425696
  41.3007189  61.2446693  25.6595658  42.3267073  60.7838190  24.6462337
  42.1495150  57.8317050  28.0303937  42.4101967  58.7462384  27.9213098
  42.9712322  57.3641493  28.1800550  43.6220075  59.2454808  35.2002762
  44.2943128  59.0372170  34.5515411  42.7949861  59.0476894  34.7607994
  49.5245647  55.8716748  37.2168423  48.8773562  56.5706698  37.1232899
  50.2946662  56.3052892  37.5844671  52.9324445  66.1365601  40.2918976
  52.7809951  65.9076152  39.3749060  52.9229124  67.0936202  40.3050321
  49.7009781  63.7097513  35.2765242  50.6301841  63.8608673  35.1034210
  49.2800811  63.7981534  34.4213889  48.4998113  67.7348178  33.0463780
  48.3609199  67.3666962  33.9189718  47.7112709  68.2495817  32.8747738
  49.0946265  72.8357274  24.3889317  49.2698021  72.3645317  25.2034939
  48.4079053  73.4623040  24.6170577  50.0503328  67.1129781  30.4352618
  49.7153161  67.0730550  31.3310268  49.5507274  66.4474496  29.9623028
  44.0247572  62.5197411  35.9605199  43.8867370  61.7877649  36.5616738
  44.9352496  62.4306311  35.6789387  52.9862520  64.4585815  20.7089677
  52.3691690  63.7332643  20.6122730  52.5179008  65.2195175  20.3656752
  46.6529873  62.2317370  35.4488879  47.3629491  61.5910562  35.4075497
  46.6099181  62.4830265  36.3715059  54.6416652  69.1684723  38.3695458
  54.5829198  68.4843943  37.7026041  55.0436170  69.9103713  37.9176084
  45.3658807  59.2182588  37.2684518  44.8296164  58.7673326  37.9206114
  44.7775515  59.3528497  36.5254982  43.6607350  75.9846637  31.1629177
  43.9003949  76.6165161  31.8408195  42.8176547  75.6334677  31.4494536
  44.7761066  58.6771239  19.8310982  43.8990532  58.5560040  19.4673228
  45.2518819  57.8857317  19.5789870  54.6434059  67.1324307  36.6009437
  53.7560838  66.7950229  36.7235836  55.2132610  66.4007338  36.8378203
  36.2963206  63.4648399  29.9252489  36.9834246  63.1510129  29.3373504
  36.1411335  64.3689764  29.6519740  41.0997928  58.3538595  34.3537513
  41.0156117  57.7464265  33.6187923  40.2780634  58.8447614  34.3547009
  48.1735212  71.7925759  33.5670681  48.1005384  72.5980731  34.0789985
  47.7312605  71.9917725  32.7418702  47.9624992  71.0297530  27.0773502
  47.1792514  71.5719210  27.1711727  48.6617737  71.5471509  27.4767743
  51.2721642  56.8392159  29.7207708  51.7690341  56.0862121  29.4008778
  50.5008623  56.8756476  29.1550917  50.6333896  71.6912594  35.7228839
  51.3461868  72.3260058  35.6504741  50.1423924  71.7876460  34.9068841
  52.3551423  65.5963846  27.2946131  51.4207701  65.7165309  27.1250835
  52.5328091  64.6936313  27.0306141  47.8556611  58.9809542  29.4479392
  47.4854398  58.4280582  30.1360298  48.3515703  58.3767675  28.8954392
  55.7423974  61.4381165  27.8296165  56.2084426  62.2709157  27.7556468
  56.1931474  60.9726147  28.5341424  45.6845809  69.4407037  36.5434410
  46.3855269  70.0743520  36.6963804  45.2140924  69.7821769  35.7830049
  53.8100205  67.7824987  24.8282317  54.0860049  67.6681581  25.7376191
  52.9404704  67.3842472  24.7894490  53.7140637  53.8061752  31.8687066
  52.8003716  54.0365979  32.0369273  54.1433738  53.8900197  32.7201099
  53.4847095  61.9951644  34.3686961  52.8318545  62.2427552  33.7139413
  53.8627475  61.1815783  34.0349438  50.4454269  72.0311338  28.4715131
  50.6276664  71.2132994  28.9342883  51.2687255  72.2479030  28.0340021
  50.7796435  70.9579523  25.7330179  51.3084201  70.4471977  25.1200341
  51.0424654  70.6422053  26.5975712  49.5334668  62.7371455  40.8552998
  48.8575305  62.6365585  41.5255373  50.3562302  62.5810669  41.3188995
  41.2813527  68.9743392  33.4765513  41.8666964  68.2287080  33.6093417
  41.0838366  69.2847349  34.3602177  44.1352183  72.0094639  28.4927955
  43.4662558  72.4940767  28.0091995  43.9965052  72.2563860  29.4071334
  35.8731182  61.5448992  32.1969956  35.9115282  61.0112583  32.9907074
  35.3671475  61.0184198  31.5780933  48.2757451  74.0438383  35.0910614
  48.8275759  74.2070004  35.8559699  48.6163645  74.6342821  34.4190638
  43.2521944  56.3913533  35.6932498  43.3163271  57.2528364  35.2809896
  43.1889065  55.7787534  34.9604857  42.7274217  58.4636665  39.3405533
  43.3546256  58.0813743  39.9543057  41.8702136  58.2450867  39.7061225
  53.1268325  68.8699640  40.9459268  53.6708229  69.4829599  40.4514223
  52.5455170  69.4279219  41.4626281  39.5039760  60.2713094  25.2723887
  39.7993201  59.3623773  25.2190941  38.6027795  60.2500834  24.9504890
  51.4125838  71.9920358  32.0774296  51.2876978  71.1910098  31.5685241
  52.0704929  72.4866552  31.5888266  43.0334007  58.3469091  31.2551436
  42.3120592  58.9605059  31.1158909  43.8227262  58.8826856  31.1768082
  53.4760747  69.7929379  33.7053846  52.5291082  69.6734730  33.6332173
  53.8243520  68.9051877  33.7880107  45.8360320  55.6823517  37.5292088
  46.3594722  55.9285814  38.2918397  45.6172653  56.5143552  37.1095225
  41.2327601  57.9527192  25.3963213  40.9040307  57.0724571  25.2138318
  41.5866972  57.8974861  26.2839602  50.4807180  69.5882095  29.9058198
  50.3332142  68.6598802  30.0865768  51.3060674  69.6102185  29.4215273
  44.3469424  58.2400162  25.7638690  44.6865497  58.7686083  25.0417299
  44.7941545  58.5780568  26.5397257  54.0841302  70.4110653  30.9923071
  55.0087849  70.2053515  30.8547522  53.9156605  70.1627055  31.9012412
  47.0412865  56.6237213  35.2141758  46.7009686  55.8245026  35.6162438
  46.3351871  56.9238923  34.6418591  47.6929337  53.7086525  33.6669081
  48.5155406  53.2347003  33.5447972  47.9367401  54.4877009  34.1667768
  46.3337571  56.7374783  23.9631983  47.0545934  57.1156036  23.4595700
  45.7102876  57.4563660  24.0666961  50.4768694  57.4419932  24.8990315
  50.6932309  58.3244570  24.5979143  49.9962762  57.0506146  24.1695957
  45.2167916  60.4005646  31.4761060  45.0712496  60.7145949  32.3685341
  44.7393119  61.0190546  30.9231959  47.0764299  57.3908194  31.5241949
  47.0625867  56.4949287  31.1874247  47.7936727  57.3978857  32.1580236
  48.9290429  57.8245534  33.5695077  48.6708207  58.7462604  33.5679407
  48.3975470  57.4275968  34.2595541  53.8736618  70.9296321  26.3485162
  54.0473496  70.3642743  25.5959015  54.3665509  71.7297216  26.1664652
  39.6913578  62.9410990  34.4148721  39.1467046  63.7170798  34.5468995
  40.5692928  63.2881795  34.2567843  46.4801195  56.2722574  26.7929520
  46.6017106  55.3439220  26.9920407  46.1903237  56.2861260  25.8807835
  49.3492385  53.9577484  29.9296239  49.3714082  54.0216817  28.9748219
  49.7660444  53.1181993  30.1236746  59.7276009  63.6932744  27.9675462
  60.1707155  62.9440069  27.5694585  58.8502520  63.6842880  27.5849194
  54.8611791  70.2463085  23.4482061  55.5562695  70.8669778  23.6669375
  55.2034941  69.3958437  23.7234438  40.4779600  62.0680886  37.3078878
  39.7361336  62.2163522  37.8943508  40.1572344  62.3289152  36.4445627
  56.7603214  67.6962791  24.9769391  57.2854538  68.0350064  24.2518711
  56.6725566  66.7609806  24.7932526  48.4223262  71.6096865  37.1059268
  48.7310389  71.3646011  37.9781968  49.2198744  71.8143503  36.6178138
  48.4443874  73.7634774  29.3364645  48.0048865  73.2711153  30.0297501
  49.1951991  73.2207742  29.0956720  40.9236213  69.9546315  29.3389273
  41.7494233  69.6550087  28.9587916  40.5730265  69.1853937  29.7879061
  45.8917747  69.3072783  31.4086946  45.2697756  68.6443488  31.1089174
  46.5622614  69.3333915  30.7260594  39.1244818  67.8732641  30.2978206
  38.2876727  67.4454816  30.1162207  39.0968464  68.0665085  31.2348997
  45.9642274  57.7854571  41.0019452  46.0130430  58.6616694  40.6197222
  46.5064788  57.2431964  40.4291095  56.4497120  68.3295695  40.2820589
  55.6592663  68.3119833  39.7425089  56.2130474  68.8683988  41.0369626
  45.4531254  67.8576707  24.8845407  45.6019374  68.5412171  24.2312079
  46.2597697  67.8381797  25.3994862  53.8598757  61.1619089  38.9112625
  54.7608620  61.0225554  38.6196622  53.9346732  61.3273544  39.8510802
  48.1941563  58.5385944  37.7565811  47.3244872  58.8319510  37.4848399
  48.4301043  59.1226389  38.4773074  43.2083887  63.8841884  25.8906476
  42.9629928  62.9804214  26.0886686  43.3779801  63.8859035  24.9485954
  50.8980596  54.7565561  35.2731231  51.4162540  55.4926588  34.9477720
  50.5435729  55.0629554  36.1077990  42.4779534  59.6170242  23.3892637
  41.7848779  59.6914597  22.7332673  42.2331286  58.8530585  23.9114154
  51.1493191  51.1765843  30.7932128  51.4294944  50.5089032  31.4192554
  51.9343797  51.3694939  30.2806792  48.9526659  70.3524837  22.3557154
  48.3800626  70.9715024  21.9027626  49.5259453  70.9024199  22.8897076
  55.0202049  59.5983477  34.5403703  55.9719472  59.6981575  34.5615927
  54.8505499  58.8061746  35.0501787  53.0416428  56.6839060  34.7263104
  52.4466360  56.9644073  34.0309592  52.7566125  57.1732961  35.4979845
  52.1723919  70.6361987  23.4865736  53.1054592  70.5707549  23.6898612
  52.0847132  71.4718254  23.0280269  54.8011936  69.9527858  20.4469684
  54.7225567  69.6187721  21.3405442  55.6221602  70.4449625  20.4461156
  49.3373458  61.6885650  19.6973207  50.2832562  61.5591858  19.7661625
  48.9587702  60.9500312  20.1742635  55.3095342  53.3541656  29.6600098
  55.1120163  53.0456744  30.5443430  55.9195048  54.0803295  29.7898028
  49.2212150  65.7403396  41.1573864  50.1415160  65.9181995  41.3513910
  49.1861733  64.7959441  41.0053563  47.5216375  59.6135626  19.6328092
  46.6147830  59.3168739  19.7090805  47.7992356  59.3165444  18.7662378
  38.4394315  60.9341990  30.0827138  38.1197099  60.0807298  29.7901512
  37.8927743  61.1490568  30.8385106  42.2174223  63.6504431  33.7996645
  42.4360232  64.5821538  33.8184679  42.6299996  63.2912405  34.5851449
  49.1378440  54.1572516  25.7872333  48.3279169  53.8119601  26.1627579
  49.8262857  53.8480060  26.3759945  51.0668989  53.2350563  27.4096630
  51.6200027  53.6546016  28.0686653  51.3039075  52.3086311  27.4519586
  47.0902088  59.2237636  43.1899394  46.9898815  60.1731993  43.1211485
  46.8723630  58.8955875  42.3175464  46.2915159  56.4722561  19.7740071
  47.1534323  56.7977460  20.0335888  46.4765503  55.6854057  19.2613137
  38.3082575  64.5544901  32.0520260  37.6146047  64.1398854  31.5390214
  39.0555566  64.5965438  31.4553679  54.4447796  55.3451088  26.9175294
  53.8646465  56.0035892  26.5353346  54.1783728  54.5228432  26.5062712
  52.8951362  54.7456146  29.1196614  53.3951141  54.8572680  28.3110933
  53.5386970  54.4417198  29.7597423  46.9533358  62.6534775  42.0064455
  46.4700440  63.4535135  42.2128344  47.0394297  62.6642720  41.0531899
  40.2219318  64.4863155  29.9286275  40.1990006  64.5850842  28.9768158
  40.5319954  65.3328306  30.2503441  42.8806695  66.5439310  34.0432889
  43.8349949  66.5123252  33.9762821  42.6819219  66.0829934  34.8583115
  43.4706078  65.1140426  36.6103687  44.2898967  65.6084505  36.6338524
  43.7442885  64.1972394  36.5821254  53.2272674  57.5051178  25.9731642
  52.3398529  57.7900829  25.7551837  53.6426663  57.3444942  25.1258919
  41.2356924  72.0858929  31.0603087  41.1011392  71.3259330  30.4941085
  40.8188987  72.8099829  30.5931876  52.3715887  67.2695853  20.0679662
  53.0751737  67.4745855  20.6837318  51.6478536  67.8372615  20.3328746
  53.2013698  63.0205714  26.1881932  53.1448899  63.4774266  25.3489565
  53.7542040  62.2596399  26.0104775  44.3926050  72.9828246  31.2721530
  44.2758434  73.9273679  31.1700220  43.5718496  72.6801808  31.6607329
  54.2802585  67.7078382  22.1178122  55.1148189  67.2759581  21.9355597
  54.1186928  67.5360396  23.0455017  53.9348477  64.2110495  23.4834462
  53.8797281  64.0454767  22.5422906  53.3094532  64.9186528  23.6396651
  38.7240992  59.4478560  37.3095884  39.3699855  58.9377514  37.7983109
  38.5158143  60.1847241  37.8839309  51.2494384  66.5159407  42.8088024
  52.1185544  66.6900060  42.4474659  50.7701136  67.3353824  42.6863754
  47.2444602  53.7118604  23.0619780  47.2323272  54.6560444  23.2188051
  48.1368024  53.5288750  22.7679241  45.4180564  73.6356508  34.4877458
  46.3207811  73.6680119  34.8043953  45.1917934  72.7056959  34.5023794
  47.1734166  72.3887495  31.1487537  46.2229797  72.3889356  31.0351909
  47.4766652  71.6420229  30.6323571  51.0596722  50.3061381  27.3165717
  50.2929118  49.7519868  27.4622399  51.4707427  50.3783250  28.1779868
  43.0638483  56.5946177  41.4070898  43.9269944  56.2382982  41.6174223
  42.4903894  56.2560072  42.0946302  62.9086860  78.2248033  32.2133299
  63.5465270  78.1054781  31.5096639  62.7907703  79.1728877  32.2721251
  59.7176566  78.1775461  32.1494824  59.3795078  78.0616526  31.2615359
  60.5866334  77.7766626  32.1295830  55.5763382  80.0310938  28.1391715
  55.0128247  79.9400875  27.3708003  55.4615777  79.2110842  28.6194207
  60.1996349  79.3310313  38.1081029  60.1884990  78.9363111  37.2361533
  60.3616989  78.5976386  38.7014801  53.1227814  81.5262129  30.9775935
  53.9149106  81.1852954  30.5622235  53.3624464  81.6357104  31.8978089
  61.1562940  83.6981905  23.4506180  60.5050920  84.2835986  23.0640193
  61.9507303  84.2288100  23.5101217  55.0818568  80.7871043  23.8493314
  55.8549444  80.2400030  23.7106190  55.4343967  81.6515292  24.0607775
  56.9203610  82.1147425  37.0560213  56.6293476  83.0193056  36.9406880
  57.5560595  82.1563952  37.7704283  57.8459817  79.4924273  33.6461573
  58.4423389  79.2680296  32.9318536  57.9034789  78.7509019  34.2487021
  57.4184845  76.9463709  21.4811764  57.6710366  76.4245230  20.7195227
  56.4809405  76.7829854  21.5838448  62.4628128  75.9499487  29.2886507
  63.2491218  75.5318910  28.9376924  62.7266833  76.8545579  29.4568156
  62.6338206  81.3872337  23.9875164  61.9984039  81.4606964  24.6996069
  62.3035612  81.9765936  23.3094243  67.8636555  75.8874720  30.1919486
  68.5961727  75.3173937  30.4257315  67.1075911  75.4996321  30.6325991
  57.1381134  78.8491815  23.6836139  57.0217392  78.1736718  24.3517223
  57.2483394  78.3624189  22.8668292  59.4812675  78.3101962  27.3882828
  59.1170882  77.7832583  28.0995750  60.3379791  77.9200431  27.2149314
  59.1218162  73.3391861  22.3844177  59.2892564  74.2072098  22.7514648
  58.9315331  73.5019143  21.4605466  61.8793495  81.8008840  34.0510007
  61.5794218  82.7033879  33.9425814  61.5344555  81.5341024  34.9031160
  55.3305977  78.2522637  30.0846711  54.4056473  78.1198851  30.2924403
  55.5790390  79.0316856  30.5816654  65.2790639  74.3191381  31.7307444
  64.3707516  74.2506789  31.4366205  65.2278235  74.7963325  32.5589270
  59.1007383  75.7949519  23.3690843  58.9807008  76.2406570  24.2076324
  58.4059971  76.1434837  22.8104382  52.6914788  77.8955911  30.9190501
  52.8207169  78.1490390  31.8329912  52.0112239  78.4883619  30.5995156
  56.8614275  88.5653161  27.0180975  56.7838305  89.5160986  27.0969455
  56.2575919  88.2199033  27.6755901  59.3531505  75.7381026  39.6742342
  58.5764839  76.2974946  39.6645206  59.9922068  76.2237809  40.1957212
  67.1452285  72.5207819  33.5085318  66.5026666  72.8140352  32.8625113
  66.6407214  72.4060739  34.3138515  64.7992449  76.2670992  24.1971178
  65.7110305  76.4998379  24.0218875  64.2902096  76.8508036  23.6346256
  57.6077877  78.5466480  39.2360309  58.3492562  79.0851523  38.9595132
  56.9014863  79.1732768  39.3931860  63.0833217  80.6895620  37.8332470
  63.4916573  80.2478030  37.0887102  62.3610478  80.1148247  38.0866663
  59.4364287  75.6268227  35.2066027  60.2825482  76.0507640  35.3500676
  59.3762925  74.9701851  35.9004590  63.4062031  81.2496811  31.5884759
  62.7770894  81.4142525  30.8860827  63.0187694  81.6638420  32.3595723
  67.2851263  82.1851248  28.9429123  66.6002301  82.5650150  28.3926156
  67.3695113  82.7946575  29.6761070  64.5402195  79.8311207  35.5424466
  64.7519090  80.4742967  34.8658847  64.4931943  78.9973524  35.0746396
  62.1428424  72.4429028  32.4461038  61.2812903  72.7410282  32.7377776
  62.1690859  72.6599427  31.5142071  58.9589993  80.9871219  28.8534844
  59.4228339  81.2658922  28.0639467  58.6946791  80.0854663  28.6707935
  55.8514074  80.5342700  31.7914607  56.4215431  80.9629969  31.1532092
  56.4422186  80.2525285  32.4898793  57.8958879  77.1094371  25.6624409
  58.5982923  77.5615415  26.1298336  57.5639508  76.4678190  26.2904302
  56.3439241  75.7006128  40.0375619  55.7137901  76.3822409  40.2711015
  56.2375329  75.5889209  39.0928757  51.6384213  75.3677924  30.9641543
  50.8483267  75.6235452  30.4881653  52.1295461  76.1826262  31.0693583
  65.6548023  82.7083163  33.7146824  66.4765467  82.3063350  33.4329505
  65.6510426  82.6051397  34.6662939  53.5898959  75.7322503  27.9225019
  52.7930122  75.8441197  28.4408515  53.3624551  76.0709155  27.0565910
  59.4204626  82.2567206  35.8707534  59.4849059  82.7187613  36.7065706
  58.7115550  81.6264571  35.9989844  49.9221916  75.6208414  33.3956534
  50.1729955  76.5055424  33.6614110  50.4581465  75.4413016  32.6231625
  59.1352644  83.9235314  25.7386514  58.9998319  84.7686849  26.1671362
  59.6762456  84.1254591  24.9752448  55.6219984  70.0026894  42.4000870
  55.2286929  69.4493092  43.0748514  56.4386124  70.3137472  42.7907387
  52.5882041  81.4410752  26.3114440  53.1006562  82.2354002  26.4620004
  53.2404754  80.7437042  26.2448041  54.3976926  84.5576508  28.3937193
  54.5743554  85.4794473  28.2058177  55.1933760  84.2434927  28.8231572
  58.5387945  71.4184773  39.9921126  59.2797658  72.0191926  39.9125589
  58.7705867  70.6762410  39.4339169  53.6829283  76.6041140  38.2699356
  53.5682798  75.7026397  38.5706455  52.8273800  76.8504837  37.9184172
  60.7621120  84.5458880  39.8686857  60.3184975  83.7595259  39.5507761
  61.4238334  84.7338031  39.2030747  55.5208242  86.0754682  34.3947535
  56.0715667  85.9471745  33.6224529  54.6819717  86.3749571  34.0442428
  62.8602358  84.8261680  37.8968258  62.8420834  85.6470561  37.4048527
  63.7822278  84.7015755  38.1218399  59.3175413  82.3405810  38.7391766
  59.8503749  81.5794098  38.5091074  58.7889494  82.0479461  39.4815921
  50.5530958  79.7699406  27.0874010  51.3906180  80.1796414  26.8707718
  50.7309226  78.8298848  27.0574204  62.4495390  77.4374487  22.7757843
  61.9342014  78.2079091  23.0146230  62.1772699  76.7639623  23.3990904
  60.0342501  72.2824187  27.8343081  59.1784098  71.8931038  27.6548720
  60.4469453  72.3616148  26.9742867  61.5641648  69.8170531  32.2334641
  61.0606444  69.7800666  31.4202446  61.8572255  70.7263273  32.2931298
  57.8084534  69.9009260  31.2400823  58.6737531  69.7052069  30.8806712
  57.8762043  69.6719612  32.1670180  67.4229664  80.1906841  24.7111016
  66.6459107  79.8518001  24.2666179  68.1021145  80.1959464  24.0365982
  62.2381693  75.3101579  24.6017624  61.9331829  75.6247728  25.4527767
  63.1912136  75.3882999  24.6444957  60.6828125  81.4691802  26.2510578
  60.1549487  80.7344562  25.9383816  60.1815628  82.2466478  26.0050546
  65.6620971  79.6640823  31.3677624  65.0044646  80.3540084  31.4557753
  66.4661371  80.0537255  31.7111611  55.4146853  72.1311468  28.6117190
  55.9890605  71.9086650  27.8790383  56.0017835  72.2000163  29.3645791
  64.4726430  78.0185195  29.4181566  64.9858312  78.6515187  29.9203276
  65.1227654  77.4186391  29.0524926  55.7416440  74.1615929  22.6313075
  54.9053752  74.4990616  22.9522350  55.6021210  74.0264909  21.6940212
  57.7169521  69.0052717  27.3392259  57.0633933  68.6901734  26.7148874
  57.6749995  68.3828458  28.0652082  58.8280725  79.2872012  19.2545551
  57.9207787  79.0561266  19.4536700  59.3251757  78.4909632  19.4419533
  61.7348804  87.9969520  22.1742237  61.0610503  88.3001216  22.7827195
  62.1214626  88.7998600  21.8247694  60.9507261  75.4934651  31.6639907
  60.0329822  75.7149598  31.5061595  61.3667405  75.5680961  30.8051614
  61.7342309  76.8926066  26.7942587  62.4814128  77.4047464  26.4849709
  62.0033898  76.5710119  27.6546981  60.0068959  79.3884607  23.7769541
  59.0980178  79.1043640  23.8742011  60.0364043  79.8083686  22.9172848
  65.2388226  82.9991197  27.5460709  64.7850553  82.1582107  27.6025899
  64.6082193  83.6352595  27.8835489  64.1821146  73.9283183  28.7761376
  63.4443903  73.4160569  29.1071619  64.4347919  73.4883564  27.9644653
  63.6821166  84.8367693  28.4810527  63.9744140  85.3972751  27.7622893
  64.1919786  85.1296254  29.2363686  50.5757129  77.1090121  27.7584743
  50.3781529  76.5159482  27.0335810  50.0203793  76.8042332  28.4760682
  58.5553853  77.0013228  29.8779337  58.6102463  76.0487064  29.8021813
  57.7445055  77.1572667  30.3620635  59.7045047  80.9293351  21.1157620
  59.2664477  80.2129210  20.6563257  60.4455488  81.1569466  20.5542711
  56.4946213  75.6190288  27.6369716  55.6814078  75.9184458  28.0434908
  56.9905207  75.2245976  28.3544198  58.6454791  85.6148044  29.5703980
  58.6030970  85.8408891  28.6412512  59.5617490  85.3811419  29.7189781
  62.0920425  76.0832112  36.4684609  62.4469812  76.3103585  37.3279075
  62.7392556  76.4150489  35.8461865  67.8218162  79.2050548  27.1733938
  67.6836060  79.3952144  26.2455128  67.4654380  79.9669931  27.6301990
  55.9860288  73.1908643  33.2530950  56.6259667  73.0497402  32.5553914
  55.1537818  72.9043156  32.8769552  67.8487541  81.2727075  32.1845210
  68.2824048  81.1802364  33.0328264  68.5619122  81.2484575  31.5465226
  56.7620592  82.4911074  29.3665943  57.5561190  81.9961394  29.1648518
  56.0512284  81.9628937  29.0033648  61.5815436  84.8729169  33.7178311
  61.6352458  85.4420105  34.4856026  60.7130217  85.0431054  33.3532348
  53.0703355  76.6354155  25.4425696  52.1400943  76.5738611  25.6595658
  53.1660827  76.1130108  24.6462337  52.9888904  73.1608968  28.0303937
  53.2495721  74.0754301  27.9213098  53.8106076  72.6933411  28.1800550
  54.4613829  74.5746725  35.2002762  55.1336883  74.3664087  34.5515411
  53.6343616  74.3768811  34.7607994  68.7103091  81.3150776  34.7178095
  68.9038981  82.2196586  34.9637370  68.6103709  80.8558195  35.5516680
  63.7718199  81.4657518  40.2918976  63.6203706  81.2368070  39.3749060
  63.7622879  82.4228120  40.3050321  60.5403536  79.0389431  35.2765242
  61.4695596  79.1900591  35.1034210  60.1194566  79.1273452  34.4213889
  59.3391868  83.0640095  33.0463780  59.2002953  82.6958880  33.9189718
  58.5506464  83.5787735  32.8747738  59.9340020  88.1649192  24.3889317
  60.1091775  87.6937235  25.2034939  59.2472808  88.7914958  24.6170577
  60.8897083  82.4421698  30.4352618  60.5546915  82.4022468  31.3310268
  60.3901028  81.7766414  29.9623028  54.8641327  77.8489328  35.9605199
  54.7261125  77.1169567  36.5616738  55.7746250  77.7598228  35.6789387
  63.8256274  79.7877733  20.7089677  63.2085445  79.0624561  20.6122730
  63.3572763  80.5487093  20.3656752  57.4923627  77.5609288  35.4488879
  58.2023246  76.9202480  35.4075497  57.4492935  77.8122182  36.3715059
  65.4810406  84.4976641  38.3695458  65.4222952  83.8135861  37.7026041
  65.8829924  85.2395631  37.9176084  56.2052561  74.5474505  37.2684518
  55.6689918  74.0965244  37.9206114  55.6169270  74.6820414  36.5254982
  54.5001105  91.3138555  31.1629177  54.7397703  91.9457079  31.8408195
  53.6570301  90.9626595  31.4494536  55.6154820  74.0063157  19.8310982
  54.7384287  73.8851958  19.4673228  56.0912573  73.2149235  19.5789870
  65.4827813  82.4616225  36.6009437  64.5954592  82.1242147  36.7235836
  66.0526364  81.7299256  36.8378203  47.1356960  78.7940317  29.9252489
  47.8228000  78.4802047  29.3373504  46.9805089  79.6981681  29.6519740
  51.9391683  73.6830513  34.3537513  51.8549871  73.0756183  33.6187923
  51.1174389  74.1739531  34.3547009  59.0128967  87.1217677  33.5670681
  58.9399138  87.9272649  34.0789985  58.5706360  87.3209643  32.7418702
  58.8018746  86.3589447  27.0773502  58.0186268  86.9011127  27.1711727
  59.5011491  86.8763427  27.4767743  62.1115396  72.1684077  29.7207708
  62.6084096  71.4154039  29.4008778  61.3402378  72.2048393  29.1550917
  69.9645154  77.8724442  31.3625999  69.9535030  78.7549158  30.9919932
  69.0962533  77.5195993  31.1680536  61.4727650  87.0204511  35.7228839
  62.1855622  87.6551976  35.6504741  60.9817679  87.1168377  34.9068841
  63.1945177  80.9255764  27.2946131  62.2601456  81.0457226  27.1250835
  63.3721846  80.0228231  27.0306141  58.6950365  74.3101460  29.4479392
  58.3248153  73.7572500  30.1360298  59.1909458  73.7059593  28.8954392
  66.5817728  76.7673083  27.8296165  67.0478181  77.6001075  27.7556468
  67.0325229  76.3018065  28.5341424  56.5239564  84.7698955  36.5434410
  57.2249023  85.4035438  36.6963804  56.0534679  85.1113686  35.7830049
  64.6493960  83.1116904  24.8282317  64.9253803  82.9973499  25.7376191
  63.7798458  82.7134389  24.7894490  64.3240850  77.3243562  34.3686961
  63.6712300  77.5719470  33.7139413  64.7021230  76.5107700  34.0349438
  61.2848024  87.3603255  28.4715131  61.4670418  86.5424911  28.9342883
  62.1081010  87.5770948  28.0340021  61.6190189  86.2871440  25.7330179
  62.1477955  85.7763895  25.1200341  61.8818409  85.9713971  26.5975712
  60.3728423  78.0663373  40.8552998  59.6969060  77.9657502  41.5255373
  61.1956057  77.9102587  41.3188995  52.1207282  84.3035310  33.4765513
  52.7060719  83.5578998  33.6093417  51.9232120  84.6139266  34.3602177
  54.9745937  87.3386557  28.4927955  54.3056312  87.8232685  28.0091995
  54.8358807  87.5855778  29.4071334  46.7124937  76.8740910  32.1969956
  46.7509036  76.3404501  32.9907074  46.2065229  76.3476115  31.5780933
  59.1151206  89.3730301  35.0910614  59.6669514  89.5361922  35.8559699
  59.4557399  89.9634738  34.4190638  54.0915699  71.7205450  35.6932498
  54.1557025  72.5820281  35.2809896  54.0282819  71.1079452  34.9604857
  53.5667971  73.7928583  39.3405533  54.1940010  73.4105660  39.9543057
  52.7095890  73.5742785  39.7061225  63.9662080  84.1991558  40.9459268
  64.5101984  84.8121516  40.4514223  63.3848925  84.7571137  41.4626281
  50.3433514  75.6005012  25.2723887  50.6386955  74.6915690  25.2190941
  49.4421550  75.5792752  24.9504890  62.2519593  87.3212276  32.0774296
  62.1270732  86.5202016  31.5685241  62.9098684  87.8158470  31.5888266
  53.8727761  73.6761009  31.2551436  53.1514347  74.2896976  31.1158909
  54.6621017  74.2118773  31.1768082  64.3154501  85.1221296  33.7053846
  63.3684837  85.0026647  33.6332173  64.6637274  84.2343794  33.7880107
  56.6754075  71.0115435  37.5292088  57.1988476  71.2577732  38.2918397
  56.4566408  71.8435470  37.1095225  52.0721356  73.2819110  25.3963213
  51.7434062  72.4016489  25.2138318  52.4260726  73.2266778  26.2839602
  61.3200935  84.9174012  29.9058198  61.1725897  83.9890720  30.0865768
  62.1454428  84.9394103  29.4215273  55.1863179  73.5692080  25.7638690
  55.5259251  74.0978001  25.0417299  55.6335299  73.9072486  26.5397257
  64.9235056  85.7402571  30.9923071  65.8481604  85.5345433  30.8547522
  64.7550360  85.4918972  31.9012412  57.8806620  71.9529130  35.2141758
  57.5403440  71.1536943  35.6162438  57.1745626  72.2530841  34.6418591
  58.5323091  69.0378443  33.6669081  59.3549161  68.5638921  33.5447972
  58.7761155  69.8168926  34.1667768  57.1731326  72.0666701  23.9631983
  57.8939688  72.4447954  23.4595700  56.5496630  72.7855578  24.0666961
  56.0561670  75.7297563  31.4761060  55.9106251  76.0437866  32.3685341
  55.5786874  76.3482464  30.9231959  57.9158053  72.7200111  31.5241949
  57.9019622  71.8241205  31.1874247  58.6330481  72.7270775  32.1580236
  59.7684184  73.1537452  33.5695077  59.5101962  74.0754522  33.5679407
  59.2369224  72.7567886  34.2595541  64.7130373  86.2588239  26.3485162
  64.8867250  85.6934661  25.5959015  65.2059264  87.0589134  26.1664652
  50.5307332  78.2702908  34.4148721  49.9860800  79.0462716  34.5468995
  51.4086682  78.6173712  34.2567843  57.3194949  71.6014492  26.7929520
  57.4410860  70.6731138  26.9920407  57.0296991  71.6153178  25.8807835
  60.1886139  69.2869402  29.9296239  60.2107836  69.3508735  28.9748219
  60.6054198  68.4473911  30.1236746  70.5669764  79.0224662  27.9675462
  71.0100910  78.2731987  27.5694585  69.6896274  79.0134798  27.5849194
  65.7005545  85.5755003  23.4482061  66.3956450  86.1961696  23.6669375
  66.0428695  84.7250354  23.7234438  51.3173354  77.3972804  37.3078878
  50.5755090  77.5455439  37.8943508  50.9966099  77.6581070  36.4445627
  67.5996968  83.0254709  24.9769391  68.1248292  83.3641981  24.2518711
  67.5119321  82.0901724  24.7932526  59.2617017  86.9388782  37.1059268
  59.5704143  86.6937929  37.9781968  60.0592499  87.1435421  36.6178138
  59.2837629  89.0926692  29.3364645  58.8442619  88.6003071  30.0297501
  60.0345746  88.5499660  29.0956720  51.7629968  85.2838233  29.3389273
  52.5887988  84.9842005  28.9587916  51.4124020  84.5145855  29.7879061
  56.7311501  84.6364701  31.4086946  56.1091510  83.9735406  31.1089174
  57.4016368  84.6625833  30.7260594  49.9638573  83.2024559  30.2978206
  49.1270481  82.7746734  30.1162207  49.9362218  83.3957003  31.2348997
  56.8036029  73.1146489  41.0019452  56.8524184  73.9908612  40.6197222
  57.3458543  72.5723882  40.4291095  67.2890874  83.6587612  40.2820589
  66.4986418  83.6411751  39.7425089  67.0524229  84.1975906  41.0369626
  67.4088749  80.5080079  37.5953318  67.4586754  80.3430086  38.5368841
  67.3002673  79.6407338  37.2051199  56.2925008  83.1868624  24.8845407
  56.4413128  83.8704089  24.2312079  57.0991451  83.1673714  25.3994862
  64.6992512  76.4911007  38.9112625  65.6002374  76.3517471  38.6196622
  64.7740486  76.6565461  39.8510802  59.0335317  73.8677861  37.7565811
  58.1638626  74.1611427  37.4848399  59.2694797  74.4518306  38.4773074
  68.9106946  82.9277020  37.8395339  68.6191754  83.2907001  38.6758800
  68.2979077  82.2144028  37.6608671  70.1102628  80.4929900  30.3597910
  70.9449520  80.9319704  30.5235470  70.2461757  80.0168553  29.5406155
  67.1594134  78.0509635  36.3075397  67.6348256  78.2437281  35.4994249
  66.2359700  78.1068821  36.0618781  54.0477641  79.2133802  25.8906476
  53.8023683  78.3096132  26.0886686  54.2173556  79.2150952  24.9485954
  53.3173289  74.9462159  23.3892637  52.6242533  75.0206514  22.7332673
  53.0725040  74.1822503  23.9114154  59.7920414  85.6816755  22.3557154
  59.2194381  86.3006942  21.9027626  60.3653207  86.2316116  22.8897076
  65.8595803  74.9275395  34.5403703  66.8113226  75.0273492  34.5615927
  65.6899254  74.1353663  35.0501787  63.0117673  85.9653905  23.4865736
  63.9448346  85.8999467  23.6898612  62.9240886  86.8010172  23.0280269
  65.6405690  85.2819775  20.4469684  65.5619322  84.9479639  21.3405442
  66.4615357  85.7741543  20.4461156  68.3383881  78.1481515  33.6546003
  68.3060201  77.2097515  33.8405686  68.9484505  78.2265551  32.9211827
  60.1767212  77.0177567  19.6973207  61.1226317  76.8883776  19.7661625
  59.7981457  76.2792229  20.1742635  68.4878370  74.9392558  33.7004286
  67.9717418  74.1551015  33.5134215  69.3718318  74.6111275  33.8650805
  60.0605905  81.0695314  41.1573864  60.9808914  81.2473913  41.3513910
  60.0255488  80.1251359  41.0053563  58.3610129  74.9427544  19.6328092
  57.4541585  74.6460657  19.7090805  58.6386110  74.6457362  18.7662378
  49.2788070  76.2633907  30.0827138  48.9590854  75.4099215  29.7901512
  48.7321498  76.4782485  30.8385106  53.0567977  78.9796348  33.7996645
  53.2753987  79.9113456  33.8184679  53.4693751  78.6204323  34.5851449
  57.9295842  74.5529554  43.1899394  57.8292569  75.5023911  43.1211485
  57.7117384  74.2247793  42.3175464  57.1308914  71.8014479  19.7740071
  57.9928078  72.1269377  20.0335888  57.3159258  71.0145975  19.2613137
  49.1476330  79.8836819  32.0520260  48.4539801  79.4690772  31.5390214
  49.8949321  79.9257355  31.4553679  57.7927112  77.9826693  42.0064455
  57.3094194  78.7827053  42.2128344  57.8788052  77.9934638  41.0531899
  51.0613072  79.8155073  29.9286275  51.0383760  79.9142760  28.9768158
  51.3713709  80.6620223  30.2503441  53.7200450  81.8731228  34.0432889
  54.6743704  81.8415170  33.9762821  53.5212974  81.4121851  34.8583115
  54.3099832  80.4432344  36.6103687  55.1292721  80.9376422  36.6338524
  54.5836640  79.5264312  36.5821254  69.8553523  73.5717236  30.7459922
  70.4498014  73.3312972  30.0353230  69.9280107  72.8524367  31.3733458
  52.0750679  87.4150847  31.0603087  51.9405147  86.6551248  30.4941085
  51.6582741  88.1391747  30.5931876  63.2109642  82.5987771  20.0679662
  63.9145492  82.8037773  20.6837318  62.4872291  83.1664532  20.3328746
  64.0407452  78.3497632  26.1881932  63.9842653  78.8066183  25.3489565
  64.5935795  77.5888316  26.0104775  67.8512258  74.1387364  27.0132052
  67.5949192  73.7383999  27.8440260  67.2265126  74.8531158  26.8882191
  55.2319805  88.3120164  31.2721530  55.1152189  89.2565597  31.1700220
  54.4112251  88.0093726  31.6607329  65.1196339  83.0370300  22.1178122
  65.9541943  82.6051498  21.9355597  64.9580682  82.8652313  23.0455017
  64.7742231  79.5402413  23.4834462  64.7191035  79.3746685  22.5422906
  64.1488287  80.2478446  23.6396651  49.5634746  74.7770477  37.3095884
  50.2093610  74.2669431  37.7983109  49.3551897  75.5139159  37.8839309
  62.0888139  81.8451325  42.8088024  62.9579298  82.0191977  42.4474659
  61.6094890  82.6645742  42.6863754  58.0838357  69.0410522  23.0619780
  58.0717027  69.9852362  23.2188051  58.9761779  68.8580668  22.7679241
  56.2574319  88.9648426  34.4877458  57.1601565  88.9972036  34.8043953
  56.0311689  88.0348877  34.5023794  58.0127921  87.7179413  31.1487537
  57.0623552  87.7181274  31.0351909  58.3160407  86.9712147  30.6323571
  53.9032237  71.9238095  41.4070898  54.7663699  71.5674899  41.6174223
  53.3297648  71.5851989  42.0946302  73.7480614  93.5539951  32.2133299
  74.3859024  93.4346698  31.5096639  73.6301457  94.5020795  32.2721251
  70.5570321  93.5067379  32.1494824  70.2188832  93.3908444  31.2615359
  71.4260089  93.1058544  32.1295830  66.4157136  95.3602855  28.1391715
  65.8522001  95.2692792  27.3708003  66.3009531  94.5402760  28.6194207
  71.0390104  94.6602231  38.1081029  71.0278744  94.2655029  37.2361533
  71.2010743  93.9268303  38.7014801  63.9621568  96.8554047  30.9775935
  64.7542860  96.5144872  30.5622235  64.2018218  96.9649022  31.8978089
  71.9956695  99.0273823  23.4506180  71.3444675  99.6127904  23.0640193
  72.7901058  99.5580018  23.5101217  65.9212322  96.1162960  23.8493314
  66.6943198  95.5691947  23.7106190  66.2737721  96.9807210  24.0607775
  67.7597365  97.4439343  37.0560213  67.4687231  98.3484973  36.9406880
  68.3954349  97.4855870  37.7704283  68.6853572  94.8216191  33.6461573
  69.2817144  94.5972213  32.9318536  68.7428543  94.0800937  34.2487021
  68.2578600  92.2755626  21.4811764  68.5104121  91.7537148  20.7195227
  67.3203159  92.1121772  21.5838448  73.3021883  91.2791405  29.2886507
  74.0884972  90.8610828  28.9376924  73.5660587  92.1837497  29.4568156
  73.4731960  96.7164255  23.9875164  72.8377793  96.7898882  24.6996069
  73.1429367  97.3057854  23.3094243  78.7030310  91.2166638  30.1919486
  79.4355482  90.6465855  30.4257315  77.9469666  90.8288238  30.6325991
  67.9774889  94.1783732  23.6836139  67.8611147  93.5028636  24.3517223
  68.0877149  93.6916106  22.8668292  70.3206430  93.6393879  27.3882828
  69.9564637  93.1124500  28.0995750  71.1773546  93.2492349  27.2149314
  69.9611917  88.6683779  22.3844177  70.1286319  89.5364016  22.7514648
  69.7709086  88.8311061  21.4605466  72.7187250  97.1300758  34.0510007
  72.4187973  98.0325797  33.9425814  72.3738309  96.8632941  34.9031160
  66.1699731  93.5814555  30.0846711  65.2450228  93.4490769  30.2924403
  66.4184144  94.3608774  30.5816654  76.1184394  89.6483298  31.7307444
  75.2101271  89.5798707  31.4366205  76.0671989  90.1255243  32.5589270
  69.9401137  91.1241437  23.3690843  69.8200763  91.5698487  24.2076324
  69.2453726  91.4726754  22.8104382  63.5308542  93.2247828  30.9190501
  63.6600923  93.4782307  31.8329912  62.8505994  93.8175536  30.5995156
  67.7008030 103.8945078  27.0180975  67.6232059 104.8452903  27.0969455
  67.0969673 103.5490951  27.6755901  70.1925259  91.0672944  39.6742342
  69.4158593  91.6266864  39.6645206  70.8315822  91.5529727  40.1957212
  77.9846040  87.8499737  33.5085318  77.3420420  88.1432270  32.8625113
  77.4800968  87.7352657  34.3138515  75.6386204  91.5962910  24.1971178
  76.5504060  91.8290297  24.0218875  75.1295851  92.1799954  23.6346256
  68.4471632  93.8758397  39.2360309  69.1886316  94.4143441  38.9595132
  67.7408617  94.5024686  39.3931860  73.9226971  96.0187538  37.8332470
  74.3310327  95.5769948  37.0887102  73.2004233  95.4440165  38.0866663
  70.2758041  90.9560144  35.2066027  71.1219237  91.3799558  35.3500676
  70.2156679  90.2993769  35.9004590  74.2455786  96.5788728  31.5884759
  73.6164648  96.7434442  30.8860827  73.8581448  96.9930338  32.3595723
  78.1245018  97.5143166  28.9429123  77.4396056  97.8942067  28.3926156
  78.2088867  98.1238493  29.6761070  73.4257487  88.6164513  36.8647201
  73.1818419  89.3706573  36.3281476  73.7017417  88.9949860  37.6994448
  75.3795949  95.1603125  35.5424466  75.5912845  95.8034885  34.8658847
  75.3325698  94.3265442  35.0746396  72.9822178  87.7720946  32.4461038
  72.1206657  88.0702199  32.7377776  73.0084613  87.9891345  31.5142071
  69.7983748  96.3163136  28.8534844  70.2622093  96.5950839  28.0639467
  69.5340546  95.4146581  28.6707935  66.6907829  95.8634618  31.7914607
  67.2609186  96.2921886  31.1532092  67.2815941  95.5817203  32.4898793
  68.7352634  92.4386289  25.6624409  69.4376677  92.8907332  26.1298336
  68.4033262  91.7970108  26.2904302  67.1832995  91.0298045  40.0375619
  66.5531656  91.7114326  40.2711015  67.0769083  90.9181127  39.0928757
  62.4777968  90.6969841  30.9641543  61.6877022  90.9527370  30.4881653
  62.9689215  91.5118179  31.0693583  76.4941777  98.0375081  33.7146824
  77.3159221  97.6355268  33.4329505  76.4904180  97.9343315  34.6662939
  64.4292713  91.0614421  27.9225019  63.6323876  91.1733115  28.4408515
  64.2018305  91.4001073  27.0565910  70.2598381  97.5859124  35.8707534
  70.3242813  98.0479531  36.7065706  69.5509305  96.9556489  35.9989844
  60.7615671  90.9500332  33.3956534  61.0123709  91.8347342  33.6614110
  61.2975219  90.7704933  32.6231625  84.5847770  94.3813829  30.0631795
  83.8311479  93.8121227  29.9075799  84.7195312  94.3476494  31.0102430
  69.9746398  99.2527231  25.7386514  69.8392073 100.0978767  26.1671362
  70.5156211  99.4546509  24.9752448  66.4613738  85.3318811  42.4000870
  66.0680684  84.7785010  43.0748514  67.2779878  85.6429390  42.7907387
  63.4275796  96.7702669  26.3114440  63.9400316  97.5645920  26.4620004
  64.0798509  96.0728960  26.2448041  65.2370681  99.8868426  28.3937193
  65.4137309 100.8086390  28.2058177  66.0327514  99.5726845  28.8231572
  69.3781699  86.7476690  39.9921126  70.1191412  87.3483843  39.9125589
  69.6099622  86.0054328  39.4339169  64.5223037  91.9333058  38.2699356
  64.4076552  91.0318315  38.5706455  63.6667555  92.1796754  37.9184172
  71.6014875  99.8750798  39.8686857  71.1578729  99.0887176  39.5507761
  72.2632088 100.0629948  39.2030747  66.3601996 101.4046599  34.3947535
  66.9109421 101.2763663  33.6224529  65.5213472 101.7041488  34.0442428
  73.6996113 100.1553598  37.8968258  73.6814588 100.9762479  37.4048527
  74.6216033 100.0307673  38.1218399  70.1569167  97.6697727  38.7391766
  70.6897504  96.9086015  38.5091074  69.6283248  97.3771379  39.4815921
  73.3238862  82.7757793  34.2685408  72.9803131  83.6659435  34.1924518
  73.6917825  82.5859451  33.4054993  61.3924713  95.0991324  27.0874010
  62.2299935  95.5088332  26.8707718  61.5702980  94.1590766  27.0574204
  73.2889145  92.7666404  22.7757843  72.7735768  93.5371009  23.0146230
  73.0166453  92.0931541  23.3990904  70.8736256  87.6116105  27.8343081
  70.0177852  87.2222956  27.6548720  71.2863208  87.6908066  26.9742867
  72.4035402  85.1462448  32.2334641  71.9000198  85.1092584  31.4202446
  72.6966009  86.0555191  32.2931298  68.6478288  85.2301178  31.2400823
  69.5131285  85.0343987  30.8806712  68.7155797  85.0011530  32.1670180
  78.2623419  95.5198759  24.7111016  77.4852862  95.1809918  24.2666179
  78.9414900  95.5251382  24.0365982  73.0775448  90.6393496  24.6017624
  72.7725584  90.9539646  25.4527767  74.0305890  90.7174916  24.6444957
  71.5221880  96.7983720  26.2510578  70.9943241  96.0636479  25.9383816
  71.0209383  97.5758396  26.0050546  76.5014726  94.9932740  31.3677624
  75.8438400  95.6832002  31.4557753  77.3055125  95.3829172  31.7111611
  66.2540607  87.4603386  28.6117190  66.8284359  87.2378568  27.8790383
  66.8411590  87.5292081  29.3645791  75.3120185  93.3477113  29.4181566
  75.8252066  93.9807105  29.9203276  75.9621408  92.7478308  29.0524926
  66.5810195  89.4907847  22.6313075  65.7447507  89.8282534  22.9522350
  66.4414964  89.3556827  21.6940212  68.5563275  84.3344635  27.3392259
  67.9027687  84.0193652  26.7148874  68.5143749  83.7120375  28.0652082
  69.6674480  94.6163930  19.2545551  68.7601542  94.3853183  19.4536700
  70.1645512  93.8201549  19.4419533  72.5742559 103.3261437  22.1742237
  71.9004258 103.6293134  22.7827195  72.9608381 104.1290518  21.8247694
  71.7901015  90.8226568  31.6639907  70.8723577  91.0441515  31.5061595
  72.2061159  90.8972879  30.8051614  72.5736063  92.2217984  26.7942587
  73.3207882  92.7339381  26.4849709  72.8427653  91.9002037  27.6546981
  70.8462713  94.7176525  23.7769541  69.9373933  94.4335558  23.8742011
  70.8757797  95.1375603  22.9172848  76.0781981  98.3283114  27.5460709
  75.6244308  97.4874024  27.6025899  75.4475948  98.9644513  27.8835489
  75.0214900  89.2575100  28.7761376  74.2837657  88.7452487  29.1071619
  75.2741674  88.8175482  27.9644653  74.5214920 100.1659611  28.4810527
  74.8137894 100.7264668  27.7622893  75.0313541 100.4588172  29.2363686
  61.4150884  92.4382039  27.7584743  61.2175284  91.8451400  27.0335810
  60.8597548  92.1334249  28.4760682  69.3947607  92.3305145  29.8779337
  69.4496217  91.3778982  29.8021813  68.5838809  92.4864585  30.3620635
  70.5438801  96.2585269  21.1157620  70.1058231  95.5421127  20.6563257
  71.2849242  96.4861383  20.5542711  67.3339967  90.9482205  27.6369716
  66.5207833  91.2476376  28.0434908  67.8298962  90.5537894  28.3544198
  69.4848545 100.9439962  29.5703980  69.4424724 101.1700808  28.6412512
  70.4011244 100.7103337  29.7189781  72.9314179  91.4124030  36.4684609
  73.2863567  91.6395503  37.3279075  73.5786310  91.7442406  35.8461865
  78.6611916  94.5342466  27.1733938  78.5229815  94.7244062  26.2455128
  78.3048135  95.2961848  27.6301990  66.8254042  88.5200561  33.2530950
  67.4653421  88.3789320  32.5553914  65.9931573  88.2335074  32.8769552
  78.6881296  96.6018993  32.1845210  79.1217802  96.5094282  33.0328264
  79.4012876  96.5776493  31.5465226  67.6014346  97.8202991  29.3665943
  68.3954945  97.3253311  29.1648518  66.8906038  97.2920854  29.0033648
  72.4209191 100.2021087  33.7178311  72.4746213 100.7712023  34.4856026
  71.5523972 100.3722972  33.3532348  63.9097110  91.9646073  25.4425696
  62.9794698  91.9030528  25.6595658  64.0054581  91.4422026  24.6462337
  63.8282659  88.4900886  28.0303937  64.0889476  89.4046219  27.9213098
  64.6499831  88.0225328  28.1800550  65.3007584  89.9038643  35.2002762
  65.9730637  89.6956005  34.5515411  64.4737370  89.7060729  34.7607994
  79.5496845  96.6442693  34.7178095  79.7432735  97.5488504  34.9637370
  79.4497463  96.1850112  35.5516680  71.2033156  86.5300584  37.2168423
  70.5561071  87.2290533  37.1232899  71.9734171  86.9636728  37.5844671
  74.6111954  96.7949436  40.2918976  74.4597460  96.5659988  39.3749060
  74.6016633  97.7520037  40.3050321  71.3797290  94.3681349  35.2765242
  72.3089350  94.5192508  35.1034210  70.9588320  94.4565370  34.4213889
  70.1785622  98.3932013  33.0463780  70.0396708  98.0250798  33.9189718
  69.3900218  98.9079653  32.8747738  70.7733774 103.4941110  24.3889317
  70.9485530 103.0229153  25.2034939  70.0866562 104.1206876  24.6170577
  71.7290837  97.7713616  30.4352618  71.3940670  97.7314386  31.3310268
  71.2294783  97.1058332  29.9623028  65.7035081  93.1781246  35.9605199
  65.5654879  92.4461485  36.5616738  66.6140005  93.0890146  35.6789387
  74.6650029  95.1169650  20.7089677  74.0479199  94.3916478  20.6122730
  74.1966517  95.8779010  20.3656752  68.3317382  92.8901205  35.4488879
  69.0417000  92.2494397  35.4075497  68.2886690  93.1414100  36.3715059
  76.3204160  99.8268559  38.3695458  76.2616707  99.1427779  37.7026041
  76.7223679 100.5687549  37.9176084  67.0446316  89.8766423  37.2684518
  66.5083673  89.4257162  37.9206114  66.4563024  90.0112332  36.5254982
  65.3394859 106.6430472  31.1629177  65.5791458 107.2748997  31.8408195
  64.4964056 106.2918512  31.4494536  66.4548575  89.3355075  19.8310982
  65.5778041  89.2143875  19.4673228  66.9306328  88.5441153  19.5789870
  76.3221568  97.7908142  36.6009437  75.4348347  97.4534064  36.7235836
  76.8920119  97.0591174  36.8378203  57.9750715  94.1232234  29.9252489
  58.6621755  93.8093964  29.3373504  57.8198844  95.0273599  29.6519740
  62.7785437  89.0122431  34.3537513  62.6943626  88.4048100  33.6187923
  61.9568143  89.5031449  34.3547009  69.8522721 102.4509595  33.5670681
  69.7792893 103.2564566  34.0789985  69.4100114 102.6501561  32.7418702
  69.6412501 101.6881365  27.0773502  68.8580023 102.2303045  27.1711727
  70.3405246 102.2055345  27.4767743  72.9509151  87.4975994  29.7207708
  73.4477850  86.7445957  29.4008778  72.1796132  87.5340311  29.1550917
  80.8038908  93.2016360  31.3625999  80.7928785  94.0841075  30.9919932
  79.9356288  92.8487911  31.1680536  72.3121405 102.3496429  35.7228839
  73.0249377 102.9843894  35.6504741  71.8211433 102.4460295  34.9068841
  74.0338932  96.2547682  27.2946131  73.0995210  96.3749144  27.1250835
  74.2115600  95.3520148  27.0306141  69.5344120  89.6393377  29.4479392
  69.1641907  89.0864418  30.1360298  70.0303212  89.0351511  28.8954392
  77.4211483  92.0965001  27.8296165  77.8871935  92.9292992  27.7556468
  77.8718983  91.6309982  28.5341424  67.3633318 100.0990872  36.5434410
  68.0642778 100.7327355  36.6963804  66.8928433 100.4405604  35.7830049
  75.4887714  98.4408822  24.8282317  75.7647558  98.3265417  25.7376191
  74.6192213  98.0426307  24.7894490  75.1634604  92.6535480  34.3686961
  74.5106054  92.9011387  33.7139413  75.5414984  91.8399618  34.0349438
  72.1241778 102.6895173  28.4715131  72.3064173 101.8716829  28.9342883
  72.9474764 102.9062865  28.0340021  72.4583944 101.6163358  25.7330179
  72.9871710 101.1055813  25.1200341  72.7212163 101.3005888  26.5975712
  71.2122177  93.3955291  40.8552998  70.5362814  93.2949420  41.5255373
  72.0349811  93.2394505  41.3188995  62.9601036  99.6327227  33.4765513
  63.5454473  98.8870915  33.6093417  62.7625875  99.9431184  34.3602177
  65.8139691 102.6678475  28.4927955  65.1450067 103.1524602  28.0091995
  65.6752561 102.9147695  29.4071334  57.5518691  92.2032828  32.1969956
  57.5902791  91.6696418  32.9907074  57.0458984  91.6768033  31.5780933
  69.9544960 104.7022218  35.0910614  70.5063268 104.8653840  35.8559699
  70.2951154 105.2926656  34.4190638  64.9309453  87.0497368  35.6932498
  64.9950780  87.9112199  35.2809896  64.8676574  86.4371370  34.9604857
  64.4061726  89.1220501  39.3405533  65.0333765  88.7397578  39.9543057
  63.5489645  88.9034703  39.7061225  74.8055834  99.5283476  40.9459268
  75.3495738 100.1413434  40.4514223  74.2242679 100.0863054  41.4626281
  61.1827269  90.9296930  25.2723887  61.4780710  90.0207608  25.2190941
  60.2815304  90.9084669  24.9504890  73.0913347 102.6504194  32.0774296
  72.9664487 101.8493934  31.5685241  73.7492438 103.1450387  31.5888266
  64.7121516  89.0052926  31.2551436  63.9908101  89.6188894  31.1158909
  65.5014771  89.5410691  31.1768082  75.1548256 100.4513214  33.7053846
  74.2078591 100.3318565  33.6332173  75.5031029  99.5635712  33.7880107
  67.5147829  86.3407353  37.5292088  68.0382231  86.5869649  38.2918397
  67.2960162  87.1727388  37.1095225  62.9115110  88.6111027  25.3963213
  62.5827816  87.7308406  25.2138318  63.2654481  88.5558696  26.2839602
  72.1594689 100.2465930  29.9058198  72.0119651  99.3182638  30.0865768
  72.9848183 100.2686021  29.4215273  66.0256933  88.8983997  25.7638690
  66.3653006  89.4269918  25.0417299  66.4729054  89.2364403  26.5397257
  75.7628811 101.0694489  30.9923071  76.6875358 100.8637350  30.8547522
  75.5944114 100.8210890  31.9012412  68.7200374  87.2821048  35.2141758
  68.3797195  86.4828861  35.6162438  68.0139380  87.5822759  34.6418591
  69.3716846  84.3670360  33.6669081  70.1942915  83.8930839  33.5447972
  69.6154910  85.1460844  34.1667768  68.0125080  87.3958619  23.9631983
  68.7333443  87.7739872  23.4595700  67.3890385  88.1147496  24.0666961
  72.1556203  88.1003768  24.8990315  72.3719818  88.9828406  24.5979143
  71.6750270  87.7089981  24.1695957  66.8955425  91.0589481  31.4761060
  66.7500005  91.3729784  32.3685341  66.4180628  91.6774381  30.9231959
  68.7551808  88.0492029  31.5241949  68.7413376  87.1533122  31.1874247
  69.4724236  88.0562693  32.1580236  70.6077938  88.4829369  33.5695077
  70.3495716  89.4046440  33.5679407  70.0762979  88.0859804  34.2595541
  75.5524127 101.5880156  26.3485162  75.7261005 101.0226579  25.5959015
  76.0453018 102.3881051  26.1664652  61.3701087  93.5994825  34.4148721
  60.8254555  94.3754633  34.5468995  62.2480437  93.9465630  34.2567843
  68.1588704  86.9306409  26.7929520  68.2804615  86.0023055  26.9920407
  67.8690746  86.9445095  25.8807835  71.0279894  84.6161320  29.9296239
  71.0501591  84.6800653  28.9748219  71.4447953  83.7765828  30.1236746
  81.4063518  94.3516579  27.9675462  81.8494664  93.6023904  27.5694585
  80.5290029  94.3426716  27.5849194  76.5399300 100.9046921  23.4482061
  77.2350204 101.5253613  23.6669375  76.8822450 100.0542272  23.7234438
  62.1567109  92.7264722  37.3078878  61.4148845  92.8747357  37.8943508
  61.8359853  92.9872987  36.4445627  78.4390723  98.3546626  24.9769391
  78.9642047  98.6933899  24.2518711  78.3513075  97.4193642  24.7932526
  70.1010771 102.2680700  37.1059268  70.4097898 102.0229847  37.9781968
  70.8986253 102.4727338  36.6178138  70.1231383 104.4218610  29.3364645
  69.6836374 103.9294988  30.0297501  70.8739500 103.8791577  29.0956720
  62.6023722 100.6130150  29.3389273  63.4281742 100.3133922  28.9587916
  62.2517774  99.8437773  29.7879061  67.5705256  99.9656619  31.4086946
  66.9485265  99.3027324  31.1089174  68.2410122  99.9917750  30.7260594
  60.8032327  98.5316477  30.2978206  59.9664236  98.1038651  30.1162207
  60.7755973  98.7248920  31.2348997  67.6429783  88.4438407  41.0019452
  67.6917939  89.3200529  40.6197222  68.1852297  87.9015800  40.4291095
  78.1284629  98.9879530  40.2820589  77.3380172  98.9703669  39.7425089
  77.8917983  99.5267824  41.0369626  78.2482504  95.8371996  37.5953318
  78.2980509  95.6722004  38.5368841  78.1396427  94.9699255  37.2051199
  67.1318762  98.5160542  24.8845407  67.2806883  99.1996006  24.2312079
  67.9385206  98.4965632  25.3994862  75.5386266  91.8202924  38.9112625
  76.4396129  91.6809389  38.6196622  75.6134241  91.9857379  39.8510802
  69.8729072  89.1969779  37.7565811  69.0032381  89.4903345  37.4848399
  70.1088552  89.7810224  38.4773074  79.7500701  98.2568938  37.8395339
  79.4585509  98.6198918  38.6758800  79.1372832  97.5435946  37.6608671
  80.9496383  95.8221818  30.3597910  81.7843274  96.2611622  30.5235470
  81.0855512  95.3460471  29.5406155  77.9987889  93.3801552  36.3075397
  78.4742010  93.5729199  35.4994249  77.0753454  93.4360738  36.0618781
  64.8871395  94.5425720  25.8906476  64.6417437  93.6388050  26.0886686
  65.0567310  94.5442870  24.9485954  72.5768105  85.4149396  35.2731231
  73.0950049  86.1510423  34.9477720  72.2223238  85.7213389  36.1077990
  64.1567043  90.2754077  23.3892637  63.4636288  90.3498432  22.7332673
  63.9118795  89.5114421  23.9114154  72.8280700  81.8349678  30.7932128
  73.1082453  81.1672868  31.4192554  73.6131306  82.0278774  30.2806792
  70.6314168 101.0108672  22.3557154  70.0588135 101.6298860  21.9027626
  71.2046962 101.5608034  22.8897076  76.6989558  90.2567312  34.5403703
  77.6506981  90.3565410  34.5615927  76.5293008  89.4645581  35.0501787
  74.7203937  87.3422896  34.7263104  74.1253869  87.6227908  34.0309592
  74.4353634  87.8316797  35.4979845  73.8511428 101.2945823  23.4865736
  74.7842101 101.2291384  23.6898612  73.7634641 102.1302089  23.0280269
  76.4799444 100.6111693  20.4469684  76.4013076 100.2771556  21.3405442
  77.3009111 101.1033461  20.4461156  79.1777636  93.4773432  33.6546003
  79.1453956  92.5389433  33.8405686  79.7878259  93.5557469  32.9211827
  71.0160967  92.3469485  19.6973207  71.9620071  92.2175693  19.7661625
  70.6375211  91.6084147  20.1742635  79.3272124  90.2684476  33.7004286
  78.8111173  89.4842932  33.5134215  80.2112073  89.9403192  33.8650805
  84.9954186  94.5389439  32.7952039  85.7257574  94.2774727  33.3559743
  84.3861131  93.8018161  32.8354107  83.0769483  92.6797302  33.3926491
  82.3502646  92.5453267  32.7842982  82.6616770  92.9874130  34.1983209
  70.8999659  96.3987231  41.1573864  71.8202669  96.5765830  41.3513910
  70.8649242  95.4543277  41.0053563  69.2003884  90.2719462  19.6328092
  68.2935339  89.9752574  19.7090805  69.4779865  89.9749280  18.7662378
  60.1181824  91.5925825  30.0827138  59.7984608  90.7391133  29.7901512
  59.5715252  91.8074403  30.8385106  63.8961732  94.3088266  33.7996645
  64.1147741  95.2405374  33.8184679  64.3087505  93.9496240  34.5851449
  70.8165949  84.8156351  25.7872333  70.0066678  84.4703436  26.1627579
  71.5050366  84.5063895  26.3759945  72.7456498  83.8934398  27.4096630
  73.2987536  84.3129851  28.0686653  72.9826584  82.9670146  27.4519586
  68.7689597  89.8821472  43.1899394  68.6686324  90.8315829  43.1211485
  68.5511139  89.5539711  42.3175464  67.9702668  87.1306397  19.7740071
  68.8321832  87.4561295  20.0335888  68.1553012  86.3437893  19.2613137
  59.9870084  95.2128736  32.0520260  59.2933555  94.7982689  31.5390214
  60.7343075  95.2549273  31.4553679  76.1235305  86.0034923  26.9175294
  75.5433974  86.6619727  26.5353346  75.8571237  85.1812268  26.5062712
  74.5738871  85.4039981  29.1196614  75.0738650  85.5156515  28.3110933
  75.2174479  85.1001034  29.7597423  68.6320867  93.3118611  42.0064455
  68.1487949  94.1118971  42.2128344  68.7181806  93.3226555  41.0531899
  61.9006827  95.1446990  29.9286275  61.8777515  95.2434677  28.9768158
  62.2107463  95.9912141  30.2503441  64.5594204  97.2023145  34.0432889
  65.5137458  97.1707088  33.9762821  64.3606728  96.7413769  34.8583115
  65.1493587  95.7724261  36.6103687  65.9686476  96.2668340  36.6338524
  65.4230394  94.8556229  36.5821254  74.9060183  88.1635014  25.9731642
  74.0186038  88.4484664  25.7551837  75.3214172  88.0028777  25.1258919
  78.2574719  88.1881535  29.6885982  79.0335109  88.6777987  29.9610598
  77.5322853  88.6139589  30.1457851  80.6947278  88.9009154  30.7459922
  81.2891768  88.6604890  30.0353230  80.7673861  88.1816284  31.3733458
  62.9144433 102.7442765  31.0603087  62.7798901 101.9843166  30.4941085
  62.4976496 103.4683665  30.5931876  74.0503396  97.9279688  20.0679662
  74.7539246  98.1329691  20.6837318  73.3266045  98.4956450  20.3328746
  74.8801207  93.6789550  26.1881932  74.8236408  94.1358101  25.3489565
  75.4329549  92.9180234  26.0104775  78.6906012  89.4679281  27.0132052
  78.4342947  89.0675917  27.8440260  78.0658880  90.1823075  26.8882191
  83.0018350  92.2075355  29.5203343  82.4417908  92.2768544  30.2934905
  82.3961854  92.0316339  28.8002840  66.0713559 103.6412082  31.2721530
  65.9545943 104.5857514  31.1700220  65.2506005 103.3385643  31.6607329
  75.9590094  98.3662217  22.1178122  76.7935698  97.9343416  21.9355597
  75.7974437  98.1944231  23.0455017  75.6135986  94.8694331  23.4834462
  75.5584790  94.7038602  22.5422906  74.9882041  95.5770364  23.6396651
  60.4028501  90.1062395  37.3095884  61.0487364  89.5961349  37.7983109
  60.1945652  90.8431077  37.8839309  72.9281893  97.1743243  42.8088024
  73.7973053  97.3483895  42.4474659  72.4488645  97.9937659  42.6863754
  68.9232111  84.3702440  23.0619780  68.9110781  85.3144280  23.2188051
  69.8155533  84.1872585  22.7679241  67.0968073 104.2940344  34.4877458
  67.9995320 104.3263954  34.8043953  66.8705443 103.3640795  34.5023794
  68.8521675 103.0471330  31.1487537  67.9017306 103.0473192  31.0351909
  69.1554161 102.3004065  30.6323571  72.7384231  80.9645216  27.3165717
  71.9716627  80.4103703  27.4622399  73.1494936  81.0367085  28.1779868
  64.7425992  87.2530012  41.4070898  65.6057453  86.8966817  41.6174223
  64.1691402  86.9143907  42.0946302  84.5874369 108.8831869  32.2133299
  85.2252779 108.7638616  31.5096639  84.4695212 109.8312713  32.2721251
  81.3964075 108.8359297  32.1494824  81.0582587 108.7200361  31.2615359
  82.2653843 108.4350462  32.1295830  77.2550891 110.6894773  28.1391715
  76.6915756 110.5984710  27.3708003  77.1403286 109.8694678  28.6194207
  81.8783858 109.9894148  38.1081029  81.8672499 109.5946947  37.2361533
  82.0404498 109.2560221  38.7014801  74.8015323 112.1845965  30.9775935
  75.5936615 111.8436789  30.5622235  75.0411973 112.2940940  31.8978089
  82.8350449 114.3565741  23.4506180  82.1838429 114.9419821  23.0640193
  83.6294812 114.8871936  23.5101217  76.7606077 111.4454878  23.8493314
  77.5336953 110.8983865  23.7106190  77.1131475 112.3099127  24.0607775
  78.5991119 112.7731260  37.0560213  78.3080985 113.6776891  36.9406880
  79.2348104 112.8147788  37.7704283  79.5247326 110.1508109  33.6461573
  80.1210898 109.9264131  32.9318536  79.5822298 109.4092854  34.2487021
  79.0972354 107.6047544  21.4811764  79.3497875 107.0829065  20.7195227
  78.1596914 107.4413690  21.5838448  84.1415637 106.6083322  29.2886507
  84.9278726 106.1902746  28.9376924  84.4054342 107.5129415  29.4568156
  84.3125715 112.0456173  23.9875164  83.6771548 112.1190799  24.6996069
  83.9823121 112.6349772  23.3094243  89.5424064 106.5458556  30.1919486
  90.2749236 105.9757772  30.4257315  88.7863420 106.1580156  30.6325991
  78.8168643 109.5075650  23.6836139  78.7004901 108.8320553  24.3517223
  78.9270903 109.0208024  22.8668292  81.1600184 108.9685797  27.3882828
  80.7958391 108.4416418  28.0995750  82.0167300 108.5784266  27.2149314
  87.0649485 100.2580130  34.6514094  86.7332810 101.1275541  34.4275309
  86.4695098  99.9416414  35.3308125  80.8005671 103.9975697  22.3844177
  80.9680073 104.8655933  22.7514648  80.6102840 104.1602979  21.4605466
  83.5581004 112.4592676  34.0510007  83.2581727 113.3617715  33.9425814
  83.2132064 112.1924859  34.9031160  77.0093486 108.9106473  30.0846711
  76.0843982 108.7782687  30.2924403  77.2577899 109.6900692  30.5816654
  86.9578148 104.9775216  31.7307444  86.0495025 104.9090624  31.4366205
  86.9065744 105.4547161  32.5589270  80.7794892 106.4533354  23.3690843
  80.6594517 106.8990405  24.2076324  80.0847480 106.8018672  22.8104382
  74.3702297 108.5539746  30.9190501  74.4994678 108.8074225  31.8329912
  73.6899748 109.1467454  30.5995156  78.5401784 119.2236996  27.0180975
  78.4625814 120.1744821  27.0969455  77.9363428 118.8782869  27.6755901
  81.0319014 106.3964862  39.6742342  80.2552348 106.9558782  39.6645206
  81.6709577 106.8821644  40.1957212  88.8239794 103.1791654  33.5085318
  88.1814175 103.4724187  32.8625113  88.3194723 103.0644575  34.3138515
  86.4779958 106.9254828  24.1971178  87.3897814 107.1582214  24.0218875
  85.9689605 107.5091872  23.6346256  79.2865386 109.2050315  39.2360309
  80.0280071 109.7435359  38.9595132  78.5802372 109.8316604  39.3931860
  84.7620726 111.3479455  37.8332470  85.1704082 110.9061866  37.0887102
  84.0397987 110.7732083  38.0866663  81.1151796 106.2852062  35.2066027
  81.9612991 106.7091476  35.3500676  81.0550433 105.6285686  35.9004590
  85.0849540 111.9080646  31.5884759  84.4558403 112.0726360  30.8860827
  84.6975203 112.3222256  32.3595723  88.9638772 112.8435084  28.9429123
  88.2789810 113.2233985  28.3926156  89.0482622 113.4530410  29.6761070
  84.2651241 103.9456430  36.8647201  84.0212173 104.6998491  36.3281476
  84.5411172 104.3241778  37.6994448  86.2189704 110.4895043  35.5424466
  86.4306599 111.1326803  34.8658847  86.1719452 109.6557359  35.0746396
  83.8215933 103.1012863  32.4461038  82.9600412 103.3994117  32.7377776
  83.8478368 103.3183262  31.5142071  80.6377502 111.6455054  28.8534844
  81.1015848 111.9242757  28.0639467  80.3734300 110.7438499  28.6707935
  77.5301583 111.1926536  31.7914607  78.1002940 111.6213804  31.1532092
  78.1209695 110.9109120  32.4898793  79.5746388 107.7678206  25.6624409
  80.2770432 108.2199250  26.1298336  79.2427017 107.1262025  26.2904302
  78.0226750 106.3589963  40.0375619  77.3925410 107.0406244  40.2711015
  77.9162838 106.2473045  39.0928757  73.3171722 106.0261759  30.9641543
  72.5270776 106.2819288  30.4881653  73.8082970 106.8410097  31.0693583
  87.3335532 113.3666998  33.7146824  88.1552976 112.9647186  33.4329505
  87.3297935 113.2635232  34.6662939  75.2686468 106.3906338  27.9225019
  74.4717631 106.5025033  28.4408515  75.0412060 106.7292991  27.0565910
  81.0992135 112.9151042  35.8707534  81.1636568 113.3771449  36.7065706
  80.3903059 112.2848406  35.9989844  71.6009425 106.2792250  33.3956534
  71.8517464 107.1639259  33.6614110  72.1368974 106.0996851  32.6231625
  95.4241525 109.7105747  30.0631795  94.6705233 109.1413145  29.9075799
  95.5589066 109.6768411  31.0102430  80.8140153 114.5819149  25.7386514
  80.6785828 115.4270685  26.1671362  81.3549965 114.7838427  24.9752448
  77.3007493 100.6610729  42.4000870  76.9074438 100.1076927  43.0748514
  78.1173633 100.9721307  42.7907387  74.2669550 112.0994587  26.3114440
  74.7794071 112.8937837  26.4620004  74.9192263 111.4020878  26.2448041
  76.0764435 115.2160343  28.3937193  76.2531063 116.1378308  28.2058177
  76.8721269 114.9018763  28.8231572  80.2175454 102.0768608  39.9921126
  80.9585167 102.6775761  39.9125589  80.4493376 101.3346246  39.4339169
  75.3616792 107.2624975  38.2699356  75.2470307 106.3610232  38.5706455
  74.5061309 107.5088672  37.9184172  82.4408629 115.2042716  39.8686857
  81.9972484 114.4179094  39.5507761  83.1025843 115.3921866  39.2030747
  77.1995751 116.7338517  34.3947535  77.7503176 116.6055580  33.6224529
  76.3607226 117.0333406  34.0442428  84.5389867 115.4845515  37.8968258
  84.5208343 116.3054397  37.4048527  85.4609787 115.3599591  38.1218399
  80.9962922 112.9989645  38.7391766  81.5291258 112.2377933  38.5091074
  80.4677003 112.7063297  39.4815921  84.1632617  98.1049711  34.2685408
  83.8196886  98.9951353  34.1924518  84.5311579  97.9151369  33.4054993
  72.2318467 110.4283241  27.0874010  73.0693689 110.8380250  26.8707718
  72.4096735 109.4882684  27.0574204  84.1282899 108.0958322  22.7757843
  83.6129523 108.8662927  23.0146230  83.8560208 107.4223458  23.3990904
  81.7130010 102.9408023  27.8343081  80.8571607 102.5514873  27.6548720
  82.1256962 103.0199984  26.9742867  83.2429157 100.4754366  32.2334641
  82.7393953 100.4384501  31.4202446  83.5359764 101.3847109  32.2931298
  79.4872043 100.5593096  31.2400823  80.3525040 100.3635904  30.8806712
  79.5549552 100.3303448  32.1670180  89.1017173 110.8490677  24.7111016
  88.3246616 110.5101836  24.2666179  89.7808654 110.8543300  24.0365982
  83.9169202 105.9685414  24.6017624  83.6119338 106.2831563  25.4527767
  84.8699645 106.0466834  24.6444957  82.3615634 112.1275637  26.2510578
  81.8336996 111.3928397  25.9383816  81.8603137 112.9050314  26.0050546
  87.3408480 110.3224658  31.3677624  86.6832155 111.0123919  31.4557753
  88.1448880 110.7121090  31.7111611  77.0934362 102.7895304  28.6117190
  77.6678114 102.5670485  27.8790383  77.6805344 102.8583998  29.3645791
  86.1513939 108.6769031  29.4181566  86.6645821 109.3099022  29.9203276
  86.8015163 108.0770226  29.0524926  77.4203949 104.8199765  22.6313075
  76.5841261 105.1574451  22.9522350  77.2808719 104.6848745  21.6940212
  79.3957030  99.6636553  27.3392259  78.7421442  99.3485570  26.7148874
  79.3537504  99.0412293  28.0652082  80.5068234 109.9455848  19.2545551
  79.5995296 109.7145101  19.4536700  81.0039266 109.1493467  19.4419533
  83.4136313 118.6553355  22.1742237  82.7398012 118.9585052  22.7827195
  83.8002135 119.4582435  21.8247694  82.6294770 106.1518486  31.6639907
  81.7117331 106.3733433  31.5061595  83.0454914 106.2264797  30.8051614
  83.4129818 107.5509902  26.7942587  84.1601637 108.0631299  26.4849709
  83.6821407 107.2293955  27.6546981  81.6856468 110.0468443  23.7769541
  80.7767687 109.7627475  23.8742011  81.7151552 110.4667521  22.9172848
  86.9175735 113.6575032  27.5460709  86.4638062 112.8165942  27.6025899
  86.2869702 114.2936430  27.8835489  85.8608655 104.5867018  28.7761376
  85.1231412 104.0744404  29.1071619  86.1135428 104.1467400  27.9644653
  85.3608675 115.4951529  28.4810527  85.6531649 116.0556586  27.7622893
  85.8707295 115.7880090  29.2363686  85.9620282  97.3643270  29.3703146
  86.2679159  96.5040634  29.0829061  86.6872887  97.9560890  29.1702139
  72.2544638 107.7673957  27.7584743  72.0569038 107.1743317  27.0335810
  71.6991302 107.4626167  28.4760682  80.2341362 107.6597063  29.8779337
  80.2889972 106.7070900  29.8021813  79.4232564 107.8156502  30.3620635
  81.3832556 111.5877186  21.1157620  80.9451986 110.8713045  20.6563257
  82.1242997 111.8153301  20.5542711  78.1733722 106.2774123  27.6369716
  77.3601587 106.5768293  28.0434908  78.6692716 105.8829812  28.3544198
  80.3242300 116.2731880  29.5703980  80.2818479 116.4992726  28.6412512
  81.2404999 116.0395254  29.7189781  83.7707934 106.7415947  36.4684609
  84.1257321 106.9687421  37.3279075  84.4180065 107.0734324  35.8461865
  89.5005670 109.8634383  27.1733938  89.3623569 110.0535979  26.2455128
  89.1441889 110.6253766  27.6301990  77.6647797 103.8492478  33.2530950
  78.3047176 103.7081238  32.5553914  76.8325327 103.5626992  32.8769552
  89.5275050 111.9310910  32.1845210  89.9611557 111.8386199  33.0328264
  90.2406631 111.9068411  31.5465226  78.4408101 113.1494909  29.3665943
  79.2348699 112.6545229  29.1648518  77.7299793 112.6212772  29.0033648
  83.2602945 115.5313004  33.7178311  83.3139967 116.1003941  34.4856026
  82.3917726 115.7014889  33.3532348  74.7490864 107.2937991  25.4425696
  73.8188452 107.2322446  25.6595658  74.8448336 106.7713943  24.6462337
  74.6676413 103.8192803  28.0303937  74.9283230 104.7338137  27.9213098
  75.4893585 103.3517246  28.1800550  76.1401338 105.2330561  35.2002762
  76.8124392 105.0247923  34.5515411  75.3131125 105.0352647  34.7607994
  90.3890600 111.9734611  34.7178095  90.5826490 112.8780421  34.9637370
  90.2891218 111.5142030  35.5516680  82.0426910 101.8592502  37.2168423
  81.3954825 102.5582451  37.1232899  82.8127926 102.2928645  37.5844671
  85.4505708 112.1241354  40.2918976  85.2991215 111.8951905  39.3749060
  85.4410388 113.0811955  40.3050321  82.2191045 109.6973266  35.2765242
  83.1483105 109.8484426  35.1034210  81.7982075 109.7857287  34.4213889
  81.0179377 113.7223931  33.0463780  80.8790462 113.3542715  33.9189718
  80.2293973 114.2371570  32.8747738  81.6127528 118.8233027  24.3889317
  81.7879284 118.3521071  25.2034939  80.9260317 119.4498794  24.6170577
  82.5684592 113.1005534  30.4352618  82.2334424 113.0606304  31.3310268
  82.0688537 112.4350249  29.9623028  76.5428836 108.5073164  35.9605199
  76.4048634 107.7753402  36.5616738  77.4533759 108.4182064  35.6789387
  85.5043783 110.4461568  20.7089677  84.8872954 109.7208396  20.6122730
  85.0360272 111.2070928  20.3656752  79.1711136 108.2193123  35.4488879
  79.8810755 107.5786315  35.4075497  79.1280444 108.4706018  36.3715059
  87.1597915 115.1560476  38.3695458  87.1010461 114.4719696  37.7026041
  87.5617433 115.8979466  37.9176084  77.8840070 105.2058341  37.2684518
  77.3477427 104.7549079  37.9206114  77.2956779 105.3404250  36.5254982
  76.1788614 121.9722390  31.1629177  76.4185212 122.6040914  31.8408195
  75.3357810 121.6210430  31.4494536  77.2942329 104.6646992  19.8310982
  76.4171796 104.5435793  19.4673228  77.7700082 103.8733070  19.5789870
  87.1615322 113.1200060  36.6009437  86.2742101 112.7825982  36.7235836
  87.7313873 112.3883091  36.8378203  68.8144469 109.4524152  29.9252489
  69.5015509 109.1385882  29.3373504  68.6592598 110.3565517  29.6519740
  73.6179192 104.3414348  34.3537513  73.5337380 103.7340018  33.6187923
  72.7961898 104.8323367  34.3547009  80.6916476 117.7801513  33.5670681
  80.6186647 118.5856484  34.0789985  80.2493869 117.9793478  32.7418702
  80.4806255 117.0173283  27.0773502  79.6973777 117.5594963  27.1711727
  81.1799000 117.5347262  27.4767743  83.7902905 102.8267912  29.7207708
  84.2871605 102.0737874  29.4008778  83.0189887 102.8632229  29.1550917
  91.6432663 108.5308278  31.3625999  91.6322539 109.4132993  30.9919932
  90.7750042 108.1779828  31.1680536  83.1515159 117.6788347  35.7228839
  83.8643131 118.3135811  35.6504741  82.6605188 117.7752213  34.9068841
  84.8732686 111.5839599  27.2946131  83.9388965 111.7041062  27.1250835
  85.0509355 110.6812066  27.0306141  80.3737874 104.9685295  29.4479392
  80.0035662 104.4156335  30.1360298  80.8696967 104.3643428  28.8954392
  88.2605237 107.4256919  27.8296165  88.7265690 108.2584910  27.7556468
  88.7112738 106.9601900  28.5341424  78.2027073 115.4282790  36.5434410
  78.9036532 116.0619273  36.6963804  77.7322188 115.7697522  35.7830049
  86.3281469 113.7700740  24.8282317  86.6041312 113.6557334  25.7376191
  85.4585967 113.3718225  24.7894490  86.2321900  99.7937505  31.8687066
  85.3184980 100.0241732  32.0369273  86.6615002  99.8775950  32.7201099
  86.0028359 107.9827397  34.3686961  85.3499809 108.2303305  33.7139413
  86.3808739 107.1691536  34.0349438  82.9635533 118.0187091  28.4715131
  83.1457927 117.2008747  28.9342883  83.7868519 118.2354783  28.0340021
  83.2977698 116.9455276  25.7330179  83.8265464 116.4347730  25.1200341
  83.5605918 116.6297806  26.5975712  82.0515932 108.7247209  40.8552998
  81.3756569 108.6241338  41.5255373  82.8743566 108.5686422  41.3188995
  73.7994791 114.9619145  33.4765513  74.3848228 114.2162833  33.6093417
  73.6019629 115.2723102  34.3602177  76.6533446 117.9970392  28.4927955
  75.9843821 118.4816520  28.0091995  76.5146316 118.2439613  29.4071334
  68.3912445 107.5324745  32.1969956  68.4296545 106.9988336  32.9907074
  67.8852738 107.0059951  31.5780933  80.7938715 120.0314136  35.0910614
  81.3457023 120.1945757  35.8559699  81.1344908 120.6218574  34.4190638
  75.7703208 102.3789286  35.6932498  75.8344534 103.2404117  35.2809896
  75.7070328 101.7663287  34.9604857  75.2455480 104.4512418  39.3405533
  75.8727519 104.0689496  39.9543057  74.3883399 104.2326620  39.7061225
  85.6449589 114.8575393  40.9459268  86.1889493 115.4705352  40.4514223
  85.0636434 115.4154972  41.4626281  72.0221023 106.2588847  25.2723887
  72.3174464 105.3499526  25.2190941  71.1209059 106.2376587  24.9504890
  83.9307102 117.9796111  32.0774296  83.8058241 117.1785851  31.5685241
  84.5886193 118.4742305  31.5888266  75.5515270 104.3344844  31.2551436
  74.8301856 104.9480812  31.1158909  76.3408526 104.8702609  31.1768082
  85.9942010 115.7805132  33.7053846  85.0472346 115.6610483  33.6332173
  86.3424783 114.8927630  33.7880107  78.3541584 101.6699271  37.5292088
  78.8775985 101.9161567  38.2918397  78.1353917 102.5019305  37.1095225
  73.7508865 103.9402945  25.3963213  73.4221571 103.0600324  25.2138318
  74.1048235 103.8850614  26.2839602  82.9988444 115.5757848  29.9058198
  82.8513406 114.6474555  30.0865768  83.8241937 115.5977939  29.4215273
  76.8650688 104.2275915  25.7638690  77.2046760 104.7561836  25.0417299
  77.3122808 104.5656321  26.5397257  86.6022565 116.3986407  30.9923071
  87.5269113 116.1929268  30.8547522  86.4337869 116.1502808  31.9012412
  79.5594129 102.6112966  35.2141758  79.2190949 101.8120779  35.6162438
  78.8533135 102.9114676  34.6418591  80.2110600  99.6962278  33.6669081
  81.0336670  99.2222756  33.5447972  80.4548664 100.4752762  34.1667768
  78.8518835 102.7250536  23.9631983  79.5727197 103.1031789  23.4595700
  78.2284139 103.4439413  24.0666961  82.9949958 103.4295685  24.8990315
  83.2113572 104.3120323  24.5979143  82.5144025 103.0381899  24.1695957
  77.7349179 106.3881399  31.4761060  77.5893760 106.7021702  32.3685341
  77.2574383 107.0066299  30.9231959  79.5945562 103.3783947  31.5241949
  79.5807131 102.4825040  31.1874247  80.3117990 103.3854610  32.1580236
  81.4471693 103.8121287  33.5695077  81.1889471 104.7338358  33.5679407
  80.9156733 103.4151721  34.2595541  86.3917882 116.9172074  26.3485162
  86.5654759 116.3518496  25.5959015  86.8846773 117.7172969  26.1664652
  72.2094841 108.9286743  34.4148721  71.6648309 109.7046551  34.5468995
  73.0874191 109.2757548  34.2567843  78.9982458 102.2598327  26.7929520
  79.1198369 101.3314973  26.9920407  78.7084500 102.2737013  25.8807835
  81.8673648  99.9453237  29.9296239  81.8895345 100.0092570  28.9748219
  82.2841707  99.1057746  30.1236746  92.2457273 109.6808497  27.9675462
  92.6888419 108.9315822  27.5694585  91.3683783 109.6718633  27.5849194
  87.3793054 116.2338838  23.4482061  88.0743959 116.8545531  23.6669375
  87.7216204 115.3834190  23.7234438  72.9960863 108.0556639  37.3078878
  72.2542599 108.2039275  37.8943508  72.6753608 108.3164905  36.4445627
  89.2784477 113.6838544  24.9769391  89.8035801 114.0225817  24.2518711
  89.1906830 112.7485559  24.7932526  80.9404526 117.5972618  37.1059268
  81.2491652 117.3521764  37.9781968  81.7380008 117.8019256  36.6178138
  80.9625138 119.7510527  29.3364645  80.5230128 119.2586906  30.0297501
  81.7133255 119.2083495  29.0956720  73.4417477 115.9422068  29.3389273
  74.2675497 115.6425840  28.9587916  73.0911529 115.1729690  29.7879061
  78.4099010 115.2948536  31.4086946  77.7879019 114.6319241  31.1089174
  79.0803877 115.3209668  30.7260594  71.6426082 113.8608395  30.2978206
  70.8057990 113.4330569  30.1162207  71.6149727 114.0540838  31.2348997
  78.4823538 103.7730324  41.0019452  78.5311693 104.6492447  40.6197222
  79.0246052 103.2307717  40.4291095  88.9678383 114.3171448  40.2820589
  88.1773927 114.2995586  39.7425089  88.7311738 114.8559741  41.0369626
  89.0876258 111.1663914  37.5953318  89.1374263 111.0013921  38.5368841
  88.9790182 110.2991173  37.2051199  77.9712517 113.8452460  24.8845407
  78.1200637 114.5287924  24.2312079  78.7778960 113.8257550  25.3994862
  86.3780021 107.1494842  38.9112625  87.2789883 107.0101307  38.6196622
  86.4527995 107.3149297  39.8510802  80.7122826 104.5261697  37.7565811
  79.8426135 104.8195263  37.4848399  80.9482306 105.1102142  38.4773074
  90.5894455 113.5860855  37.8395339  90.2979263 113.9490836  38.6758800
  89.9766586 112.8727864  37.6608671  91.7890137 111.1513735  30.3597910
  92.6237029 111.5903539  30.5235470  91.9249266 110.6752388  29.5406155
  88.8381643 108.7093470  36.3075397  89.3135765 108.9021116  35.4994249
  87.9147209 108.7652656  36.0618781  75.7265150 109.8717637  25.8906476
  75.4811192 108.9679967  26.0886686  75.8961065 109.8734788  24.9485954
  83.4161860 100.7441314  35.2731231  83.9343804 101.4802341  34.9477720
  83.0616993 101.0505307  36.1077990  74.9960798 105.6045995  23.3892637
  74.3030042 105.6790350  22.7332673  74.7512549 104.8406338  23.9114154
  83.6674454  97.1641596  30.7932128  83.9476208  96.4964785  31.4192554
  84.4525061  97.3570692  30.2806792  81.4707923 116.3400590  22.3557154
  80.8981890 116.9590777  21.9027626  82.0440716 116.8899952  22.8897076
  87.5383312 105.5859230  34.5403703  88.4900735 105.6857328  34.5615927
  87.3686763 104.7937499  35.0501787  85.5597692 102.6714813  34.7263104
  84.9647624 102.9519826  34.0309592  85.2747389 103.1608714  35.4979845
  84.6905182 116.6237740  23.4865736  85.6235855 116.5583302  23.6898612
  84.6028395 117.4594007  23.0280269  87.3193199 115.9403611  20.4469684
  87.2406831 115.6063474  21.3405442  88.1402866 116.4325378  20.4461156
  90.0171390 108.8065350  33.6546003  89.9847710 107.8681351  33.8405686
  90.6272014 108.8849387  32.9211827  81.8554721 107.6761403  19.6973207
  82.8013826 107.5467611  19.7661625  81.4768966 106.9376065  20.1742635
  90.1665879 105.5976393  33.7004286  89.6504927 104.8134850  33.5134215
  91.0505827 105.2695110  33.8650805  87.8276606  99.3417409  29.6600098
  87.6301427  99.0332497  30.5443430  88.4376311 100.0679048  29.7898028
  95.8347940 109.8681357  32.7952039  96.5651328 109.6066645  33.3559743
  95.2254885 109.1310079  32.8354107  93.9163237 108.0089219  33.3926491
  93.1896401 107.8745184  32.7842982  93.5010524 108.3166048  34.1983209
  81.7393414 111.7279149  41.1573864  82.6596423 111.9057748  41.3513910
  81.7042997 110.7835194  41.0053563  80.0397638 105.6011379  19.6328092
  79.1329094 105.3044492  19.7090805  80.3173619 105.3041197  18.7662378
  70.9575579 106.9217743  30.0827138  70.6378363 106.0683051  29.7901512
  70.4109007 107.1366321  30.8385106  74.7355486 109.6380184  33.7996645
  74.9541496 110.5697291  33.8184679  75.1481260 109.2788158  34.5851449
  81.6559704 100.1448269  25.7872333  80.8460432  99.7995354  26.1627579
  82.3444121  99.8355813  26.3759945  83.5850252  99.2226316  27.4096630
  84.1381291  99.6421769  28.0686653  83.8220339  98.2962064  27.4519586
  79.6083351 105.2113389  43.1899394  79.5080078 106.1607746  43.1211485
  79.3904893 104.8831628  42.3175464  78.8096423 102.4598314  19.7740071
  79.6715587 102.7853213  20.0335888  78.9946767 101.6729810  19.2613137
  70.8263839 110.5420654  32.0520260  70.1327310 110.1274607  31.5390214
  71.5736830 110.5841191  31.4553679  86.9629059 101.3326841  26.9175294
  86.3827728 101.9911645  26.5353346  86.6964992 100.5104185  26.5062712
  85.4132626 100.7331899  29.1196614  85.9132404 100.8448433  28.3110933
  86.0568234 100.4292951  29.7597423  79.4714621 108.6410528  42.0064455
  78.9881703 109.4410888  42.2128344  79.5575561 108.6518473  41.0531899
  72.7400581 110.4738908  29.9286275  72.7171269 110.5726595  28.9768158
  73.0501218 111.3204059  30.2503441  75.3987959 112.5315063  34.0432889
  76.3531213 112.4999005  33.9762821  75.2000483 112.0705687  34.8583115
  75.9887341 111.1016179  36.6103687  76.8080230 111.5960258  36.6338524
  76.2624149 110.1848147  36.5821254  85.7453937 103.4926931  25.9731642
  84.8579792 103.7776582  25.7551837  86.1607926 103.3320695  25.1258919
  89.0968473 103.5173452  29.6885982  89.8728864 104.0069905  29.9610598
  88.3716608 103.9431506  30.1457851  91.5341032 104.2301071  30.7459922
  92.1285523 103.9896807  30.0353230  91.6067616 103.5108202  31.3733458
  73.7538188 118.0734682  31.0603087  73.6192656 117.3135083  30.4941085
  73.3370250 118.7975582  30.5931876  84.8897151 113.2571606  20.0679662
  85.5933001 113.4621608  20.6837318  84.1659800 113.8248368  20.3328746
  85.7194961 109.0081467  26.1881932  85.6630162 109.4650019  25.3489565
  86.2723303 108.2472152  26.0104775  89.5299767 104.7971199  27.0132052
  89.2736701 104.3967835  27.8440260  88.9052635 105.5114993  26.8882191
  93.8412105 107.5367272  29.5203343  93.2811663 107.6060462  30.2934905
  93.2355608 107.3608257  28.8002840  76.9107314 118.9703999  31.2721530
  76.7939698 119.9149432  31.1700220  76.0899760 118.6677561  31.6607329
  86.7983848 113.6954135  22.1178122  87.6329452 113.2635334  21.9355597
  86.6368191 113.5236149  23.0455017  86.4529740 110.1986248  23.4834462
  86.3978544 110.0330520  22.5422906  85.8275796 110.9062281  23.6396651
  71.2422255 105.4354313  37.3095884  71.8881119 104.9253267  37.7983109
  71.0339406 106.1722994  37.8839309  83.7675648 112.5035160  42.8088024
  84.6366807 112.6775813  42.4474659  83.2882399 113.3229577  42.6863754
  79.7625866  99.6994357  23.0619780  79.7504536 100.6436197  23.2188051
  80.6549288  99.5164503  22.7679241  77.9361828 119.6232261  34.4877458
  78.8389074 119.6555872  34.8043953  77.7099198 118.6932712  34.5023794
  79.6915430 118.3763248  31.1487537  78.7411061 118.3765109  31.0351909
  79.9947916 117.6295982  30.6323571  83.5777985  96.2937134  27.3165717
  82.8110381  95.7395621  27.4622399  83.9888690  96.3659003  28.1779868
  75.5819746 102.5821930  41.4070898  76.4451208 102.2258735  41.6174223
  75.0085157 102.2435825  42.0946302  95.4268123 124.2123786  32.2133299
  96.0646533 124.0930534  31.5096639  95.3088966 125.1604630  32.2721251
  92.2357830 124.1651214  32.1494824  91.8976341 124.0492279  31.2615359
  93.1047598 123.7642379  32.1295830  88.0944645 126.0186691  28.1391715
  87.5309510 125.9276628  27.3708003  87.9797040 125.1986595  28.6194207
  92.7177613 125.3186066  38.1081029  92.7066253 124.9238864  37.2361533
  92.8798252 124.5852139  38.7014801  85.6409077 127.5137882  30.9775935
  86.4330369 127.1728707  30.5622235  85.8805727 127.6232857  31.8978089
  89.4384874 128.1023178  37.0560213  89.1474740 129.0068809  36.9406880
  90.0741858 128.1439706  37.7704283  90.3641081 125.4800026  33.6461573
  90.9604653 125.2556049  32.9318536  90.4216052 124.7384772  34.2487021
  94.9809392 121.9375240  29.2886507  95.7672481 121.5194663  28.9376924
  95.2448096 122.8421332  29.4568156 100.3817819 121.8750473  30.1919486
 101.1142991 121.3049690  30.4257315  99.6257175 121.4872074  30.6325991
  91.9993939 124.2977715  27.3882828  91.6352146 123.7708336  28.0995750
  92.8561055 123.9076184  27.2149314  97.9043239 115.5872047  34.6514094
  97.5726564 116.4567458  34.4275309  97.3088853 115.2708331  35.3308125
  91.6399426 119.3267614  22.3844177  91.8073828 120.1947851  22.7514648
  91.4496595 119.4894896  21.4605466  94.3974759 127.7884593  34.0510007
  94.0975482 128.6909632  33.9425814  94.0525818 127.5216777  34.9031160
  87.8487240 124.2398390  30.0846711  86.9237737 124.1074604  30.2924403
  88.0971653 125.0192609  30.5816654  97.7971903 120.3067134  31.7307444
  96.8888780 120.2382542  31.4366205  97.7459498 120.7839079  32.5589270
  91.6188646 121.7825272  23.3690843  91.4988272 122.2282323  24.2076324
  90.9241235 122.1310590  22.8104382  85.2096051 123.8831664  30.9190501
  85.3388432 124.1366143  31.8329912  84.5293503 124.4759372  30.5995156
  91.8712768 121.7256779  39.6742342  91.0946102 122.2850699  39.6645206
  92.5103331 122.2113562  40.1957212  99.6633549 118.5083572  33.5085318
  99.0207929 118.8016105  32.8625113  99.1588477 118.3936492  34.3138515
  90.1259141 124.5342233  39.2360309  90.8673825 125.0727277  38.9595132
  89.4196126 125.1608521  39.3931860  95.6014480 126.6771373  37.8332470
  96.0097836 126.2353784  37.0887102  94.8791742 126.1024001  38.0866663
  91.9545550 121.6143980  35.2066027  92.8006746 122.0383393  35.3500676
  91.8944188 120.9577604  35.9004590  95.9243295 127.2372564  31.5884759
  95.2952157 127.4018278  30.8860827  95.5368957 127.6514173  32.3595723
  95.1044996 119.2748348  36.8647201  94.8605928 120.0290409  36.3281476
  95.3804926 119.6533696  37.6994448  97.0583458 125.8186961  35.5424466
  97.2700354 126.4618720  34.8658847  97.0113207 124.9849277  35.0746396
  94.6609687 118.4304781  32.4461038  93.7994166 118.7286035  32.7377776
  94.6872122 118.6475180  31.5142071  91.4771257 126.9746972  28.8534844
  91.9409602 127.2534675  28.0639467  91.2128055 126.0730416  28.6707935
  88.3695338 126.5218453  31.7914607  88.9396695 126.9505722  31.1532092
  88.9603450 126.2401038  32.4898793  90.4140143 123.0970124  25.6624409
  91.1164186 123.5491168  26.1298336  90.0820771 122.4553943  26.2904302
  88.8620504 121.6881881  40.0375619  88.2319165 122.3698162  40.2711015
  88.7556592 121.5764962  39.0928757  84.1565477 121.3553677  30.9641543
  83.3664531 121.6111205  30.4881653  84.6476724 122.1702015  31.0693583
  98.1729286 128.6958916  33.7146824  98.9946730 128.2939103  33.4329505
  98.1691689 128.5927150  34.6662939  86.1080222 121.7198256  27.9225019
  85.3111385 121.8316950  28.4408515  85.8805814 122.0584908  27.0565910
  91.9385890 128.2442959  35.8707534  92.0030322 128.7063366  36.7065706
  91.2296814 127.6140324  35.9989844  82.4403180 121.6084167  33.3956534
  82.6911218 122.4931177  33.6614110  82.9762728 121.4288769  32.6231625
  88.1401247 115.9902647  42.4000870  87.7468193 115.4368845  43.0748514
  88.9567387 116.3013225  42.7907387  85.1063305 127.4286505  26.3114440
  85.6187825 128.2229755  26.4620004  85.7586018 126.7312795  26.2448041
  86.9158190 130.5452261  28.3937193  87.0924818 131.4670226  28.2058177
  87.7115023 130.2310680  28.8231572  91.0569208 117.4060526  39.9921126
  91.7978921 118.0067679  39.9125589  91.2887131 116.6638163  39.4339169
  86.2010546 122.5916893  38.2699356  86.0864061 121.6902150  38.5706455
  85.3455064 122.8380590  37.9184172  93.2802384 130.5334633  39.8686857
  92.8366238 129.7471012  39.5507761  93.9419597 130.7213784  39.2030747
  88.0389505 132.0630435  34.3947535  88.5896930 131.9347498  33.6224529
  87.2000981 132.3625324  34.0442428  95.3783622 130.8137433  37.8968258
  95.3602097 131.6346314  37.4048527  96.3003542 130.6891508  38.1218399
  91.8356676 128.3281563  38.7391766  92.3685013 127.5669851  38.5091074
  91.3070757 128.0355214  39.4815921  95.0026371 113.4341629  34.2685408
  94.6590640 114.3243270  34.1924518  95.3705334 113.2443286  33.4054993
  83.0712222 125.7575159  27.0874010  83.9087444 126.1672167  26.8707718
  83.2490489 124.8174601  27.0574204  92.5523765 118.2699940  27.8343081
  91.6965361 117.8806791  27.6548720  92.9650717 118.3491901  26.9742867
  94.0822911 115.8046284  32.2334641  93.5787707 115.7676419  31.4202446
  94.3753518 116.7139026  32.2931298  90.3265797 115.8885013  31.2400823
  91.1918794 115.6927822  30.8806712  90.3943306 115.6595365  32.1670180
  94.7562957 121.2977332  24.6017624  94.4513093 121.6123481  25.4527767
  95.7093399 121.3758752  24.6444957  98.1802235 125.6516576  31.3677624
  97.5225909 126.3415837  31.4557753  98.9842634 126.0413008  31.7111611
  87.9328116 118.1187221  28.6117190  88.5071868 117.8962403  27.8790383
  88.5199099 118.1875916  29.3645791  96.9907694 124.0060948  29.4181566
  97.5039575 124.6390940  29.9203276  97.6408917 123.4062144  29.0524926
  88.2597703 120.1491682  22.6313075  87.4235016 120.4866369  22.9522350
  88.1202473 120.0140662  21.6940212  90.2350784 114.9928470  27.3392259
  89.5815196 114.6777487  26.7148874  90.1931258 114.3704211  28.0652082
  93.4688524 121.4810404  31.6639907  92.5511086 121.7025351  31.5061595
  93.8848668 121.5556714  30.8051614  94.2523572 122.8801820  26.7942587
  94.9995391 123.3923217  26.4849709  94.5215162 122.5585872  27.6546981
  96.7002409 119.9158936  28.7761376  95.9625166 119.4036322  29.1071619
  96.9529183 119.4759317  27.9644653  96.8014037 112.6935188  29.3703146
  97.1072913 111.8332551  29.0829061  97.5266642 113.2852808  29.1702139
  83.0938393 123.0965874  27.7584743  82.8962793 122.5035235  27.0335810
  82.5385057 122.7918085  28.4760682  91.0735116 122.9888981  29.8779337
  91.1283726 122.0362817  29.8021813  90.2626318 123.1448420  30.3620635
  89.0127476 121.6066041  27.6369716  88.1995342 121.9060211  28.0434908
  89.5086471 121.2121729  28.3544198  91.1636054 131.6023798  29.5703980
  91.1212233 131.8284644  28.6412512  92.0798753 131.3687172  29.7189781
  94.6101688 122.0707865  36.4684609  94.9651076 122.2979338  37.3279075
  95.2573819 122.4026242  35.8461865  88.5041551 119.1784396  33.2530950
  89.1440930 119.0373155  32.5553914  87.6719082 118.8918910  32.8769552
 100.3668805 127.2602828  32.1845210 100.8005311 127.1678117  33.0328264
 101.0800385 127.2360328  31.5465226  89.2801855 128.4786827  29.3665943
  90.0742454 127.9837147  29.1648518  88.5693547 127.9504690  29.0033648
  94.0996699 130.8604922  33.7178311  94.1533722 131.4295858  34.4856026
  93.2311481 131.0306807  33.3532348  85.5884618 122.6229908  25.4425696
  84.6582207 122.5614364  25.6595658  85.6842090 122.1005861  24.6462337
  85.5070168 119.1484721  28.0303937  85.7676985 120.0630054  27.9213098
  86.3287340 118.6809164  28.1800550  86.9795093 120.5622478  35.2002762
  87.6518146 120.3539840  34.5515411  86.1524879 120.3644564  34.7607994
 101.2284354 127.3026529  34.7178095 101.4220244 128.2072339  34.9637370
 101.1284972 126.8433948  35.5516680  92.8820665 117.1884419  37.2168423
  92.2348580 117.8874369  37.1232899  93.6521680 117.6220563  37.5844671
  96.2899463 127.4533271  40.2918976  96.1384969 127.2243823  39.3749060
  96.2804142 128.4103873  40.3050321  93.0584799 125.0265184  35.2765242
  93.9876859 125.1776344  35.1034210  92.6375829 125.1149205  34.4213889
  91.8573131 129.0515849  33.0463780  91.7184217 128.6834633  33.9189718
  91.0687727 129.5663488  32.8747738  93.4078346 128.4297451  30.4352618
  93.0728179 128.3898221  31.3310268  92.9082292 127.7642167  29.9623028
  87.3822590 123.8365081  35.9605199  87.2442388 123.1045320  36.5616738
  88.2927514 123.7473981  35.6789387  90.0104891 123.5485041  35.4488879
  90.7204509 122.9078233  35.4075497  89.9674199 123.7997935  36.3715059
  97.9991669 130.4852394  38.3695458  97.9404216 129.8011614  37.7026041
  98.4011188 131.2271384  37.9176084  88.7233825 120.5350258  37.2684518
  88.1871182 120.0840997  37.9206114  88.1350533 120.6696167  36.5254982
  87.0182368 137.3014308  31.1629177  87.2578966 137.9332832  31.8408195
  86.1751565 136.9502348  31.4494536  98.0009077 128.4491978  36.6009437
  97.1135855 128.1117900  36.7235836  98.5707628 127.7175009  36.8378203
  79.6538224 124.7816070  29.9252489  80.3409264 124.4677800  29.3373504
  79.4986353 125.6857434  29.6519740  84.4572946 119.6706266  34.3537513
  84.3731135 119.0631936  33.6187923  83.6355652 120.1615284  34.3547009
  91.5310230 133.1093430  33.5670681  91.4580402 133.9148402  34.0789985
  91.0887623 133.3085396  32.7418702  94.6296660 118.1559830  29.7207708
  95.1265359 117.4029792  29.4008778  93.8583641 118.1924146  29.1550917
 102.4826417 123.8600195  31.3625999 102.4716294 124.7424911  30.9919932
 101.6143797 123.5071746  31.1680536  93.9908914 133.0080264  35.7228839
  94.7036886 133.6427729  35.6504741  93.4998942 133.1044130  34.9068841
  95.7126441 126.9131517  27.2946131  94.7782719 127.0332979  27.1250835
  95.8903109 126.0103984  27.0306141  91.2131629 120.2977213  29.4479392
  90.8429416 119.7448253  30.1360298  91.7090721 119.6935346  28.8954392
  99.0998992 122.7548836  27.8296165  99.5659444 123.5876828  27.7556468
  99.5506492 122.2893818  28.5341424  89.0420827 130.7574708  36.5434410
  89.7430287 131.3911191  36.6963804  88.5715942 131.0989439  35.7830049
  97.0715655 115.1229423  31.8687066  96.1578734 115.3533650  32.0369273
  97.5008756 115.2067867  32.7201099  96.8422113 123.3119315  34.3686961
  96.1893563 123.5595223  33.7139413  97.2202493 122.4983453  34.0349438
  92.8909686 124.0539126  40.8552998  92.2150323 123.9533256  41.5255373
  93.7137320 123.8978340  41.3188995  84.6388545 130.2911063  33.4765513
  85.2241982 129.5454751  33.6093417  84.4413384 130.6015019  34.3602177
  87.4927200 133.3262310  28.4927955  86.8237576 133.8108438  28.0091995
  87.3540070 133.5731531  29.4071334  79.2306200 122.8616663  32.1969956
  79.2690299 122.3280254  32.9907074  78.7246493 122.3351868  31.5780933
  91.6332469 135.3606054  35.0910614  92.1850777 135.5237675  35.8559699
  91.9738663 135.9510491  34.4190638  86.6096962 117.7081203  35.6932498
  86.6738289 118.5696034  35.2809896  86.5464083 117.0955205  34.9604857
  86.0849235 119.7804336  39.3405533  86.7121274 119.3981413  39.9543057
  85.2277154 119.5618538  39.7061225  96.4843343 130.1867311  40.9459268
  97.0283247 130.7997269  40.4514223  95.9030188 130.7446890  41.4626281
  82.8614778 121.5880765  25.2723887  83.1568219 120.6791444  25.2190941
  81.9602813 121.5668505  24.9504890  94.7700856 133.3088029  32.0774296
  94.6451996 132.5077769  31.5685241  95.4279947 133.8034223  31.5888266
  86.3909025 119.6636762  31.2551436  85.6695610 120.2772729  31.1158909
  87.1802280 120.1994527  31.1768082  96.8335765 131.1097049  33.7053846
  95.8866100 130.9902400  33.6332173  97.1818538 130.2219547  33.7880107
  89.1935338 116.9991188  37.5292088  89.7169740 117.2453485  38.2918397
  88.9747671 117.8311223  37.1095225  84.5902619 119.2694863  25.3963213
  84.2615325 118.3892242  25.2138318  84.9441990 119.2142531  26.2839602
  93.8382198 130.9049765  29.9058198  93.6907160 129.9766473  30.0865768
  94.6635692 130.9269856  29.4215273  87.7044442 119.5567833  25.7638690
  88.0440515 120.0853754  25.0417299  88.1516563 119.8948239  26.5397257
  90.3987883 117.9404883  35.2141758  90.0584703 117.1412696  35.6162438
  89.6926889 118.2406594  34.6418591  91.0504355 115.0254196  33.6669081
  91.8730424 114.5514674  33.5447972  91.2942418 115.8044679  34.1667768
  89.6912589 118.0542454  23.9631983  90.4120952 118.4323707  23.4595700
  89.0677894 118.7731331  24.0666961  93.8343712 118.7587603  24.8990315
  94.0507327 119.6412241  24.5979143  93.3537779 118.3673817  24.1695957
  88.5742934 121.7173316  31.4761060  88.4287514 122.0313619  32.3685341
  88.0968137 122.3358217  30.9231959  90.4339317 118.7075864  31.5241949
  90.4200885 117.8116958  31.1874247  91.1511745 118.7146528  32.1580236
  92.2865447 119.1413205  33.5695077  92.0283225 120.0630275  33.5679407
  91.7550488 118.7443639  34.2595541  83.0488596 124.2578661  34.4148721
  82.5042064 125.0338469  34.5468995  83.9267946 124.6049465  34.2567843
  89.8376213 117.5890245  26.7929520  89.9592124 116.6606891  26.9920407
  89.5478255 117.6028931  25.8807835  92.7067403 115.2745155  29.9296239
  92.7289100 115.3384488  28.9748219  93.1235462 114.4349664  30.1236746
  83.8354618 123.3848557  37.3078878  83.0936354 123.5331192  37.8943508
  83.5147362 123.6456823  36.4445627  91.7798280 132.9264535  37.1059268
  92.0885407 132.6813682  37.9781968  92.5773762 133.1311174  36.6178138
  84.2811231 131.2713986  29.3389273  85.1069251 130.9717758  28.9587916
  83.9305283 130.5021608  29.7879061  89.2492765 130.6240454  31.4086946
  88.6272774 129.9611159  31.1089174  89.9197631 130.6501586  30.7260594
  82.4819836 129.1900312  30.2978206  81.6451745 128.7622487  30.1162207
  82.4543482 129.3832756  31.2348997  89.3217292 119.1022242  41.0019452
  89.3705448 119.9784365  40.6197222  89.8639806 118.5599635  40.4291095
  99.8072138 129.6463365  40.2820589  99.0167681 129.6287504  39.7425089
  99.5705492 130.1851659  41.0369626  99.9270013 126.4955832  37.5953318
  99.9768018 126.3305839  38.5368841  99.8183936 125.6283091  37.2051199
  97.2173775 122.4786760  38.9112625  98.1183638 122.3393224  38.6196622
  97.2921750 122.6441214  39.8510802  91.5516581 119.8553614  37.7565811
  90.6819890 120.1487180  37.4848399  91.7876061 120.4394059  38.4773074
 101.4288210 128.9152773  37.8395339 101.1373018 129.2782754  38.6758800
 100.8160341 128.2019781  37.6608671 102.6283892 126.4805653  30.3597910
 103.4630783 126.9195457  30.5235470 102.7643021 126.0044306  29.5406155
  99.6775398 124.0385388  36.3075397 100.1529519 124.2313034  35.4994249
  98.7540963 124.0944574  36.0618781  86.5658904 125.2009555  25.8906476
  86.3204946 124.2971885  26.0886686  86.7354819 125.2026705  24.9485954
  94.2555614 116.0733231  35.2731231  94.7737558 116.8094258  34.9477720
  93.9010747 116.3797225  36.1077990  85.8354552 120.9337913  23.3892637
  85.1423797 121.0082267  22.7332673  85.5906304 120.1698256  23.9114154
  94.5068209 112.4933514  30.7932128  94.7869962 111.8256703  31.4192554
  95.2918815 112.6862609  30.2806792  98.3777067 120.9151148  34.5403703
  99.3294490 121.0149246  34.5615927  98.2080517 120.1229416  35.0501787
  96.3991446 118.0006731  34.7263104  95.8041378 118.2811744  34.0309592
  96.1141143 118.4900632  35.4979845 100.8565145 124.1357268  33.6546003
 100.8241465 123.1973268  33.8405686 101.4665768 124.2141304  32.9211827
 101.0059633 120.9268311  33.7004286 100.4898682 120.1426768  33.5134215
 101.8899582 120.5987028  33.8650805  98.6670360 114.6709327  29.6600098
  98.4695181 114.3624415  30.5443430  99.2770066 115.3970965  29.7898028
 106.6741694 125.1973274  32.7952039 107.4045083 124.9358562  33.3559743
 106.0648640 124.4601996  32.8354107 104.7556992 123.3381137  33.3926491
 104.0290155 123.2037102  32.7842982 104.3404278 123.6457966  34.1983209
  92.5787168 127.0571067  41.1573864  93.4990178 127.2349666  41.3513910
  92.5436751 126.1127112  41.0053563  81.7969333 122.2509660  30.0827138
  81.4772117 121.3974968  29.7901512  81.2502761 122.4658238  30.8385106
  85.5749241 124.9672101  33.7996645  85.7935250 125.8989209  33.8184679
  85.9875014 124.6080076  34.5851449  92.4953458 115.4740187  25.7872333
  91.6854187 115.1287272  26.1627579  93.1837875 115.1647730  26.3759945
  94.4244007 114.5518233  27.4096630  94.9775045 114.9713687  28.0686653
  94.6614093 113.6253982  27.4519586  90.4477106 120.5405307  43.1899394
  90.3473833 121.4899664  43.1211485  90.2298648 120.2123546  42.3175464
  89.6490177 117.7890232  19.7740071  90.5109341 118.1145130  20.0335888
  89.8340521 117.0021728  19.2613137  81.6657593 125.8712572  32.0520260
  80.9721064 125.4566525  31.5390214  82.4130584 125.9133108  31.4553679
  97.8022814 116.6618759  26.9175294  97.2221483 117.3203563  26.5353346
  97.5358746 115.8396103  26.5062712  96.2526380 116.0623816  29.1196614
  96.7526158 116.1740351  28.3110933  96.8961988 115.7584869  29.7597423
  90.3108376 123.9702446  42.0064455  89.8275458 124.7702806  42.2128344
  90.3969315 123.9810391  41.0531899  83.5794336 125.8030826  29.9286275
  83.5565024 125.9018513  28.9768158  83.8894972 126.6495976  30.2503441
  86.2381713 127.8606981  34.0432889  87.1924967 127.8290923  33.9762821
  86.0394237 127.3997604  34.8583115  86.8281096 126.4308097  36.6103687
  87.6473985 126.9252175  36.6338524  87.1017903 125.5140065  36.5821254
  96.5847692 118.8218849  25.9731642  95.6973547 119.1068500  25.7551837
  97.0001681 118.6612612  25.1258919  99.9362228 118.8465370  29.6885982
 100.7122618 119.3361822  29.9610598  99.2110362 119.2723424  30.1457851
 102.3734787 119.5592989  30.7459922 102.9679277 119.3188725  30.0353230
 102.4461370 118.8400120  31.3733458  84.5931942 133.4026600  31.0603087
  84.4586410 132.6427001  30.4941085  84.1764005 134.1267500  30.5931876
 100.3693521 120.1263117  27.0132052 100.1130456 119.7259752  27.8440260
  99.7446389 120.8406911  26.8882191 104.6805859 122.8659190  29.5203343
 104.1205417 122.9352379  30.2934905 104.0749363 122.6900175  28.8002840
  87.7501068 134.2995917  31.2721530  87.6333452 135.2441350  31.1700220
  86.9293514 133.9969479  31.6607329  82.0816010 120.7646231  37.3095884
  82.7274873 120.2545184  37.7983109  81.8733161 121.5014912  37.8839309
  94.6069402 127.8327078  42.8088024  95.4760562 128.0067730  42.4474659
  94.1276153 128.6521495  42.6863754  90.6019620 115.0286275  23.0619780
  90.5898290 115.9728115  23.2188051  91.4943042 114.8456421  22.7679241
  88.7755582 134.9524179  34.4877458  89.6782829 134.9847789  34.8043953
  88.5492952 134.0224630  34.5023794  90.5309184 133.7055166  31.1487537
  89.5804815 133.7057027  31.0351909  90.8341670 132.9587900  30.6323571
  94.4171740 111.6229052  27.3165717  93.6504136 111.0687538  27.4622399
  94.8282445 111.6950921  28.1779868  86.4213501 117.9113848  41.4070898
  87.2844962 117.5550652  41.6174223  85.8478911 117.5727742  42.0946302
 102.7106523 137.0548697  39.6742342 101.9339857 137.6142617  39.6645206
 103.3497086 137.5405480  40.1957212 100.9652895 139.8634150  39.2360309
 101.7067579 140.4019194  38.9595132 100.2589881 140.4900439  39.3931860
 105.9438750 134.6040266  36.8647201 105.6999682 135.3582326  36.3281476
 106.2198681 134.9825613  37.6994448  99.7014259 137.0173798  40.0375619
  99.0712919 137.6990079  40.2711015  99.5950347 136.9056880  39.0928757
  93.2796934 136.9376085  33.3956534  93.5304973 137.8223095  33.6614110
  93.8156483 136.7580686  32.6231625  98.9795002 131.3194564  42.4000870
  98.5861947 130.7660763  43.0748514  99.7961142 131.6305143  42.7907387
 101.8962963 132.7352443  39.9921126 102.6372676 133.3359596  39.9125589
 102.1280885 131.9930081  39.4339169  97.0404301 137.9208811  38.2699356
  96.9257816 137.0194068  38.5706455  96.1848818 138.1672507  37.9184172
 105.8420126 128.7633546  34.2685408 105.4984395 129.6535188  34.1924518
 106.2099088 128.5735204  33.4054993  97.8188847 135.8914396  35.2002762
  98.4911901 135.6831758  34.5515411  96.9918634 135.6936482  34.7607994
 103.7214419 132.5176337  37.2168423 103.0742334 133.2166287  37.1232899
 104.4915435 132.9512481  37.5844671  98.2216345 139.1656999  35.9605199
  98.0836143 138.4337238  36.5616738  99.1321268 139.0765899  35.6789387
  99.5627579 135.8642176  37.2684518  99.0264936 135.4132915  37.9206114
  98.9744288 135.9988085  36.5254982  95.2966700 134.9998184  34.3537513
  95.2124889 134.3923853  33.6187923  94.4749407 135.4907202  34.3547009
 103.7303441 139.3831044  40.8552998 103.0544078 139.2825173  41.5255373
 104.5531075 139.2270258  41.3188995  90.0699954 138.1908581  32.1969956
  90.1084054 137.6572171  32.9907074  89.5640247 137.6643786  31.5780933
  97.4490717 133.0373121  35.6932498  97.5132043 133.8987952  35.2809896
  97.3857837 132.4247123  34.9604857  96.9242989 135.1096254  39.3405533
  97.5515028 134.7273331  39.9543057  96.0670908 134.8910456  39.7061225
 100.0329093 132.3283106  37.5292088 100.5563494 132.5745402  38.2918397
  99.8141426 133.1603141  37.1095225 101.2381638 133.2696801  35.2141758
 100.8978458 132.4704614  35.6162438 100.5320644 133.5698512  34.6418591
 101.8898109 130.3546113  33.6669081 102.7124179 129.8806592  33.5447972
 102.1336173 131.1336597  34.1667768  93.8882350 139.5870578  34.4148721
  93.3435818 140.3630386  34.5468995  94.7661700 139.9341383  34.2567843
  94.6748372 138.7140475  37.3078878  93.9330108 138.8623110  37.8943508
  94.3541117 138.9748740  36.4445627 100.1611047 134.4314160  41.0019452
 100.2099202 135.3076282  40.6197222 100.7033561 133.8891553  40.4291095
 102.3910335 135.1845532  37.7565811 101.5213644 135.4779098  37.4848399
 102.6269815 135.7685977  38.4773074 105.0949369 131.4025149  35.2731231
 105.6131313 132.1386176  34.9477720 104.7404502 131.7089142  36.1077990
 103.4180923 142.3862984  41.1573864 104.3383932 142.5641583  41.3513910
 103.3830506 141.4419030  41.0053563 101.2870860 135.8697225  43.1899394
 101.1867587 136.8191582  43.1211485 101.0692402 135.5415464  42.3175464
 101.1502130 139.2994364  42.0064455 100.6669212 140.0994724  42.2128344
 101.2363069 139.3102308  41.0531899  92.9209764 136.0938148  37.3095884
  93.5668628 135.5837102  37.7983109  92.7126915 136.8306830  37.8839309
 105.4463157 143.1618996  42.8088024 106.3154316 143.3359648  42.4474659
 104.9669908 143.9813412  42.6863754  97.2607255 133.2405765  41.4070898
  98.1238717 132.8842570  41.6174223  96.6872666 132.9019660  42.0946302
  38.5208841  25.6788600  24.8326336  38.5097482  25.2841399  23.9606840
  38.6829481  24.9454673  25.4260107  35.2416102  28.4625712  23.7805520
  34.9505968  29.3671343  23.6652186  35.8773087  28.5042240  24.4949590
  37.6743997  22.0859313  26.3987648  36.8977331  22.6453234  26.3890513
  38.3134560  22.5716096  26.9202518  35.9290369  24.8944767  25.9605615
  36.6705054  25.4329811  25.6840439  35.2227355  25.5211056  26.1177167
  41.4045709  27.0373907  24.5577777  41.8129065  26.5956318  23.8132409
  40.6822971  26.4626535  24.8111970  43.9760515  29.0561450  20.4392130
  44.7977959  28.6541637  20.1574812  43.9722918  28.9529684  21.3908246
  39.0833613  30.8937167  26.5932163  38.6397467  30.1073546  26.2753068
  39.7450826  31.0816318  25.9276054  41.1814851  31.1739967  24.6213564
  41.1633326  31.9948848  24.1293834  42.1034771  31.0494043  24.8463706
  37.6387905  28.6884097  25.4637073  38.1716242  27.9272385  25.2336381
  37.1101986  28.3957749  26.2061227  47.0315583  27.6629063  21.4423402
  47.2251473  28.5674873  21.6882677  46.9316201  27.2036482  22.2761987
  42.0930692  27.8135806  27.0164283  41.9416198  27.5846357  26.0994366
  42.0835371  28.7706407  27.0295628  43.8022898  30.8454928  25.0940764
  43.7435444  30.1614148  24.4271347  44.2042417  31.5873918  24.6421390
  43.8040306  28.8094512  23.3254744  42.9167084  28.4720434  23.4481143
  44.3738857  28.0777543  23.5623510  39.7940142  33.3682798  22.4474146
  40.5068115  34.0030263  22.3750047  39.3030171  33.4646664  21.6314148
  34.8452056  31.1177242  23.2679717  35.5461515  31.7513725  23.4209111
  34.3747171  31.4591973  22.5075356  38.6940915  24.4141660  27.5798304
  38.0181552  24.3135790  28.2500679  39.5168549  24.2580874  28.0434301
  37.4363698  35.7208588  21.8155920  37.9882006  35.8840209  22.5805005
  37.7769891  36.3113026  21.1435945  42.2874572  30.5469845  27.6704575
  42.8314476  31.1599804  27.1759529  41.7061417  31.1049424  28.1871588
  42.6366994  31.4699583  20.4299152  41.6897329  31.3504935  20.3577479
  42.9849767  30.5822082  20.5125414  37.5829509  33.2867069  23.8304575
  37.8916636  33.0416216  24.7027274  38.3804991  33.4913708  23.3423445
  45.6103367  30.0065899  27.0065896  44.8198910  29.9890038  26.4670395
  45.3736721  30.5454193  27.7614933  45.7301242  26.8558366  24.3198624
  45.7799247  26.6908373  25.2614147  45.6215165  25.9885625  23.9296505
  43.0205004  22.8389294  25.6357931  43.9214867  22.6995759  25.3441929
  43.0952979  23.0043749  26.5756109  47.2319438  29.2755307  24.5640646
  46.9404247  29.6385288  25.4004107  46.6191570  28.5622316  24.3853978
  45.4806627  24.3987922  23.0320704  45.9560748  24.5915568  22.2239555
  44.5572192  24.4547108  22.7864088  52.4772923  25.5575809  19.5197346
  53.2076312  25.2961097  20.0805049  51.8679869  24.8204531  19.5599414
  38.3818397  27.4173601  27.8819170  39.3021406  27.5952200  28.0759217
  38.3467980  26.4729646  27.7298870  36.2508335  20.9007841  29.9144700
  36.1505062  21.8502198  29.8456791  36.0329877  20.5726080  29.0420770
  36.1139605  24.3304980  28.7309762  35.6306686  25.1305340  28.9373651
  36.2000544  24.3412925  27.7777206  40.4100631  28.1929612  29.5333331
  41.2791790  28.3670264  29.1719966  39.9307382  29.0124029  29.4109060
  34.5786811  35.3126713  21.2122765  35.4814058  35.3450323  21.5289260
  34.3524181  34.3827164  21.2269101  52.0693107  39.9018238  18.9378606
  52.7071517  39.7824986  18.2341946  51.9513949  40.8499082  18.9966558
  48.8782813  39.8545666  18.8740130  48.5401324  39.7386731  17.9860665
  49.7472581  39.4536831  18.8541137  44.7369629  41.7081143  14.8637021
  44.1734494  41.6171080  14.0953309  44.6222024  40.8881047  15.3439514
  49.3602596  41.0080518  24.8326336  49.3491237  40.6133316  23.9606840
  49.5223235  40.2746591  25.4260107  42.2834060  43.2032334  17.7021242
  43.0755352  42.8623159  17.2867541  42.5230711  43.3127309  18.6223395
  50.3169187  45.3752110  10.1751486  49.6657167  45.9606191   9.7885500
  51.1113550  45.9058305  10.2346524  46.0809857  43.7917630  23.7805520
  45.7899723  44.6963261  23.6652186  46.7166841  43.8334157  24.4949590
  47.0066064  41.1694478  20.3706880  47.6029636  40.9450501  19.6563843
  47.0641035  40.4279224  20.9732327  51.6234375  37.6269692  16.0131814
  52.4097464  37.2089115  15.6622231  51.8873079  38.5315784  16.1813462
  51.7944452  43.0642542  10.7120471  51.1590285  43.1377169  11.4241375
  51.4641859  43.6536141  10.0339550  57.0242802  37.5644925  16.9164792
  57.7567974  36.9944142  17.1502622  56.2682158  37.1766526  17.3571298
  48.6418922  39.9872167  14.1128135  48.2777129  39.4602788  14.8241056
  49.4986038  39.5970636  13.9394620  54.5468223  31.2766499  21.3759401
  54.2151547  32.1461910  21.1520616  53.9513836  30.9602783  22.0553431
  51.0399742  43.4779045  20.7755314  50.7400465  44.3804084  20.6671121
  50.6950802  43.2111229  21.6276467  44.4912224  39.9292842  16.8092018
  43.5662720  39.7969056  17.0169710  44.7396637  40.7087061  17.3061960
  54.4396886  35.9961585  18.4552751  53.5313763  35.9276994  18.1611512
  54.3884482  36.4733530  19.2834576  41.8521035  39.5726116  17.6435807
  41.9813416  39.8260595  18.5575219  41.1718486  40.1653824  17.3240462
  46.0220522  50.2423366  13.7426281  45.9444552  51.1931191  13.8214762
  45.4182165  49.8969238  14.4001208  48.5137752  37.4151231  26.3987648
  47.7371086  37.9745151  26.3890513  49.1528315  37.9008014  26.9202518
  56.3058532  34.1978024  20.2330625  55.6632912  34.4910557  19.5870419
  55.8013461  34.0830944  21.0383822  53.9598696  37.9441197  10.9216484
  54.8716552  38.1768584  10.7464182  53.4508343  38.5278241  10.3591563
  46.7684124  40.2236684  25.9605615  47.5098808  40.7621728  25.6840439
  46.0621109  40.8502973  26.1177167  52.2439464  42.3665825  24.5577777
  52.6522820  41.9248235  23.8132409  51.5216725  41.7918452  24.8111970
  48.5970534  37.3038432  21.9311334  49.4431729  37.7277845  22.0745983
  48.5369171  36.6472056  22.6249897  52.5668278  42.9267016  18.3130066
  51.9377141  43.0912730  17.6106133  52.1793940  43.3408625  19.0841030
  56.4457510  43.8621453  15.6674429  55.7608548  44.2420355  15.1171463
  56.5301359  44.4716780  16.4006377  51.7469979  34.9642800  23.5892507
  51.5030911  35.7184861  23.0526783  52.0229909  35.3428148  24.4239754
  53.7008442  41.5081412  22.2669773  53.9125337  42.1513172  21.5904154
  53.6538190  40.6743729  21.7991703  51.3034671  34.1199233  19.1706345
  50.4419150  34.4180487  19.4623083  51.3297105  34.3369632  18.2387378
  48.1196240  42.6641424  15.5780151  48.5834586  42.9429127  14.7884773
  47.8553038  41.7624868  15.3953241  45.0120321  42.2112905  18.5159914
  45.5821678  42.6400174  17.8777398  45.6028433  41.9295490  19.2144100
  45.5045488  37.3776333  26.7620925  44.8744148  38.0592613  26.9956322
  45.3981576  37.2659414  25.8174063  40.7990460  37.0448129  17.6886849
  40.0089514  37.3005657  17.2126960  41.2901707  37.8596467  17.7938890
  54.8154270  44.3853368  20.4392130  55.6371713  43.9833555  20.1574812
  54.8116673  44.2821602  21.3908246  48.5810873  43.9337411  22.5952841
  48.6455306  44.3957818  23.4311013  47.8721797  43.3034776  22.7235151
  39.0828163  37.2978619  20.1201840  39.3336202  38.1825629  20.3859416
  39.6187711  37.1183221  19.3476932  62.9060263  40.7292116  16.7877102
  62.1523971  40.1599514  16.6321106  63.0407804  40.6954781  17.7347736
  48.2958891  45.6005519  12.4631821  48.1604566  46.4457054  12.8916669
  48.8368703  45.8024796  11.6997755  44.7826230  31.6797098  29.1246176
  44.3893176  31.1263297  29.7993821  45.5992371  31.9907677  29.5152694
  41.7488288  43.1180957  13.0359746  42.2612809  43.9124207  13.1865311
  42.4011001  42.4207247  12.9693348  43.5583173  46.2346713  15.1182499
  43.7349801  47.1564678  14.9303483  44.3540006  45.9205132  15.5476879
  47.6994191  33.0954978  26.7166433  48.4403905  33.6962131  26.6370895
  47.9312114  32.3532615  26.1584475  42.8435529  38.2811345  24.9944663
  42.7289045  37.3796602  25.2951761  41.9880047  38.5275042  24.6429479
  49.9227367  46.2229085  26.5932163  49.4791221  45.4365464  26.2753068
  50.5844581  46.4108236  25.9276054  44.6814488  47.7524887  21.1192842
  45.2321913  47.6241950  20.3469836  43.8425964  48.0519776  20.7687734
  52.0208605  46.5031885  24.6213564  52.0027081  47.3240766  24.1293834
  52.9428525  46.3785960  24.8463706  48.4781659  44.0176015  25.4637073
  49.0109996  43.2564303  25.2336381  47.9495740  43.7249666  26.2061227
  51.6451354  29.1236080  20.9930715  51.3015624  30.0137722  20.9169825
  52.0130317  28.9337738  20.1300300  50.7247895  31.4940736  18.9579948
  50.2212690  31.4570871  18.1447753  51.0178502  32.4033478  19.0176604
  46.9690781  31.5779465  17.9646130  47.8343777  31.3822274  17.6052019
  47.0368290  31.3489817  18.8915486  56.5835911  41.8677046  11.4356323
  55.8065354  41.5288206  10.9911485  57.2627392  41.8729669  10.7611288
  49.8434372  43.1462007  12.9755885  49.3155734  42.4114767  12.6629122
  49.3421875  43.9236683  12.7295853  54.8227218  41.3411027  18.0922931
  54.1650893  42.0310289  18.1803060  55.6267617  41.7307459  18.4356917
  53.6332677  39.6955400  16.1426873  54.1464559  40.3285392  16.6448583
  54.2833901  39.0956596  15.7770233  50.8955051  49.6739724   8.8987544
  50.2216750  49.9771421   9.5072502  51.2820873  50.4768805   8.5493001
  50.1113508  37.1704856  18.3885213  49.1936069  37.3919803  18.2306901
  50.5273651  37.2451166  17.5296921  50.8948556  38.5696271  13.5187894
  51.6420374  39.0817669  13.2095016  51.1640145  38.2480324  14.3792287
  54.3994473  44.6761402  14.2706015  53.9456800  43.8352312  14.3271206
  53.7688440  45.3122800  14.6080796  53.3427393  35.6053388  15.5006683
  52.6050149  35.0930774  15.8316926  53.5954166  35.1653769  14.6889960
  52.8427412  46.5137898  15.2055834  53.1350387  47.0742955  14.4868199
  53.3526033  46.8066459  15.9608993  47.7160100  38.6783433  16.6024643
  47.7708710  37.7257269  16.5267120  46.9051302  38.8342872  17.0865942
  45.6552460  37.2960492  14.3615022  44.8420325  37.5954663  14.7680214
  46.1511454  36.9016181  15.0789504  47.8061038  47.2918249  16.2949287
  47.7637216  47.5179096  15.3657819  48.7223736  47.0581624  16.4435088
  51.2526671  37.7602317  23.1929916  51.6076059  37.9873790  24.0524382
  51.8998803  38.0920694  22.5707171  56.9824408  40.8820753  13.8979245
  56.8442307  41.0722349  12.9700434  56.6260627  41.6440136  14.3547296
  45.1466534  34.8678848  19.9776257  45.7865914  34.7267607  19.2799220
  44.3144065  34.5813361  19.6014859  57.0093788  42.9497280  18.9090517
  57.4430295  42.8572569  19.7573571  57.7225369  42.9254780  18.2710533
  45.9226838  44.1681278  16.0911250  46.7167437  43.6731599  15.8893825
  45.2118531  43.6399142  15.7278955  50.7421683  46.5499374  20.4423617
  50.7958705  47.1190310  21.2101333  49.8736464  46.7201259  20.0777654
  43.6220076  36.2516930  21.9248068  44.2943130  36.0434292  21.2760717
  42.7949863  36.0539016  21.4853301  57.8709337  42.9920981  21.4423402
  58.0645228  43.8966791  21.6882677  57.7709956  42.5328400  22.2761987
  49.5245648  32.8778871  23.9413729  48.8773563  33.5768821  23.8478206
  50.2946664  33.3115015  24.3089978  52.9324446  43.1427723  27.0164283
  52.7809953  42.9138275  26.0994366  52.9229126  44.0998325  27.0295628
  49.7009783  40.7159636  22.0010549  50.6301843  40.8670796  21.8279516
  49.2800813  40.8043657  21.1459196  48.4998114  44.7410300  19.7709087
  48.3609200  44.3729085  20.6435025  47.7112711  45.2557940  19.5993044
  49.0946266  49.8419397  11.1134623  49.2698022  49.3707440  11.9280246
  48.4079054  50.4685163  11.3415884  50.0503329  44.1191903  17.1597924
  49.7153162  44.0792673  18.0555574  49.5507275  43.4536619  16.6868335
  44.0247573  39.5259533  22.6850506  43.8867371  38.7939772  23.2862045
  44.9352497  39.4368433  22.4034693  46.6529874  39.2379492  22.1734185
  47.3629493  38.5972685  22.1320804  46.6099182  39.4892387  23.0960366
  54.6416653  46.1746846  25.0940764  54.5829199  45.4906066  24.4271347
  55.0436171  46.9165836  24.6421390  45.3658808  36.2244710  23.9929825
  44.8296165  35.7735449  24.6451421  44.7775517  36.3590619  23.2500289
  43.6607352  52.9908760  17.8874483  43.9003950  53.6227284  18.5653502
  42.8176548  52.6396800  18.1739843  54.6434060  44.1386430  23.3254744
  53.7560839  43.8012352  23.4481143  55.2132611  43.4069461  23.5623510
  36.2963207  40.4710521  16.6497796  36.9834247  40.1572252  16.0618811
  36.1411336  41.3751886  16.3765047  41.0997929  35.3600718  21.0782819
  41.0156118  34.7526388  20.3433229  40.2780636  35.8509736  21.0792316
  48.1735213  48.7987882  20.2915987  48.1005385  49.6042854  20.8035292
  47.7312607  48.9979848  19.4664009  47.9624993  48.0359652  13.8018809
  47.1792515  48.5781332  13.8957033  48.6617738  48.5533632  14.2013050
  51.2721643  33.8454282  16.4453014  51.7690343  33.0924244  16.1254084
  50.5008625  33.8818598  15.8796224  59.1251401  39.5494647  18.0871306
  59.1141277  40.4319363  17.7165239  58.2568780  39.1966198  17.8925843
  50.6333897  48.6974716  22.4474146  51.3461869  49.3322181  22.3750047
  50.1423926  48.7938582  21.6314148  52.3551424  42.6025969  14.0191438
  51.4207703  42.7227431  13.8496142  52.5328092  41.6998436  13.7551447
  47.8556612  35.9871665  16.1724699  47.4854399  35.4342705  16.8605604
  48.3515704  35.3829798  15.6199699  55.7423975  38.4443288  14.5541472
  56.2084427  39.2771280  14.4801774  56.1931476  37.9788270  15.2586730
  45.6845810  46.4469160  23.2679717  46.3855270  47.0805643  23.4209111
  45.2140925  46.7883891  22.5075356  53.8100206  44.7887109  11.5527624
  54.0860050  44.6743704  12.4621498  52.9404705  44.3904594  11.5139797
  53.7140638  30.8123875  18.5932373  52.8003718  31.0428102  18.7614580
  54.1433739  30.8962319  19.4446405  53.4847096  39.0013767  21.0932267
  52.8318547  39.2489674  20.4384720  53.8627476  38.1877905  20.7594744
  50.4454270  49.0373460  15.1960437  50.6276665  48.2195116  15.6588190
  51.2687256  49.2541152  14.7585327  50.7796436  47.9641645  12.4575486
  51.3084202  47.4534100  11.8445648  51.0424655  47.6484176  13.3221019
  49.5334669  39.7433578  27.5798304  48.8575306  39.6427707  28.2500679
  50.3562303  39.5872792  28.0434301  41.2813529  45.9805515  20.2010819
  41.8666965  45.2349203  20.3338724  41.0838367  46.2909471  21.0847483
  44.1352184  49.0156762  15.2173262  43.4662559  49.5002890  14.7337302
  43.9965053  49.2625982  16.1316640  35.8731183  38.5511115  18.9215263
  35.9115283  38.0174706  19.7152381  35.3671476  38.0246320  18.3026240
  48.2757452  51.0500506  21.8155920  48.8275760  51.2132127  22.5805005
  48.6163646  51.6404943  21.1435945  43.2521946  33.3975655  22.4177805
  43.3163272  34.2590486  22.0055203  43.1889066  32.7849657  21.6850163
  42.7274218  35.4698788  26.0650839  43.3546257  35.0875865  26.6788364
  41.8702137  35.2512990  26.4306532  53.1268327  45.8761763  27.6704575
  53.6708231  46.4891721  27.1759529  52.5455172  46.4341341  28.1871588
  51.4125840  48.9982481  18.8019602  51.2876979  48.1972221  18.2930548
  52.0704931  49.4928674  18.3133572  43.0334008  35.3531214  17.9796743
  42.3120594  35.9667181  17.8404216  43.8227264  35.8888978  17.9013389
  53.4760748  46.7991501  20.4299152  52.5291084  46.6796852  20.3577479
  53.8243521  45.9113999  20.5125414  45.8360321  32.6885640  24.2537394
  46.3594723  32.9347937  25.0163704  45.6172655  33.5205675  23.8340532
  50.4807181  46.5944217  16.6303505  50.3332144  45.6660925  16.8111075
  51.3060675  46.6164308  16.1460580  54.0841303  47.4172776  17.7168377
  55.0087851  47.2115637  17.5792829  53.9156607  47.1689177  18.6257719
  47.0412866  33.6299335  21.9387065  46.7009687  32.8307148  22.3407745
  46.3351873  33.9301046  21.3663898  47.6929338  30.7148648  20.3914388
  48.5155408  30.2409126  20.2693278  47.9367402  31.4939131  20.8913074
  45.2167917  37.4067768  18.2006367  45.0712498  37.7208071  19.0930648
  44.7393121  38.0252669  17.6477265  47.0764300  34.3970316  18.2487256
  47.0625869  33.5011410  17.9119554  47.7936728  34.4040980  18.8825542
  48.9290431  34.8307656  20.2940384  48.6708208  35.7524727  20.2924714
  48.3975471  34.4338091  20.9840848  53.8736619  47.9358444  13.0730469
  54.0473497  47.3704866  12.3204321  54.3665511  48.7359338  12.8909959
  39.6913579  39.9473113  21.1394028  39.1467047  40.7232921  21.2714302
  40.5692929  40.2943917  20.9813149  59.7276011  40.6994866  14.6920769
  60.1707157  39.9502192  14.2939892  58.8502521  40.6905003  14.3094501
  54.8611792  47.2525208  10.1727367  55.5562696  47.8731901  10.3914682
  55.2034942  46.4020559  10.4479745  40.4779601  39.0743009  24.0324185
  39.7361337  39.2225644  24.6188815  40.1572345  39.3351275  23.1690934
  56.7603215  44.7024913  11.7014698  57.2854539  45.0412186  10.9764018
  56.6725568  43.7671929  11.5177833  48.4223264  48.6158987  23.8304575
  48.7310390  48.3708134  24.7027274  49.2198746  48.8205626  23.3423445
  48.4443876  50.7696897  16.0609951  48.0048866  50.2773275  16.7542808
  49.1951993  50.2269864  15.8202026  40.9236215  46.9608438  16.0634579
  41.7494235  46.6612209  15.6833223  40.5730267  46.1916060  16.5124368
  45.8917748  46.3134906  18.1332253  45.2697757  45.6505611  17.8334481
  46.5622615  46.3396038  17.4505901  39.1244820  44.8794764  17.0223513
  38.2876728  44.4516938  16.8407514  39.0968465  45.0727207  17.9594304
  45.9642275  34.7916694  27.7264759  46.0130431  35.6678817  27.3442528
  46.5064790  34.2494087  27.1536402  56.4497121  45.3357817  27.0065896
  55.6592665  45.3181956  26.4670395  56.2130476  45.8746111  27.7614933
  56.5694996  42.1850283  24.3198624  56.6193001  42.0200291  25.2614147
  56.4608919  41.3177543  23.9296505  45.4531255  44.8638829  11.6090713
  45.6019375  45.5474294  10.9557386  46.2597698  44.8443919  12.1240169
  53.8598758  38.1681212  25.6357931  54.7608621  38.0287676  25.3441929
  53.9346733  38.3335666  26.5756109  48.1941564  35.5448066  24.4811117
  47.3244873  35.8381632  24.2093706  48.4301044  36.1288511  25.2018381
  58.0713193  44.6047225  24.5640646  57.7798001  44.9677206  25.4004107
  57.4585324  43.8914233  24.3853978  59.2708875  42.1700105  17.0843216
  60.1055767  42.6089909  17.2480777  59.4068004  41.6938758  16.2651462
  56.3200381  39.7279840  23.0320704  56.7954503  39.9207486  22.2239555
  55.3965947  39.7839025  22.7864088  50.8980598  31.7627683  21.9976538
  51.4162542  32.4988710  21.6723026  50.5435730  32.0691676  22.8323297
  51.1493192  28.1827966  17.5177434  51.4294946  27.5151155  18.1437861
  51.9343799  28.3757061  17.0052098  48.9526660  47.3586960   9.0802461
  48.3800627  47.9777147   8.6272933  49.5259454  47.9086321   9.6142383
  55.0202050  36.6045600  21.2649010  55.9719473  36.7043697  21.2861234
  54.8505501  35.8123868  21.7747094  53.0416430  33.6901183  21.4508411
  52.4466362  33.9706196  20.7554899  52.7566126  34.1795084  22.2225152
  52.1723920  47.6424110  10.2111043  53.1054593  47.5769671  10.4143919
  52.0847133  48.4780377   9.7525576  54.8011937  46.9589980   7.1714991
  54.7225568  46.6249844   8.0650749  55.6221604  47.4511748   7.1706463
  57.4990128  39.8251719  20.3791309  57.4666448  38.8867720  20.5650993
  58.1090752  39.9035756  19.6457134  57.6484616  36.6162763  20.4249592
  57.1323665  35.8321219  20.2379521  58.5324565  36.2881479  20.5896112
  55.3095343  30.3603778  16.3845405  55.1120164  30.0518867  17.2688737
  55.9195049  31.0865417  16.5143335  63.3166678  40.8867726  19.5197346
  64.0470066  40.6253014  20.0805049  62.7073623  40.1496448  19.5599414
  61.3981975  39.0275589  20.1171797  60.6715138  38.8931554  19.5088289
  60.9829262  39.3352417  20.9228515  49.2212151  42.7465519  27.8819170
  50.1415161  42.9244118  28.0759217  49.1861734  41.8021564  27.7298870
  42.2174224  40.6566553  20.5241951  42.4360234  41.5883661  20.5429985
  42.6299998  40.2974528  21.3096755  47.0902089  36.2299759  29.9144700
  46.9898816  37.1794116  29.8456791  46.8723631  35.9017998  29.0420770
  38.3082576  41.5607024  18.7765566  37.6146048  41.1460976  18.2635521
  39.0555567  41.6027560  18.1798985  52.8951363  31.7518268  15.8441921
  53.3951142  31.8634803  15.0356240  53.5386971  31.4479321  16.4842729
  46.9533359  39.6596898  28.7309762  46.4700441  40.4597258  28.9373651
  47.0394298  39.6704843  27.7777206  40.2219319  41.4925277  16.6531581
  40.1990007  41.5912965  15.7013464  40.5319955  42.3390428  16.9748747
  42.8806697  43.5501432  20.7678196  43.8349950  43.5185375  20.7008127
  42.6819220  43.0892056  21.5828422  43.4706079  42.1202549  23.3348993
  44.2898968  42.6146627  23.3583831  43.7442887  41.2034517  23.3066561
  56.5787211  34.5359822  16.4131288  57.3547601  35.0256274  16.6855905
  55.8535345  34.9617876  16.8703158  59.0159770  35.2487441  17.4705229
  59.6104261  35.0083177  16.7598537  59.0886354  34.5294572  18.0978765
  41.2356926  49.0921052  17.7848394  41.1011393  48.3321453  17.2186392
  40.8188988  49.8161952  17.3177183  53.2013699  40.0267837  12.9127239
  53.1448900  40.4836388  12.0734872  53.7542041  39.2658521  12.7350082
  57.0118505  35.8157569  13.7377359  56.7555439  35.4154204  14.5685566
  56.3871373  36.5301363  13.6127498  61.3230843  38.5553642  16.2448650
  60.7630401  38.6246831  17.0180212  60.7174346  38.3794627  15.5248146
  44.3926051  49.9890369  17.9966836  44.2758436  50.9335801  17.8945527
  43.5718498  49.6863931  18.3852636  54.2802586  44.7140505   8.8423429
  55.1148190  44.2821703   8.6600904  54.1186929  44.5422518   9.7700323
  53.9348478  41.2172618  10.2079768  53.8797282  41.0516889   9.2668212
  53.3094533  41.9248651  10.3641958  38.7240993  36.4540682  24.0341191
  39.3699857  35.9439636  24.5228416  38.5158144  37.1909364  24.6084616
  51.2494385  43.5221530  29.5333331  52.1185545  43.6962182  29.1719966
  50.7701137  44.3415947  29.4109060  45.4180566  50.6418631  21.2122765
  46.3207812  50.6742241  21.5289260  45.1917936  49.7119082  21.2269101
  47.1734168  49.3949617  17.8732843  46.2229799  49.3951479  17.7597216
  47.4766654  48.6482352  17.3568878  43.0638484  33.6008299  28.1316205
  43.9269946  33.2445104  28.3419529  42.4903895  33.2622194  28.8191609
  62.9086861  55.2310156  18.9378606  63.5465271  55.1116903  18.2341946
  62.7907704  56.1791000  18.9966558  59.7176567  55.1837584  18.8740130
  59.3795079  55.0678649  17.9860665  60.5866336  54.7828749  18.8541137
  55.5763383  57.0373060  14.8637021  55.0128248  56.9462997  14.0953309
  55.4615778  56.2172965  15.3439514  60.1996350  56.3372436  24.8326336
  60.1884991  55.9425234  23.9606840  60.3616990  55.6038508  25.4260107
  53.1227815  58.5324252  17.7021242  53.9149107  58.1915077  17.2867541
  53.3624465  58.6419227  18.6223395  61.1562942  60.7044028  10.1751486
  60.5050921  61.2898108   9.7885500  61.9507305  61.2350223  10.2346524
  55.0818569  57.7933165  10.5738621  55.8549445  57.2462152  10.4351496
  55.4343968  58.6577415  10.7853082  56.9203611  59.1209547  23.7805520
  56.6293477  60.0255178  23.6652186  57.5560596  59.1626075  24.4949590
  57.8459818  56.4986396  20.3706880  58.4423391  56.2742418  19.6563843
  57.9034790  55.7571141  20.9732327  57.4184847  53.9525831   8.2057071
  57.6710367  53.4307353   7.4440534  56.4809406  53.7891977   8.3083754
  62.4628130  52.9561610  16.0131814  63.2491219  52.5381033  15.6622231
  62.7266834  53.8607702  16.1813462  62.6338207  58.3934460  10.7120471
  61.9984040  58.4669086  11.4241375  62.3035613  58.9828059  10.0339550
  67.8636557  52.8936843  16.9164792  68.5961729  52.3236060  17.1502622
  67.1075912  52.5058443  17.3571298  57.1381135  55.8553937  10.4081446
  57.0217394  55.1798841  11.0762530  57.2483395  55.3686311   9.5913599
  59.4812676  55.3164084  14.1128135  59.1170884  54.7894705  14.8241056
  60.3379792  54.9262553  13.9394620  65.3861977  46.6058417  21.3759401
  65.0545302  47.4753828  21.1520616  64.7907590  46.2894701  22.0553431
  59.1218163  50.3453984   9.1089483  59.2892566  51.2134220   9.4759954
  58.9315332  50.5081266   8.1850773  61.8793497  58.8070963  20.7755314
  61.5794220  59.7096002  20.6671121  61.5344556  58.5403146  21.6276467
  55.3305978  55.2584760  16.8092018  54.4056474  55.1260974  17.0169710
  55.5790391  56.0378979  17.3061960  65.2790640  51.3253503  18.4552751
  64.3707518  51.2568912  18.1611512  65.2278236  51.8025448  19.2834576
  59.1007384  52.8011642  10.0936150  58.9807009  53.2468692  10.9321630
  58.4059973  53.1496959   9.5349688  52.6914789  54.9018033  17.6435807
  52.8207170  55.1552512  18.5575219  52.0112240  55.4945741  17.3240462
  56.8614276  65.5715283  13.7426281  56.7838306  66.5223108  13.8214762
  56.2575920  65.2261156  14.4001208  59.3531506  52.7443149  26.3987648
  58.5764840  53.3037069  26.3890513  59.9922069  53.2299932  26.9202518
  67.1452287  49.5269942  20.2330625  66.5026667  49.8202475  19.5870419
  66.6407215  49.4122862  21.0383822  64.7992450  53.2733115  10.9216484
  65.7110307  53.5060501  10.7464182  64.2902097  53.8570159  10.3591563
  57.6077878  55.5528602  25.9605615  58.3492563  56.0913646  25.6840439
  56.9014864  56.1794891  26.1177167  63.0833218  57.6957743  24.5577777
  63.4916574  57.2540153  23.8132409  62.3610480  57.1210370  24.8111970
  59.4364288  52.6330349  21.9311334  60.2825483  53.0569763  22.0745983
  59.3762926  51.9763974  22.6249897  63.4062033  58.2558933  18.3130066
  62.7770895  58.4204647  17.6106133  63.0187695  58.6700543  19.0841030
  67.2851265  59.1913371  15.6674429  66.6002303  59.5712272  15.1171463
  67.3695114  59.8008698  16.4006377  62.5863733  50.2934718  23.5892507
  62.3424665  51.0476778  23.0526783  62.8623664  50.6720065  24.4239754
  64.5402196  56.8373330  22.2669773  64.7519091  57.4805090  21.5904154
  64.4931944  56.0035647  21.7991703  62.1428425  49.4491151  19.1706345
  61.2812904  49.7472404  19.4623083  62.1690860  49.6661550  18.2387378
  58.9589995  57.9933341  15.5780151  59.4228340  58.2721044  14.7884773
  58.6946793  57.0916786  15.3953241  55.8514076  57.5404823  18.5159914
  56.4215433  57.9692091  17.8777398  56.4422187  57.2587408  19.2144100
  57.8958881  54.1156494  12.3869716  58.5982924  54.5677537  12.8543642
  57.5639509  53.4740313  13.0149609  56.3439242  52.7068250  26.7620925
  55.7137903  53.3884531  26.9956322  56.2375330  52.5951332  25.8174063
  51.6384215  52.3740046  17.6886849  50.8483269  52.6297575  17.2126960
  52.1295462  53.1888384  17.7938890  65.6548024  59.7145285  20.4392130
  66.4765468  59.3125473  20.1574812  65.6510427  59.6113520  21.3908246
  53.5898960  52.7384626  14.6470326  52.7930123  52.8503320  15.1653822
  53.3624552  53.0771278  13.7811217  59.4204628  59.2629329  22.5952841
  59.4849060  59.7249736  23.4311013  58.7115551  58.6326694  22.7235151
  49.9221918  52.6270537  20.1201840  50.1729956  53.5117547  20.3859416
  50.4581466  52.4475138  19.3476932  73.7454017  56.0584034  16.7877102
  72.9917726  55.4891432  16.6321106  73.8801558  56.0246698  17.7347736
  59.1352645  60.9297436  12.4631821  58.9998320  61.7748972  12.8916669
  59.6762458  61.1316714  11.6997755  55.6219985  47.0089016  29.1246176
  55.2286930  46.4555215  29.7993821  56.4386125  47.3199595  29.5152694
  52.5882043  58.4472874  13.0359746  53.1006563  59.2416125  13.1865311
  53.2404755  57.7499165  12.9693348  54.3976927  61.5638631  15.1182499
  54.5743556  62.4856595  14.9303483  55.1933761  61.2497050  15.5476879
  58.5387946  48.4246895  26.7166433  59.2797659  49.0254048  26.6370895
  58.7705869  47.6824533  26.1584475  53.6829284  53.6103262  24.9944663
  53.5682799  52.7088520  25.2951761  52.8273802  53.8566959  24.6429479
  60.7621122  61.5521003  26.5932163  60.3184976  60.7657381  26.2753068
  61.4238335  61.7400153  25.9276054  55.5208243  63.0816804  21.1192842
  56.0715668  62.9533868  20.3469836  54.6819719  63.3811693  20.7687734
  62.8602360  61.8323803  24.6213564  62.8420835  62.6532684  24.1293834
  63.7822280  61.7077878  24.8463706  59.3175414  59.3467932  25.4637073
  59.8503751  58.5856220  25.2336381  58.7889495  59.0541584  26.2061227
  62.4845109  44.4527998  20.9930715  62.1409378  45.3429640  20.9169825
  62.8524071  44.2629656  20.1300300  50.5530959  56.7761529  13.8119317
  51.3906181  57.1858537  13.5953024  50.7309227  55.8360971  13.7819511
  62.4495392  54.4436609   9.5003150  61.9342015  55.2141214   9.7391537
  62.1772700  53.7701745  10.1236211  60.0342503  49.2886310  14.5588388
  59.1784099  48.8993160  14.3794027  60.4469454  49.3678271  13.6988174
  61.5641649  46.8232653  18.9579948  61.0606445  46.7862788  18.1447753
  61.8572256  47.7325396  19.0176604  57.8084535  46.9071383  17.9646130
  58.6737532  46.7114192  17.6052019  57.8762044  46.6781735  18.8915486
  67.4229666  57.1968964  11.4356323  66.6459108  56.8580123  10.9911485
  68.1021147  57.2021587  10.7611288  62.2381695  52.3163701  11.3262931
  61.9331830  52.6309851  12.1773074  63.1912137  52.3945121  11.3690264
  60.6828127  58.4753925  12.9755885  60.1549488  57.7406684  12.6629122
  60.1815629  59.2528601  12.7295853  65.6620973  56.6702945  18.0922931
  65.0044647  57.3602207  18.1803060  66.4661372  57.0599377  18.4356917
  55.4146854  49.1373591  15.3362496  55.9890606  48.9148772  14.6035689
  56.0017837  49.2062285  16.0891098  64.4726431  55.0247318  16.1426873
  64.9858313  55.6577310  16.6448583  65.1227655  54.4248513  15.7770233
  55.7416441  51.1678052   9.3558382  54.9053754  51.5052739   9.6767656
  55.6021211  51.0327032   8.4185519  57.7169522  46.0114840  14.0637566
  57.0633934  45.6963857  13.4394181  57.6749996  45.3890580  14.7897389
  58.8280727  56.2934135   5.9790858  57.9207788  56.0623388   6.1782007
  59.3251759  55.4971754   6.1664839  61.7348806  65.0031642   8.8987544
  61.0610504  65.3063339   9.5072502  62.1214628  65.8060722   8.5493001
  60.9507262  52.4996773  18.3885213  60.0329824  52.7211720  18.2306901
  61.3667406  52.5743084  17.5296921  61.7342310  53.8988189  13.5187894
  62.4814129  54.4109586  13.2095016  62.0033900  53.5772242  14.3792287
  60.0068960  56.3946730  10.5014848  59.0980179  56.1105763  10.5987318
  60.0364044  56.8145808   9.6418155  65.2388228  60.0053319  14.2706015
  64.7850555  59.1644229  14.3271206  64.6082194  60.6414718  14.6080796
  64.1821147  50.9345305  15.5006683  63.4443904  50.4222692  15.8316926
  64.4347921  50.4945687  14.6889960  63.6821167  61.8429816  15.2055834
  63.9744141  62.4034873  14.4868199  64.1919787  62.1358377  15.9608993
  64.2832774  43.7121557  16.0948452  64.5891651  42.8518921  15.8074367
  65.0085379  44.3039178  15.8947446  50.5757131  54.1152244  14.4830050
  50.3781530  53.5221605  13.7581117  50.0203795  53.8104454  15.2005989
  58.5553854  54.0075350  16.6024643  58.6102464  53.0549187  16.5267120
  57.7445056  54.1634790  17.0865942  59.7045048  57.9355473   7.8402927
  59.2664478  57.2191332   7.3808564  60.4455489  58.1631588   7.2788018
  56.4946214  52.6252410  14.3615022  55.6814080  52.9246581  14.7680214
  56.9905208  52.2308099  15.0789504  58.6454792  62.6210167  16.2949287
  58.6030971  62.8471013  15.3657819  59.5617491  62.3873542  16.4435088
  62.0920426  53.0894235  23.1929916  62.4469814  53.3165708  24.0524382
  62.7392557  53.4212611  22.5707171  67.8218163  56.2112671  13.8979245
  67.6836061  56.4014266  12.9700434  67.4654382  56.9732053  14.3547296
  55.9860289  50.1970766  19.9776257  56.6259668  50.0559525  19.2799220
  55.1537819  49.9105279  19.6014859  67.8487542  58.2789198  18.9090517
  68.2824049  58.1864487  19.7573571  68.5619123  58.2546698  18.2710533
  56.7620593  59.4973196  16.0911250  57.5561191  59.0023516  15.8893825
  56.0512285  58.9691059  15.7278955  61.5815437  61.8791292  20.4423617
  61.6352460  62.4482228  21.2101333  60.7130219  62.0493177  20.0777654
  53.0703356  53.6416278  12.1671002  52.1400944  53.5800733  12.3840964
  53.1660828  53.1192231  11.3707643  52.9888905  50.1671091  14.7549244
  53.2495723  51.0816424  14.6458404  53.8106078  49.6995533  14.9045857
  54.4613831  51.5808848  21.9248068  55.1336884  51.3726210  21.2760717
  53.6343617  51.3830934  21.4853301  68.7103092  58.3212898  21.4423402
  68.9038982  59.2258709  21.6882677  68.6103710  57.8620317  22.2761987
  60.3639403  48.2070789  23.9413729  59.7167318  48.9060738  23.8478206
  61.1340418  48.6406933  24.3089978  63.7718201  58.4719641  27.0164283
  63.6203707  58.2430193  26.0994366  63.7622880  59.4290242  27.0295628
  60.5403537  56.0451554  22.0010549  61.4695597  56.1962713  21.8279516
  60.1194567  56.1335574  21.1459196  59.3391869  60.0702218  19.7709087
  59.2002954  59.7021002  20.6435025  58.5506465  60.5849858  19.5993044
  59.9340021  65.1711315  11.1134623  60.1091776  64.6999358  11.9280246
  59.2472809  65.7977081  11.3415884  60.8897084  59.4483821  17.1597924
  60.5546917  59.4084591  18.0555574  60.3901030  58.7828537  16.6868335
  54.8641328  54.8551451  22.6850506  54.7261126  54.1231690  23.2862045
  55.7746251  54.7660351  22.4034693  63.8256276  56.7939855   7.4334984
  63.2085446  56.0686683   7.3368037  63.3572764  57.5549215   7.0902058
  57.4923629  54.5671410  22.1734185  58.2023247  53.9264602  22.1320804
  57.4492937  54.8184305  23.0960366  65.4810407  61.5038763  25.0940764
  65.4222953  60.8197984  24.4271347  65.8829926  62.2457753  24.6421390
  56.2052563  51.5536628  23.9929825  55.6689920  51.1027366  24.6451421
  55.6169271  51.6882537  23.2500289  54.5001106  68.3200677  17.8874483
  54.7397704  68.9519201  18.5653502  53.6570303  67.9688717  18.1739843
  55.6154822  51.0125279   6.5556288  54.7384288  50.8914080   6.1918535
  56.0912575  50.2211358   6.3035177  65.4827815  59.4678347  23.3254744
  64.5954593  59.1304269  23.4481143  66.0526366  58.7361379  23.5623510
  47.1356962  55.8002439  16.6497796  47.8228001  55.4864169  16.0618811
  46.9805090  56.7043804  16.3765047  51.9391684  50.6892636  21.0782819
  51.8549873  50.0818305  20.3433229  51.1174390  51.1801654  21.0792316
  59.0128968  64.1279800  20.2915987  58.9399139  64.9334771  20.8035292
  58.5706361  64.3271766  19.4664009  58.8018748  63.3651570  13.8018809
  58.0186269  63.9073250  13.8957033  59.5011493  63.8825549  14.2013050
  62.1115398  49.1746199  16.4453014  62.6084097  48.4216162  16.1254084
  61.3402379  49.2110516  15.8796224  69.9645155  54.8786565  18.0871306
  69.9535031  55.7611280  17.7165239  69.0962534  54.5258116  17.8925843
  61.4727651  64.0266634  22.4474146  62.1855624  64.6614099  22.3750047
  60.9817680  64.1230500  21.6314148  63.1945178  57.9317886  14.0191438
  62.2601457  58.0519349  13.8496142  63.3721847  57.0290353  13.7551447
  58.6950366  51.3163582  16.1724699  58.3248154  50.7634623  16.8605604
  59.1909459  50.7121716  15.6199699  66.5817730  53.7735206  14.5541472
  67.0478182  54.6063197  14.4801774  67.0325230  53.3080187  15.2586730
  56.5239565  61.7761077  23.2679717  57.2249024  62.4097560  23.4209111
  56.0534680  62.1175809  22.5075356  64.6493961  60.1179027  11.5527624
  64.9253805  60.0035622  12.4621498  63.7798460  59.7196512  11.5139797
  64.5534392  46.1415793  18.5932373  63.6397472  46.3720020  18.7614580
  64.9827494  46.2254237  19.4446405  64.3240851  54.3305685  21.0932267
  63.6712301  54.5781592  20.4384720  64.7021231  53.5169823  20.7594744
  61.2848025  64.3665378  15.1960437  61.4670419  63.5487034  15.6588190
  62.1081011  64.5833070  14.7585327  61.6190190  63.2933563  12.4575486
  62.1477957  62.7826018  11.8445648  61.8818410  62.9776093  13.3221019
  60.3728424  55.0725496  27.5798304  59.6969061  54.9719625  28.2500679
  61.1956058  54.9164710  28.0434301  52.1207283  61.3097432  20.2010819
  52.7060720  60.5641120  20.3338724  51.9232121  61.6201389  21.0847483
  54.9745938  64.3448680  15.2173262  54.3056314  64.8294807  14.7337302
  54.8358808  64.5917900  16.1316640  46.7124938  53.8803033  18.9215263
  46.7509037  53.3466623  19.7152381  46.2065231  53.3538238  18.3026240
  59.1151207  66.3792423  21.8155920  59.6669515  66.5424045  22.5805005
  59.4557400  66.9696861  21.1435945  54.0915700  48.7267573  22.4177805
  54.1557027  49.5882404  22.0055203  54.0282820  48.1141575  21.6850163
  53.5667973  50.7990706  26.0650839  54.1940011  50.4167783  26.6788364
  52.7095891  50.5804907  26.4306532  50.3433515  52.6067135  11.9969194
  50.6386956  51.6977813  11.9436248  49.4421551  52.5854874  11.6750196
  62.2519594  64.3274399  18.8019602  62.1270734  63.5264139  18.2930548
  62.9098685  64.8220592  18.3133572  53.8727762  50.6823131  17.9796743
  53.1514348  51.2959099  17.8404216  54.6621018  51.2180896  17.9013389
  64.3154503  62.1283419  20.4299152  63.3684838  62.0088770  20.3577479
  64.6637276  61.2405917  20.5125414  56.6754076  48.0177558  24.2537394
  57.1988478  48.2639854  25.0163704  56.4566409  48.8497593  23.8340532
  52.0721357  50.2881232  12.1208519  51.7434063  49.4078611  11.9383625
  52.4260728  50.2328901  13.0084908  61.3200936  61.9236135  16.6303505
  61.1725898  60.9952842  16.8111075  62.1454429  61.9456226  16.1460580
  55.1863180  50.5754202  12.4883997  55.5259253  51.1040123  11.7662605
  55.6335301  50.9134608  13.2642563  64.9235058  62.7464694  17.7168377
  65.8481605  62.5407555  17.5792829  64.7550361  62.4981095  18.6257719
  57.8806621  48.9591253  21.9387065  57.5403441  48.1599066  22.3407745
  57.1745627  49.2592964  21.3663898  58.5323093  46.0440565  20.3914388
  59.3549162  45.5701043  20.2693278  58.7761156  46.8231049  20.8913074
  57.1731327  49.0728824  10.6877290  57.8939690  49.4510077  10.1841006
  56.5496631  49.7917701  10.7912268  61.3162450  49.7773973  11.6235622
  61.5326065  50.6598611  11.3224450  60.8356517  49.3860186  10.8941264
  56.0561672  52.7359686  18.2006367  55.9106252  53.0499989  19.0930648
  55.5786875  53.3544586  17.6477265  57.9158054  49.7262234  18.2487256
  57.9019623  48.8303327  17.9119554  58.6330482  49.7332898  18.8825542
  59.7684185  50.1599574  20.2940384  59.5101963  51.0816645  20.2924714
  59.2369225  49.7630009  20.9840848  64.7130374  63.2650361  13.0730469
  64.8867251  62.6996784  12.3204321  65.2059265  64.0651256  12.8909959
  50.5307334  55.2765030  21.1394028  49.9860802  56.0524838  21.2714302
  51.4086684  55.6235835  20.9813149  57.3194950  48.6076614  13.5174826
  57.4410862  47.6793260  13.7165714  57.0296993  48.6215300  12.6053142
  60.1886141  46.2931525  16.6541546  60.2107838  46.3570858  15.6993526
  60.6054200  45.4536033  16.8482052  70.5669765  56.0286784  14.6920769
  71.0100911  55.2794109  14.2939892  69.6896275  56.0196921  14.3094501
  65.7005546  62.5817126  10.1727367  66.3956451  63.2023818  10.3914682
  66.0428696  61.7312477  10.4479745  51.3173356  54.4034927  24.0324185
  50.5755092  54.5517562  24.6188815  50.9966100  54.6643192  23.1690934
  67.5996969  60.0316831  11.7014698  68.1248294  60.3704104  10.9764018
  67.5119322  59.0963846  11.5177833  59.2617018  63.9450905  23.8304575
  59.5704145  63.7000052  24.7027274  60.0592500  64.1497543  23.3423445
  59.2837630  66.0988814  16.0609951  58.8442621  65.6065193  16.7542808
  60.0345747  65.5561782  15.8202026  51.7629969  62.2900355  16.0634579
  52.5887989  61.9904127  15.6833223  51.4124021  61.5207978  16.5124368
  56.7311502  61.6426824  18.1332253  56.1091512  60.9797529  17.8334481
  57.4016369  61.6687955  17.4505901  49.9638574  60.2086682  17.0223513
  49.1270483  59.7808856  16.8407514  49.9362220  60.4019125  17.9594304
  56.8036030  50.1208612  27.7264759  56.8524185  50.9970734  27.3442528
  57.3458544  49.5786005  27.1536402  67.2890876  60.6649735  27.0065896
  66.4986419  60.6473874  26.4670395  67.0524230  61.2038028  27.7614933
  67.4088751  57.5142201  24.3198624  67.4586756  57.3492209  25.2614147
  67.3002674  56.6469460  23.9296505  56.2925009  60.1930747  11.6090713
  56.4413130  60.8766211  10.9557386  57.0991453  60.1735837  12.1240169
  64.6992513  53.4973129  25.6357931  65.6002376  53.3579594  25.3441929
  64.7740487  53.6627584  26.5756109  59.0335318  50.8739984  24.4811117
  58.1638628  51.1673550  24.2093706  59.2694799  51.4580429  25.2018381
  68.9106947  59.9339143  24.5640646  68.6191756  60.2969123  25.4004107
  68.2979079  59.2206151  24.3853978  70.1102630  57.4992022  17.0843216
  70.9449521  57.9381827  17.2480777  70.2461759  57.0230676  16.2651462
  67.1594136  55.0571757  23.0320704  67.6348257  55.2499404  22.2239555
  66.2359701  55.1130943  22.7864088  54.0477642  56.2195925  12.6151782
  53.8023684  55.3158254  12.8131992  54.2173557  56.2213075  11.6731260
  61.7374352  47.0919601  21.9976538  62.2556296  47.8280628  21.6723026
  61.3829485  47.3983594  22.8323297  53.3173290  51.9524282  10.1137944
  52.6242535  52.0268637   9.4577980  53.0725042  51.1884626  10.6359461
  61.9886946  43.5119883  17.5177434  62.2688700  42.8443072  18.1437861
  62.7737553  43.7048979  17.0052098  59.7920415  62.6878877   9.0802461
  59.2194382  63.3069064   8.6272933  60.3653208  63.2378239   9.6142383
  65.8595805  51.9337517  21.2649010  66.8113228  52.0335615  21.2861234
  65.6899255  51.1415786  21.7747094  63.8810184  49.0193101  21.4508411
  63.2860116  49.2998113  20.7554899  63.5959881  49.5087002  22.2225152
  63.0117675  62.9716027  10.2111043  63.9448348  62.9061589  10.4143919
  62.9240887  63.8072294   9.7525576  65.6405691  62.2881898   7.1714991
  65.5619323  61.9541761   8.0650749  66.4615358  62.7803666   7.1706463
  68.3383882  55.1543637  20.3791309  68.3060203  54.2159638  20.5650993
  68.9484506  55.2327674  19.6457134  60.1767213  54.0239690   6.4218513
  61.1226318  53.8945898   6.4906931  59.7981458  53.2854352   6.8987941
  68.4878371  51.9454681  20.4249592  67.9717420  51.1613137  20.2379521
  69.3718319  51.6173397  20.5896112  66.1489098  45.6895696  16.3845405
  65.9513919  45.3810784  17.2688737  66.7588803  46.4157335  16.5143335
  74.1560432  56.2159644  19.5197346  74.8863821  55.9544932  20.0805049
  73.5467378  55.4788366  19.5599414  72.2375729  54.3567507  20.1171797
  71.5108893  54.2223471  19.5088289  71.8223016  54.6644335  20.9228515
  58.3610130  51.9489666   6.3573399  57.4541586  51.6522779   6.4336112
  58.6386111  51.6519485   5.4907685  49.2788071  53.2696030  16.8072445
  48.9590855  52.4161338  16.5146819  48.7321499  53.4844608  17.5630412
  53.0567978  55.9858471  20.5241951  53.2753988  56.9175579  20.5429985
  53.4693752  55.6266445  21.3096755  59.9772196  46.4926556  12.5117640
  59.1672924  46.1473641  12.8872886  60.6656613  46.1834100  13.1005251
  61.9062744  45.5704603  14.1341936  62.4593783  45.9900056  14.7931960
  62.1432831  44.6440351  14.1764892  57.9295844  51.5591677  29.9144700
  57.8292571  52.5086034  29.8456791  57.7117386  51.2309916  29.0420770
  57.1308915  48.8076602   6.4985378  57.9928079  49.1331500   6.7581195
  57.3159259  48.0208098   5.9858443  49.1476331  56.8898941  18.7765566
  48.4539802  56.4752894  18.2635521  49.8949322  56.9319478  18.1798985
  65.2841552  47.6805128  13.6420601  64.7040221  48.3389932  13.2598653
  65.0177484  46.8582473  13.2308018  63.7345118  47.0810186  15.8441921
  64.2344896  47.1926720  15.0356240  64.3780726  46.7771239  16.4842729
  51.0613073  56.8217195  16.6531581  51.0383761  56.9204882  15.7013464
  51.3713710  57.6682346  16.9748747  53.7200451  58.8793350  20.7678196
  54.6743705  58.8477292  20.7008127  53.5212975  58.4183974  21.5828422
  54.3099833  57.4494466  23.3348993  55.1292722  57.9438545  23.3583831
  54.5836641  56.5326434  23.3066561  64.0666430  49.8405219  12.6976949
  63.1792285  50.1254869  12.4797144  64.4820419  49.6798982  11.8504226
  67.4180966  49.8651739  16.4131288  68.1941356  50.3548192  16.6855905
  66.6929100  50.2909794  16.8703158  69.8553524  50.5779359  17.4705229
  70.4498015  50.3375095  16.7598537  69.9280108  49.8586489  18.0978765
  52.0750680  64.4212970  17.7848394  51.9405148  63.6613371  17.2186392
  51.6582742  65.1453870  17.3177183  63.2109643  59.6049893   6.7924969
  63.9145493  59.8099896   7.4082625  62.4872292  60.1726655   7.0574052
  64.0407453  55.3559754  12.9127239  63.9842655  55.8128306  12.0734872
  64.5935796  54.5950439  12.7350082  67.8512259  51.1449486  13.7377359
  67.5949193  50.7446122  14.5685566  67.2265127  51.8593280  13.6127498
  72.1624597  53.8845560  16.2448650  71.6024155  53.9538749  17.0180212
  71.5568100  53.7086544  15.5248146  55.2319806  65.3182287  17.9966836
  55.1152190  66.2627719  17.8945527  54.4112252  65.0155848  18.3852636
  65.1196340  60.0432422   8.8423429  65.9541944  59.6113621   8.6600904
  64.9580683  59.8714436   9.7700323  64.7742233  56.5464536  10.2079768
  64.7191036  56.3808807   9.2668212  64.1488288  57.2540569  10.3641958
  49.5634748  51.7832600  24.0341191  50.2093611  51.2731554  24.5228416
  49.3551899  52.5201282  24.6084616  58.0838358  46.0472645   9.7865087
  58.0717028  46.9914485   9.9433358  58.9761780  45.8642790   9.4924548
  56.2574320  65.9710549  21.2122765  57.1601567  66.0034159  21.5289260
  56.0311690  65.0411000  21.2269101  58.0127922  64.7241535  17.8732843
  57.0623553  64.7243397  17.7597216  58.3160408  63.9774270  17.3568878
  61.8990478  42.6415421  14.0411023  61.1322873  42.0873908  14.1867706
  62.3101183  42.7137290  14.9025175  53.9032239  48.9300217  28.1316205
  54.7663700  48.5737022  28.3419529  53.3297649  48.5914112  28.8191609
  73.7480616  70.5602074  18.9378606  74.3859025  70.4408821  18.2341946
  73.6301458  71.5082917  18.9966558  70.5570322  70.5129502  18.8740130
  70.2188833  70.3970566  17.9860665  71.4260090  70.1120667  18.8541137
  66.4157138  72.3664978  14.8637021  65.8522003  72.2754915  14.0953309
  66.3009533  71.5464882  15.3439514  71.0390105  71.6664353  24.8326336
  71.0278746  71.2717152  23.9606840  71.2010744  70.9330426  25.4260107
  63.9621569  73.8616170  17.7021242  64.7542861  73.5206994  17.2867541
  64.2018220  73.9711145  18.6223395  71.9956696  76.0335946  10.1751486
  71.3444676  76.6190026   9.7885500  72.7901059  76.5642141  10.2346524
  65.9212323  73.1225083  10.5738621  66.6943199  72.5754070  10.4351496
  66.2737722  73.9869332  10.7853082  67.7597366  74.4501465  23.7805520
  67.4687232  75.3547096  23.6652186  68.3954350  74.4917993  24.4949590
  68.6853573  71.8278314  20.3706880  69.2817145  71.6034336  19.6563843
  68.7428544  71.0863059  20.9732327  68.2578601  69.2817749   8.2057071
  68.5104122  68.7599270   7.4440534  67.3203160  69.1183894   8.3083754
  73.3021884  68.2853527  16.0131814  74.0884973  67.8672951  15.6622231
  73.5660588  69.1899620  16.1813462  73.4731961  73.7226378  10.7120471
  72.8377794  73.7961004  11.4241375  73.1429368  74.3119976  10.0339550
  78.7030311  68.2228761  16.9164792  79.4355483  67.6527977  17.1502622
  77.9469667  67.8350361  17.3571298  67.9774890  71.1845855  10.4081446
  67.8611148  70.5090758  11.0762530  68.0877150  70.6978229   9.5913599
  70.3206431  70.6456002  14.1128135  69.9564638  70.1186623  14.8241056
  71.1773547  70.2554471  13.9394620  76.2255731  61.9350335  21.3759401
  75.8939056  62.8045746  21.1520616  75.6301345  61.6186619  22.0553431
  69.9611918  65.6745902   9.1089483  70.1286320  66.5426138   9.4759954
  69.7709087  65.8373183   8.1850773  72.7187251  74.1362881  20.7755314
  72.4187974  75.0387919  20.6671121  72.3738311  73.8695064  21.6276467
  66.1699732  70.5876677  16.8092018  65.2450229  70.4552892  17.0169710
  66.4184146  71.3670897  17.3061960  76.1184395  66.6545421  18.4552751
  75.2101272  66.5860829  18.1611512  76.0671991  67.1317366  19.2834576
  69.9401139  68.1303559  10.0936150  69.8200764  68.5760610  10.9321630
  69.2453727  68.4788877   9.5349688  63.5308544  70.2309951  17.6435807
  63.6600925  70.4844430  18.5575219  62.8505995  70.8237659  17.3240462
  67.7008031  80.9007201  13.7426281  67.6232061  81.8515026  13.8214762
  67.0969674  80.5553073  14.4001208  77.9846041  64.8561859  20.2330625
  77.3420421  65.1494392  19.5870419  77.4800970  64.7414780  21.0383822
  75.6386205  68.6025032  10.9216484  76.5504061  68.8352419  10.7464182
  75.1295852  69.1862077  10.3591563  73.9226973  73.0249660  24.5577777
  74.3310329  72.5832071  23.8132409  73.2004234  72.4502288  24.8111970
  70.2758043  67.9622267  21.9311334  71.1219238  68.3861681  22.0745983
  70.2156680  67.3055891  22.6249897  74.2455787  73.5850851  18.3130066
  73.6164650  73.7496565  17.6106133  73.8581449  73.9992460  19.0841030
  78.1245019  74.5205289  15.6674429  77.4396057  74.9004190  15.1171463
  78.2088868  75.1300615  16.4006377  73.4257488  65.6226635  23.5892507
  73.1818420  66.3768696  23.0526783  73.7017418  66.0011983  24.4239754
  75.3795951  72.1665248  22.2669773  75.5912846  72.8097008  21.5904154
  75.3325699  71.3327564  21.7991703  72.9822180  64.7783068  19.1706345
  72.1206659  65.0764322  19.4623083  73.0084614  64.9953467  18.2387378
  69.7983749  73.3225259  15.5780151  70.2622095  73.6012962  14.7884773
  69.5340547  72.4208704  15.3953241  66.6907830  72.8696741  18.5159914
  67.2609187  73.2984009  17.8777398  67.2815942  72.5879325  19.2144100
  68.7352635  69.4448411  12.3869716  69.4376678  69.8969455  12.8543642
  68.4033264  68.8032230  13.0149609  62.4777969  67.7031964  17.6886849
  61.6877023  67.9589493  17.2126960  62.9689216  68.5180302  17.7938890
  76.4941779  75.0437203  20.4392130  77.3159222  74.6417390  20.1574812
  76.4904182  74.9405437  21.3908246  64.4292714  68.0676543  14.6470326
  63.6323878  68.1795237  15.1653822  64.2018307  68.4063195  13.7811217
  70.2598382  74.5921246  22.5952841  70.3242815  75.0541654  23.4311013
  69.5509306  73.9618611  22.7235151  60.7615672  67.9562454  20.1201840
  61.0123710  68.8409464  20.3859416  61.2975220  67.7767056  19.3476932
  84.5847772  71.3875952  16.7877102  83.8311480  70.8183350  16.6321106
  84.7195313  71.3538616  17.7347736  69.9746400  76.2589354  12.4631821
  69.8392075  77.1040890  12.8916669  70.5156212  76.4608632  11.6997755
  63.4275797  73.7764792  13.0359746  63.9400318  74.5708042  13.1865311
  64.0798510  73.0791082  12.9693348  65.2370682  76.8930548  15.1182499
  65.4137310  77.8148513  14.9303483  66.0327515  76.5788967  15.5476879
  71.6014876  76.8812920  26.5932163  71.1578730  76.0949299  26.2753068
  72.2632090  77.0692071  25.9276054  66.3601997  78.4108722  21.1192842
  66.9109422  78.2825785  20.3469836  65.5213473  78.7103611  20.7687734
  73.6996114  77.1615720  24.6213564  73.6814590  77.9824601  24.1293834
  74.6216034  77.0369796  24.8463706  70.1569168  74.6759850  25.4637073
  70.6897505  73.9148138  25.2336381  69.6283249  74.3833502  26.2061227
  73.3238863  59.7819916  20.9930715  72.9803133  60.6721558  20.9169825
  73.6917826  59.5921573  20.1300300  61.3924714  72.1053446  13.8119317
  62.2299936  72.5150455  13.5953024  61.5702982  71.1652888  13.7819511
  73.2889146  69.7728527   9.5003150  72.7735769  70.5433132   9.7391537
  73.0166454  69.0993663  10.1236211  70.8736257  64.6178228  14.5588388
  70.0177853  64.2285078  14.3794027  71.2863209  64.6970189  13.6988174
  72.4035404  62.1524571  18.9579948  71.9000199  62.1154706  18.1447753
  72.6966011  63.0617314  19.0176604  68.6478290  62.2363301  17.9646130
  69.5131286  62.0406109  17.6052019  68.7155798  62.0073652  18.8915486
  78.2623420  72.5260882  11.4356323  77.4852863  72.1872041  10.9911485
  78.9414901  72.5313505  10.7611288  73.0775449  67.6455619  11.3262931
  72.7725585  67.9601768  12.1773074  74.0305891  67.7237039  11.3690264
  71.5221881  73.8045842  12.9755885  70.9943243  73.0698602  12.6629122
  71.0209384  74.5820519  12.7295853  76.5014727  71.9994863  18.0922931
  75.8438402  72.6894124  18.1803060  77.3055126  72.3891295  18.4356917
  66.2540609  64.4665509  15.3362496  66.8284361  64.2440690  14.6035689
  66.8411591  64.5354203  16.0891098  75.3120186  70.3539236  16.1426873
  75.8252068  70.9869227  16.6448583  75.9621410  69.7540431  15.7770233
  66.5810196  66.4969970   9.3558382  65.7447508  66.8344656   9.6767656
  66.4414965  66.3618949   8.4185519  68.5563276  61.3406758  14.0637566
  67.9027689  61.0255775  13.4394181  68.5143751  60.7182498  14.7897389
  69.6674481  71.6226053   5.9790858  68.7601543  71.3915306   6.1782007
  70.1645513  70.8263672   6.1664839  72.5742560  80.3323560   8.8987544
  71.9004259  80.6355257   9.5072502  72.9608382  81.1352640   8.5493001
  71.7901017  67.8288691  18.3885213  70.8723578  68.0503638  18.2306901
  72.2061160  67.9035002  17.5296921  72.5736064  69.2280107  13.5187894
  73.3207883  69.7401504  13.2095016  72.8427654  68.9064159  14.3792287
  70.8462715  71.7238647  10.5014848  69.9373934  71.4397680  10.5987318
  70.8757798  72.1437726   9.6418155  76.0781982  75.3345237  14.2706015
  75.6244309  74.4936147  14.3271206  75.4475949  75.9706635  14.6080796
  75.0214902  66.2637223  15.5006683  74.2837658  65.7514609  15.8316926
  75.2741675  65.8237605  14.6889960  74.5214921  77.1721734  15.2055834
  74.8137896  77.7326791  14.4868199  75.0313542  77.4650295  15.9608993
  75.1226529  59.0413475  16.0948452  75.4285406  58.1810838  15.8074367
  75.8479134  59.6331095  15.8947446  61.4150885  69.4444162  14.4830050
  61.2175285  68.8513522  13.7581117  60.8597549  69.1396372  15.2005989
  69.3947609  69.3367268  16.6024643  69.4496218  68.3841104  16.5267120
  68.5838811  69.4926707  17.0865942  70.5438802  73.2647391   7.8402927
  70.1058232  72.5483250   7.3808564  71.2849243  73.4923506   7.2788018
  67.3339969  67.9544328  14.3615022  66.5207834  68.2538498  14.7680214
  67.8298963  67.5600017  15.0789504  69.4848547  77.9502085  16.2949287
  69.4424725  78.1762931  15.3657819  70.4011245  77.7165459  16.4435088
  72.9314180  68.4186152  23.1929916  73.2863568  68.6457625  24.0524382
  73.5786312  68.7504529  22.5707171  78.6611917  71.5404588  13.8979245
  78.5229816  71.7306184  12.9700434  78.3048136  72.3023971  14.3547296
  66.8254043  65.5262683  19.9776257  67.4653423  65.3851442  19.2799220
  65.9931574  65.2397197  19.6014859  78.6881297  73.6081115  18.9090517
  79.1217804  73.5156404  19.7573571  79.4012878  73.5838616  18.2710533
  67.6014347  74.8265114  16.0911250  68.3954946  74.3315434  15.8893825
  66.8906040  74.2982977  15.7278955  72.4209192  77.2083209  20.4423617
  72.4746214  77.7774146  21.2101333  71.5523973  77.3785094  20.0777654
  63.9097111  68.9708196  12.1671002  62.9794699  68.9092651  12.3840964
  64.0054583  68.4484148  11.3707643  63.8282660  65.4963008  14.7549244
  64.0889477  66.4108342  14.6458404  64.6499832  65.0287451  14.9045857
  65.3007585  66.9100766  21.9248068  65.9730639  66.7018128  21.2760717
  64.4737372  66.7122852  21.4853301  79.5496846  73.6504816  21.4423402
  79.7432737  74.5550626  21.6882677  79.4497465  73.1912235  22.2761987
  71.2033157  63.5362706  23.9413729  70.5561072  64.2352656  23.8478206
  71.9734173  63.9698850  24.3089978  71.3797292  71.3743471  22.0010549
  72.3089352  71.5254631  21.8279516  70.9588322  71.4627492  21.1459196
  70.1785623  75.3994136  19.7709087  70.0396709  75.0312920  20.6435025
  69.3900220  75.9141775  19.5993044  70.7733775  80.5003232  11.1134623
  70.9485531  80.0291275  11.9280246  70.0866563  81.1268998  11.3415884
  71.7290838  74.7775738  17.1597924  71.3940671  74.7376508  18.0555574
  71.2294784  74.1120454  16.6868335  74.6650030  72.1231773   7.4334984
  74.0479201  71.3978601   7.3368037  74.1966519  72.8841133   7.0902058
  68.3317383  69.8963328  22.1734185  69.0417002  69.2556520  22.1320804
  68.2886691  70.1476223  23.0960366  67.0446317  66.8828546  23.9929825
  66.5083674  66.4319284  24.6451421  66.4563025  67.0174455  23.2500289
  65.3394861  83.6492595  17.8874483  65.5791459  84.2811119  18.5653502
  64.4964057  83.2980635  18.1739843  66.4548576  66.3417197   6.5556288
  65.5778042  66.2205998   6.1918535  66.9306329  65.5503275   6.3035177
  57.9750716  71.1294357  16.6497796  58.6621756  70.8156087  16.0618811
  57.8198845  72.0335721  16.3765047  62.7785438  66.0184553  21.0782819
  62.6943627  65.4110223  20.3433229  61.9568145  66.5093572  21.0792316
  69.8522722  79.4571717  20.2915987  69.7792894  80.2626689  20.8035292
  69.4100116  79.6563683  19.4664009  69.6412502  78.6943487  13.8018809
  68.8580024  79.2365168  13.8957033  70.3405247  79.2117467  14.2013050
  72.9509152  64.5038117  16.4453014  73.4477852  63.7508079  16.1254084
  72.1796134  64.5402434  15.8796224  80.8038910  70.2078482  18.0871306
  80.7928786  71.0903198  17.7165239  79.9356289  69.8550033  17.8925843
  72.3121406  79.3558551  22.4474146  73.0249378  79.9906016  22.3750047
  71.8211435  79.4522417  21.6314148  74.0338933  73.2609804  14.0191438
  73.0995212  73.3811267  13.8496142  74.2115601  72.3582271  13.7551447
  69.5344121  66.6455500  16.1724699  69.1641908  66.0926540  16.8605604
  70.0303213  66.0413633  15.6199699  77.4211484  69.1027123  14.5541472
  77.8871936  69.9355115  14.4801774  77.8718985  68.6372105  15.2586730
  67.3633319  77.1052995  23.2679717  68.0642779  77.7389478  23.4209111
  66.8928434  77.4467726  22.5075356  75.4887715  75.4470945  11.5527624
  75.7647559  75.3327539  12.4621498  74.6192214  75.0488430  11.5139797
  75.3928147  61.4707710  18.5932373  74.4791227  61.7011937  18.7614580
  75.8221248  61.5546154  19.4446405  72.1241779  79.6957296  15.1960437
  72.3064174  78.8778951  15.6588190  72.9474765  79.9124988  14.7585327
  72.4583945  78.6225481  12.4575486  72.9871711  78.1117935  11.8445648
  72.7212164  78.3068011  13.3221019  62.9601038  76.6389350  20.2010819
  63.5454474  75.8933038  20.3338724  62.7625876  76.9493307  21.0847483
  65.8139693  79.6740597  15.2173262  65.1450068  80.1586725  14.7337302
  65.6752562  79.9209818  16.1316640  57.5518692  69.2094950  18.9215263
  57.5902792  68.6758541  19.7152381  57.0458985  68.6830156  18.3026240
  69.9544961  81.7084341  21.8155920  70.5063269  81.8715962  22.5805005
  70.2951155  82.2988779  21.1435945  64.9309455  64.0559491  22.4177805
  64.9950781  64.9174322  22.0055203  64.8676575  63.4433492  21.6850163
  61.1827270  67.9359052  11.9969194  61.4780711  67.0269731  11.9436248
  60.2815306  67.9146792  11.6750196  73.0913349  79.6566316  18.8019602
  72.9664488  78.8556056  18.2930548  73.7492440  80.1512510  18.3133572
  64.7121517  66.0115049  17.9796743  63.9908103  66.6251017  17.8404216
  65.5014773  66.5472814  17.9013389  75.1548257  77.4575337  20.4299152
  74.2078593  77.3380688  20.3577479  75.5031030  76.5697835  20.5125414
  67.5147830  63.3469475  24.2537394  68.0382232  63.5931772  25.0163704
  67.2960164  64.1789510  23.8340532  62.9115111  65.6173150  12.1208519
  62.5827818  64.7370529  11.9383625  63.2654482  65.5620819  13.0084908
  72.1594690  77.2528053  16.6303505  72.0119653  76.3244760  16.8111075
  72.9848184  77.2748143  16.1460580  66.0256935  65.9046120  12.4883997
  66.3653007  66.4332041  11.7662605  66.4729055  66.2426526  13.2642563
  75.7628812  78.0756611  17.7168377  76.6875360  77.8699473  17.5792829
  75.5944116  77.8273013  18.6257719  68.7200375  64.2883171  21.9387065
  68.3797196  63.4890984  22.3407745  68.0139382  64.5884881  21.3663898
  69.3716847  61.3732483  20.3914388  70.1942917  60.8992961  20.2693278
  69.6154911  62.1522967  20.8913074  68.0125082  64.4020741  10.6877290
  68.7333444  64.7801994  10.1841006  67.3890386  65.1209618  10.7912268
  72.1556205  65.1065890  11.6235622  72.3719819  65.9890528  11.3224450
  71.6750272  64.7152104  10.8941264  66.8955426  68.0651604  18.2006367
  66.7500007  68.3791907  19.0930648  66.4180630  68.6836504  17.6477265
  68.7551809  65.0554152  18.2487256  68.7413378  64.1595245  17.9119554
  69.4724237  65.0624815  18.8825542  70.6077940  65.4891492  20.2940384
  70.3495717  66.4108562  20.2924714  70.0762980  65.0921926  20.9840848
  75.5524128  78.5942279  13.0730469  75.7261006  78.0288701  12.3204321
  76.0453020  79.3943174  12.8909959  61.3701088  70.6056948  21.1394028
  60.8254556  71.3816756  21.2714302  62.2480438  70.9527752  20.9813149
  68.1588705  63.9368532  13.5174826  68.2804616  63.0085178  13.7165714
  67.8690747  63.9507218  12.6053142  71.0279895  61.6223442  16.6541546
  71.0501592  61.6862775  15.6993526  71.4447954  60.7827951  16.8482052
  81.4063520  71.3578702  14.6920769  81.8494666  70.6086027  14.2939892
  80.5290030  71.3488838  14.3094501  76.5399301  77.9109043  10.1727367
  77.2350205  78.5315736  10.3914682  76.8822451  77.0604395  10.4479745
  78.4390724  75.3608749  11.7014698  78.9642048  75.6996022  10.9764018
  78.3513077  74.4255764  11.5177833  70.1010773  79.2742822  23.8304575
  70.4097899  79.0291969  24.7027274  70.8986255  79.4789461  23.3423445
  70.1231385  81.4280732  16.0609951  69.6836375  80.9357111  16.7542808
  70.8739502  80.8853700  15.8202026  62.6023724  77.6192273  16.0634579
  63.4281744  77.3196045  15.6833223  62.2517776  76.8499895  16.5124368
  67.5705257  76.9718741  18.1332253  66.9485266  76.3089446  17.8334481
  68.2410124  76.9979873  17.4505901  60.8032329  75.5378599  17.0223513
  59.9664237  75.1100774  16.8407514  60.7755974  75.7311043  17.9594304
  67.1318764  75.5222665  11.6090713  67.2806884  76.2058129  10.9557386
  67.9385207  75.5027755  12.1240169  69.8729073  66.2031902  24.4811117
  69.0032382  66.4965468  24.2093706  70.1088553  66.7872347  25.2018381
  80.9496384  72.8283940  17.0843216  81.7843276  73.2673744  17.2480777
  81.0855513  72.3522593  16.2651462  64.8871397  71.5487842  12.6151782
  64.6417439  70.6450172  12.8131992  65.0567311  71.5504993  11.6731260
  72.5768107  62.4211519  21.9976538  73.0950050  63.1572545  21.6723026
  72.2223239  62.7275512  22.8323297  64.1567044  67.2816200  10.1137944
  63.4636289  67.3560555   9.4577980  63.9118796  66.5176543  10.6359461
  72.8280701  58.8411801  17.5177434  73.1082455  58.1734990  18.1437861
  73.6131308  59.0340897  17.0052098  70.6314169  78.0170795   9.0802461
  70.0588136  78.6360982   8.6272933  71.2046963  78.5670157   9.6142383
  74.7203939  64.3485018  21.4508411  74.1253871  64.6290031  20.7554899
  74.4353635  64.8378919  22.2225152  73.8511429  78.3007945  10.2111043
  74.7842102  78.2353507  10.4143919  73.7634642  79.1364212   9.7525576
  76.4799446  77.6173815   7.1714991  76.4013077  77.2833679   8.0650749
  77.3009113  78.1095583   7.1706463  71.0160968  69.3531608   6.4218513
  71.9620073  69.2237816   6.4906931  70.6375213  68.6146270   6.8987941
  76.9882852  61.0187614  16.3845405  76.7907673  60.7102702  17.2688737
  77.5982558  61.7449253  16.5143335  84.9954187  71.5451562  19.5197346
  85.7257575  71.2836850  20.0805049  84.3861132  70.8080284  19.5599414
  70.8999660  73.4049354  27.8819170  71.8202670  73.5827953  28.0759217
  70.8649243  72.4605399  27.7298870  69.2003885  67.2781584   6.3573399
  68.2935340  66.9814697   6.4336112  69.4779866  66.9811402   5.4907685
  60.1181825  68.5987948  16.8072445  59.7984610  67.7453256  16.5146819
  59.5715254  68.8136526  17.5630412  63.8961733  71.3150389  20.5241951
  64.1147743  72.2467496  20.5429985  64.3087507  70.9558363  21.3096755
  70.8165951  61.8218474  12.5117640  70.0066679  61.4765559  12.8872886
  71.5050368  61.5126018  13.1005251  72.7456499  60.8996521  14.1341936
  73.2987538  61.3191974  14.7931960  72.9826585  59.9732269  14.1764892
  67.9702670  64.1368519   6.4985378  68.8321834  64.4623418   6.7581195
  68.1553014  63.3500015   5.9858443  59.9870085  72.2190859  18.7765566
  59.2933557  71.8044812  18.2635521  60.7343076  72.2611396  18.1798985
  76.1235306  63.0097046  13.6420601  75.5433975  63.6681850  13.2598653
  75.8571239  62.1874390  13.2308018  74.5738872  62.4102104  15.8441921
  75.0738651  62.5218638  15.0356240  75.2174480  62.1063156  16.4842729
  61.9006828  72.1509113  16.6531581  61.8777516  72.2496800  15.7013464
  62.2107464  72.9974264  16.9748747  64.5594206  74.2085268  20.7678196
  65.5137459  74.1769210  20.7008127  64.3606729  73.7475892  21.5828422
  65.1493588  72.7786384  23.3348993  65.9686477  73.2730463  23.3583831
  65.4230396  71.8618352  23.3066561  74.9060184  65.1697136  12.6976949
  74.0186039  65.4546787  12.4797144  75.3214173  65.0090900  11.8504226
  78.2574720  65.1943657  16.4131288  79.0335110  65.6840110  16.6855905
  77.5322854  65.6201711  16.8703158  80.6947279  65.9071276  17.4705229
  81.2891770  65.6667012  16.7598537  80.7673863  65.1878407  18.0978765
  62.9144435  79.7504887  17.7848394  62.7798902  78.9905288  17.2186392
  62.4976497  80.4745787  17.3177183  74.0503398  74.9341811   6.7924969
  74.7539248  75.1391813   7.4082625  73.3266046  75.5018573   7.0574052
  74.8801208  70.6851672  12.9127239  74.8236409  71.1420224  12.0734872
  75.4329550  69.9242357  12.7350082  78.6906014  66.4741404  13.7377359
  78.4342948  66.0738040  14.5685566  78.0658882  67.1885198  13.6127498
  83.0018352  69.2137477  16.2448650  82.4417910  69.2830667  17.0180212
  82.3961855  69.0378462  15.5248146  66.0713560  80.6474204  17.9966836
  65.9545945  81.5919637  17.8945527  65.2506007  80.3447766  18.3852636
  75.9590095  75.3724340   8.8423429  76.7935699  74.9405539   8.6600904
  75.7974438  75.2006354   9.7700323  75.6135987  71.8756453  10.2079768
  75.5584791  71.7100725   9.2668212  74.9882042  72.5832486  10.3641958
  68.9232113  61.3764562   9.7865087  68.9110782  62.3206402   9.9433358
  69.8155534  61.1934708   9.4924548  67.0968075  81.3002466  21.2122765
  67.9995321  81.3326077  21.5289260  66.8705445  80.3702917  21.2269101
  68.8521677  80.0533453  17.8732843  67.9017308  80.0535314  17.7597216
  69.1554163  79.3066187  17.3568878  72.7384232  57.9707339  14.0411023
  71.9716628  57.4165826  14.1867706  73.1494937  58.0429208  14.9025175
  81.3964076  85.8421419  18.8740130  81.0582588  85.7262484  17.9860665
  82.2653844  85.4412584  18.8541137  77.2550892  87.6956896  14.8637021
  76.6915757  87.6046833  14.0953309  77.1403287  86.8756800  15.3439514
  81.8783859  86.9956271  24.8326336  81.8672500  86.6009069  23.9606840
  82.0404499  86.2622344  25.4260107  74.8015324  89.1908087  17.7021242
  75.5936616  88.8498912  17.2867541  75.0411974  89.3003062  18.6223395
  82.8350451  91.3627863  10.1751486  82.1838430  91.9481944   9.7885500
  83.6294814  91.8934058  10.2346524  76.7606078  88.4517001  10.5738621
  77.5336954  87.9045988  10.4351496  77.1131477  89.3161250  10.7853082
  78.5991120  89.7793383  23.7805520  78.3080986  90.6839014  23.6652186
  79.2348105  89.8209910  24.4949590  79.5247327  87.1570231  20.3706880
  80.1210900  86.9326254  19.6563843  79.5822299  86.4154977  20.9732327
  79.0972356  84.6109667   8.2057071  79.3497876  84.0891188   7.4440534
  78.1596915  84.4475812   8.3083754  84.1415639  83.6145445  16.0131814
  84.9278728  83.1964868  15.6622231  84.4054343  84.5191537  16.1813462
  84.3125716  89.0518295  10.7120471  83.6771549  89.1252922  11.4241375
  83.9823122  89.6411894  10.0339550  89.5424066  83.5520678  16.9164792
  90.2749238  82.9819895  17.1502622  88.7863421  83.1642279  17.3571298
  78.8168644  86.5137773  10.4081446  78.7004903  85.8382676  11.0762530
  78.9270904  86.0270147   9.5913599  81.1600185  85.9747920  14.1128135
  80.7958393  85.4478541  14.8241056  82.0167301  85.5846389  13.9394620
  80.8005672  81.0037819   9.1089483  80.9680075  81.8718056   9.4759954
  80.6102841  81.1665101   8.1850773  83.5581006  89.4654798  20.7755314
  83.2581729  90.3679837  20.6671121  83.2132065  89.1986982  21.6276467
  77.0093487  85.9168595  16.8092018  76.0843983  85.7844809  17.0169710
  77.2577900  86.6962814  17.3061960  80.7794893  83.4595477  10.0936150
  80.6594518  83.9052528  10.9321630  80.0847482  83.8080795   9.5349688
  74.3702298  85.5601869  17.6435807  74.4994679  85.8136348  18.5575219
  73.6899749  86.1529577  17.3240462  78.5401785  96.2299119  13.7426281
  78.4625815  97.1806944  13.8214762  77.9363429  95.8844991  14.4001208
  86.4779959  83.9316950  10.9216484  87.3897815  84.1644337  10.7464182
  85.9689606  84.5153994  10.3591563  79.2865387  86.2112437  25.9605615
  80.0280072  86.7497481  25.6840439  78.5802373  86.8378726  26.1177167
  84.7620727  88.3541578  24.5577777  85.1704083  87.9123988  23.8132409
  84.0397989  87.7794205  24.8111970  85.0849542  88.9142769  18.3130066
  84.4558404  89.0788483  17.6106133  84.6975204  89.3284378  19.0841030
  88.9638774  89.8497206  15.6674429  88.2789812  90.2296108  15.1171463
  89.0482623  90.4592533  16.4006377  86.2189705  87.4957165  22.2669773
  86.4306600  88.1388925  21.5904154  86.1719453  86.6619482  21.7991703
  80.6377504  88.6517177  15.5780151  81.1015849  88.9304880  14.7884773
  80.3734302  87.7500621  15.3953241  77.5301585  88.1988658  18.5159914
  78.1002942  88.6275927  17.8777398  78.1209696  87.9171243  19.2144100
  79.5746390  84.7740329  12.3869716  80.2770433  85.2261373  12.8543642
  79.2427018  84.1324148  13.0149609  73.3171724  83.0323882  17.6886849
  72.5270778  83.2881410  17.2126960  73.8082971  83.8472220  17.7938890
  87.3335533  90.3729121  20.4392130  88.1552977  89.9709308  20.1574812
  87.3297936  90.2697355  21.3908246  75.2686469  83.3968461  14.6470326
  74.4717632  83.5087155  15.1653822  75.0412061  83.7355113  13.7811217
  81.0992137  89.9213164  22.5952841  81.1636569  90.3833571  23.4311013
  80.3903060  89.2910529  22.7235151  71.6009427  83.2854372  20.1201840
  71.8517465  84.1701382  20.3859416  72.1368975  83.1058974  19.3476932
  95.4241526  86.7167869  16.7877102  94.6705235  86.1475267  16.6321106
  95.5589067  86.6830534  17.7347736  80.8140154  91.5881272  12.4631821
  80.6785829  92.4332807  12.8916669  81.3549967  91.7900549  11.6997755
  74.2669552  89.1056710  13.0359746  74.7794072  89.8999960  13.1865311
  74.9192264  88.4083000  12.9693348  76.0764436  92.2222466  15.1182499
  76.2531065  93.1440431  14.9303483  76.8721270  91.9080885  15.5476879
  75.3616793  84.2687098  24.9944663  75.2470308  83.3672355  25.2951761
  74.5061311  84.5150795  24.6429479  82.4408631  92.2104838  26.5932163
  81.9972485  91.4241217  26.2753068  83.1025844  92.3983989  25.9276054
  77.1995752  93.7400640  21.1192842  77.7503177  93.6117703  20.3469836
  76.3607228  94.0395529  20.7687734  84.5389869  92.4907638  24.6213564
  84.5208344  93.3116519  24.1293834  85.4609789  92.3661713  24.8463706
  80.9962923  90.0051768  25.4637073  81.5291260  89.2440056  25.2336381
  80.4677004  89.7125419  26.2061227  72.2318468  87.4345364  13.8119317
  73.0693690  87.8442372  13.5953024  72.4096736  86.4944806  13.7819511
  84.1282901  85.1020445   9.5003150  83.6129524  85.8725049   9.7391537
  83.8560209  84.4285581  10.1236211  81.7130012  79.9470145  14.5588388
  80.8571608  79.5576996  14.3794027  82.1256963  80.0262106  13.6988174
  79.4872044  77.5655218  17.9646130  80.3525041  77.3698027  17.6052019
  79.5549553  77.3365570  18.8915486  89.1017175  87.8552799  11.4356323
  88.3246617  87.5163959  10.9911485  89.7808656  87.8605422  10.7611288
  83.9169204  82.9747537  11.3262931  83.6119339  83.2893686  12.1773074
  84.8699646  83.0528957  11.3690264  82.3615636  89.1337760  12.9755885
  81.8336997  88.3990520  12.6629122  81.8603138  89.9112436  12.7295853
  87.3408482  87.3286781  18.0922931  86.6832156  88.0186042  18.1803060
  88.1448881  87.7183212  18.4356917  77.0934363  79.7957426  15.3362496
  77.6678115  79.5732608  14.6035689  77.6805346  79.8646121  16.0891098
  86.1513940  85.6831153  16.1426873  86.6645822  86.3161145  16.6448583
  86.8015164  85.0832349  15.7770233  77.4203950  81.8261887   9.3558382
  76.5841263  82.1636574   9.6767656  77.2808720  81.6910867   8.4185519
  79.3957031  76.6698675  14.0637566  78.7421443  76.3547692  13.4394181
  79.3537505  76.0474416  14.7897389  80.5068236  86.9517970   5.9790858
  79.5995297  86.7207224   6.1782007  81.0039268  86.1555590   6.1664839
  83.4136315  95.6615477   8.8987544  82.7398013  95.9647174   9.5072502
  83.8002137  96.4644558   8.5493001  83.4129819  84.5572024  13.5187894
  84.1601638  85.0693422  13.2095016  83.6821409  84.2356077  14.3792287
  81.6856469  87.0530565  10.5014848  80.7767688  86.7689598  10.5987318
  81.7151553  87.4729644   9.6418155  86.9175737  90.6637155  14.2706015
  86.4638064  89.8228065  14.3271206  86.2869703  91.2998553  14.6080796
  85.3608676  92.5013651  15.2055834  85.6531650  93.0618708  14.4868199
  85.8707296  92.7942212  15.9608993  85.9620283  74.3705393  16.0948452
  86.2679160  73.5102756  15.8074367  86.6872888  74.9623013  15.8947446
  72.2544640  84.7736079  14.4830050  72.0569039  84.1805440  13.7581117
  71.6991304  84.4688289  15.2005989  80.2341363  84.6659186  16.6024643
  80.2889973  83.7133022  16.5267120  79.4232565  84.8218625  17.0865942
  81.3832557  88.5939309   7.8402927  80.9451987  87.8775168   7.3808564
  82.1242998  88.8215424   7.2788018  78.1733723  83.2836246  14.3615022
  77.3601589  83.5830416  14.7680214  78.6692717  82.8891934  15.0789504
  80.3242301  93.2794002  16.2949287  80.2818480  93.5054849  15.3657819
  81.2405000  93.0457377  16.4435088  89.5005672  86.8696506  13.8979245
  89.3623570  87.0598102  12.9700434  89.1441891  87.6315889  14.3547296
  77.6647798  80.8554601  19.9776257  78.3047177  80.7143360  19.2799220
  76.8325328  80.5689114  19.6014859  89.5275051  88.9373033  18.9090517
  89.9611558  88.8448322  19.7573571  90.2406632  88.9130533  18.2710533
  78.4408102  90.1557031  16.0911250  79.2348700  89.6607352  15.8893825
  77.7299794  89.6274895  15.7278955  83.2602946  92.5375127  20.4423617
  83.3139969  93.1066063  21.2101333  82.3917728  92.7077012  20.0777654
  74.7490865  84.3000113  12.1671002  73.8188453  84.2384569  12.3840964
  74.8448337  83.7776066  11.3707643  74.6676414  80.8254926  14.7549244
  74.9283232  81.7400259  14.6458404  75.4893587  80.3579369  14.9045857
  76.1401340  82.2392683  21.9248068  76.8124393  82.0310045  21.2760717
  75.3131126  82.0414769  21.4853301  90.3890601  88.9796734  21.4423402
  90.5826491  89.8842544  21.6882677  90.2891219  88.5204153  22.2761987
  85.4505710  89.1303476  27.0164283  85.2991216  88.9014028  26.0994366
  85.4410389  90.0874078  27.0295628  82.2191046  86.7035389  22.0010549
  83.1483106  86.8546549  21.8279516  81.7982076  86.7919410  21.1459196
  81.0179378  90.7286053  19.7709087  80.8790463  90.3604838  20.6435025
  80.2293974  91.2433693  19.5993044  81.6127530  95.8295150  11.1134623
  81.7879285  95.3583193  11.9280246  80.9260318  96.4560916  11.3415884
  82.5684593  90.1067656  17.1597924  82.2334426  90.0668426  18.0555574
  82.0688539  89.4412372  16.6868335  76.5428837  85.5135286  22.6850506
  76.4048635  84.7815525  23.2862045  77.4533760  85.4244186  22.4034693
  85.5043785  87.4523690   7.4334984  84.8872955  86.7270519   7.3368037
  85.0360273  88.2133051   7.0902058  79.1711138  85.2255245  22.1734185
  79.8810756  84.5848438  22.1320804  79.1280446  85.4768140  23.0960366
  87.1597916  92.1622599  25.0940764  87.1010462  91.4781819  24.4271347
  87.5617435  92.9041589  24.6421390  77.8840072  82.2120463  23.9929825
  77.3477429  81.7611202  24.6451421  77.2956780  82.3466372  23.2500289
  76.1788615  98.9784513  17.8874483  76.4185213  99.6103037  18.5653502
  75.3357812  98.6272553  18.1739843  77.2942330  81.6709115   6.5556288
  76.4171797  81.5497916   6.1918535  77.7700084  80.8795193   6.3035177
  87.1615324  90.1262183  23.3254744  86.2742102  89.7888105  23.4481143
  87.7313875  89.3945214  23.5623510  68.8144471  86.4586275  16.6497796
  69.5015510  86.1448005  16.0618811  68.6592599  87.3627639  16.3765047
  73.6179193  81.3476471  21.0782819  73.5337382  80.7402141  20.3433229
  72.7961899  81.8385489  21.0792316  80.6916477  94.7863635  20.2915987
  80.6186648  95.5918607  20.8035292  80.2493870  94.9855601  19.4664009
  80.4806257  94.0235405  13.8018809  79.6973778  94.5657085  13.8957033
  81.1799002  94.5409385  14.2013050  91.6432664  85.5370400  18.0871306
  91.6322540  86.4195116  17.7165239  90.7750043  85.1841951  17.8925843
  83.1515160  94.6850469  22.4474146  83.8643133  95.3197934  22.3750047
  82.6605189  94.7814335  21.6314148  84.8732687  88.5901722  14.0191438
  83.9388966  88.7103184  13.8496142  85.0509356  87.6874189  13.7551447
  80.3737875  81.9747418  16.1724699  80.0035663  81.4218458  16.8605604
  80.8696968  81.3705551  15.6199699  88.2605239  84.4319041  14.5541472
  88.7265691  85.2647033  14.4801774  88.7112739  83.9664023  15.2586730
  78.2027074  92.4344913  23.2679717  78.9036533  93.0681396  23.4209111
  77.7322189  92.7759644  22.5075356  86.3281470  90.7762862  11.5527624
  86.6041314  90.6619457  12.4621498  85.4585969  90.3780347  11.5139797
  82.9635534  95.0249213  15.1960437  83.1457928  94.2070869  15.6588190
  83.7868520  95.2416905  14.7585327  83.2977699  93.9517398  12.4575486
  83.8265466  93.4409853  11.8445648  83.5605919  93.6359929  13.3221019
  73.7994792  91.9681268  20.2010819  74.3848229  91.2224956  20.3338724
  73.6019630  92.2785224  21.0847483  76.6533447  95.0032515  15.2173262
  75.9843822  95.4878643  14.7337302  76.5146317  95.2501735  16.1316640
  68.3912447  84.5386868  18.9215263  68.4296546  84.0050459  19.7152381
  67.8852740  84.0122073  18.3026240  80.7938716  97.0376259  21.8155920
  81.3457024  97.2007880  22.5805005  81.1344909  97.6280696  21.1435945
  75.7703209  79.3851408  22.4177805  75.8344536  80.2466239  22.0055203
  75.7070329  78.7725410  21.6850163  75.2455482  81.4574541  26.0650839
  75.8727520  81.0751618  26.6788364  74.3883400  81.2388743  26.4306532
  85.6449590  91.8637516  27.6704575  86.1889494  92.4767474  27.1759529
  85.0636435  92.4217094  28.1871588  72.0221024  83.2650970  11.9969194
  72.3174465  82.3561648  11.9436248  71.1209060  83.2438709  11.6750196
  83.9307103  94.9858234  18.8019602  83.8058243  94.1847974  18.2930548
  84.5886194  95.4804427  18.3133572  75.5515271  81.3406967  17.9796743
  74.8301857  81.9542934  17.8404216  76.3408527  81.8764731  17.9013389
  85.9942011  92.7867254  20.4299152  85.0472347  92.6672605  20.3577479
  86.3424785  91.8989752  20.5125414  73.7508866  80.9465068  12.1208519
  73.4221572  80.0662447  11.9383625  74.1048237  80.8912736  13.0084908
  82.9988445  92.5819970  16.6303505  82.8513407  91.6536678  16.8111075
  83.8241938  92.6040061  16.1460580  76.8650689  81.2338037  12.4883997
  77.2046762  81.7623959  11.7662605  77.3122810  81.5718444  13.2642563
  86.6022567  93.4048529  17.7168377  87.5269114  93.1991390  17.5792829
  86.4337870  93.1564930  18.6257719  78.8518836  79.7312659  10.6877290
  79.5727199  80.1093912  10.1841006  78.2284140  80.4501536  10.7912268
  82.9949959  80.4357808  11.6235622  83.2113573  81.3182446  11.3224450
  82.5144026  80.0444021  10.8941264  77.7349180  83.3943521  18.2006367
  77.5893761  83.7083824  19.0930648  77.2574384  84.0128422  17.6477265
  79.5945563  80.3846069  18.2487256  79.5807132  79.4887163  17.9119554
  80.3117991  80.3916733  18.8825542  86.3917883  93.9234197  13.0730469
  86.5654760  93.3580619  12.3204321  86.8846774  94.7235091  12.8909959
  72.2094843  85.9348866  21.1394028  71.6648311  86.7108674  21.2714302
  73.0874193  86.2819670  20.9813149  78.9982459  79.2660450  13.5174826
  79.1198370  78.3377096  13.7165714  78.7084502  79.2799136  12.6053142
  81.8673650  76.9515360  16.6541546  81.8895347  77.0154693  15.6993526
  82.2841709  76.1119869  16.8482052  92.2457274  86.6870620  14.6920769
  92.6888420  85.9377945  14.2939892  91.3683784  86.6780756  14.3094501
  87.3793055  93.2400961  10.1727367  88.0743960  93.8607654  10.3914682
  87.7216205  92.3896312  10.4479745  72.9960865  85.0618762  24.0324185
  72.2542601  85.2101397  24.6188815  72.6753609  85.3227028  23.1690934
  89.2784478  90.6900667  11.7014698  89.8035803  91.0287939  10.9764018
  89.1906831  89.7547682  11.5177833  80.9404527  94.6034740  23.8304575
  81.2491654  94.3583887  24.7027274  81.7380009  94.8081379  23.3423445
  80.9625139  96.7572650  16.0609951  80.5230129  96.2649028  16.7542808
  81.7133256  96.2145617  15.8202026  73.4417478  92.9484191  16.0634579
  74.2675498  92.6487963  15.6833223  73.0911530  92.1791813  16.5124368
  78.4099011  92.3010659  18.1332253  77.7879021  91.6381364  17.8334481
  79.0803878  92.3271791  17.4505901  71.6426083  90.8670517  17.0223513
  70.8057992  90.4392691  16.8407514  71.6149729  91.0602960  17.9594304
  88.9678385  91.3233570  27.0065896  88.1773928  91.3057709  26.4670395
  88.7311739  91.8621864  27.7614933  89.0876260  88.1726037  24.3198624
  89.1374264  88.0076044  25.2614147  88.9790183  87.3053296  23.9296505
  77.9712518  90.8514582  11.6090713  78.1200639  91.5350047  10.9557386
  78.7778962  90.8319672  12.1240169  90.5894456  90.5922978  24.5640646
  90.2979265  90.9552959  25.4004107  89.9766588  89.8789986  24.3853978
  91.7890139  88.1575858  17.0843216  92.6237030  88.5965662  17.2480777
  91.9249268  87.6814511  16.2651462  88.8381645  85.7155593  23.0320704
  89.3135766  85.9083239  22.2239555  87.9147210  85.7714778  22.7864088
  75.7265151  86.8779760  12.6151782  75.4811193  85.9742090  12.8131992
  75.8961066  86.8796910  11.6731260  74.9960799  82.6108117  10.1137944
  74.3030044  82.6852472   9.4577980  74.7512551  81.8468461  10.6359461
  83.6674455  74.1703719  17.5177434  83.9476209  73.5026908  18.1437861
  84.4525062  74.3632814  17.0052098  81.4707924  93.3462713   9.0802461
  80.8981891  93.9652900   8.6272933  82.0440717  93.8962074   9.6142383
  84.6905184  93.6299863  10.2111043  85.6235857  93.5645424  10.4143919
  84.6028396  94.4656130   9.7525576  87.3193200  92.9465733   7.1714991
  87.2406832  92.6125597   8.0650749  88.1402867  93.4387501   7.1706463
  90.0171391  85.8127472  20.3791309  89.9847712  84.8743473  20.5650993
  90.6272015  85.8911509  19.6457134  81.8554722  84.6823525   6.4218513
  82.8013827  84.5529734   6.4906931  81.4768967  83.9438187   6.8987941
  90.1665880  82.6038516  20.4249592  89.6504929  81.8196973  20.2379521
  91.0505828  82.2757232  20.5896112  87.8276607  76.3479531  16.3845405
  87.6301428  76.0394620  17.2688737  88.4376312  77.0741170  16.5143335
  95.8347941  86.8743479  19.5197346  96.5651330  86.6128767  20.0805049
  95.2254887  86.1372201  19.5599414  93.9163238  85.0151342  20.1171797
  93.1896402  84.8807307  19.5088289  93.5010525  85.3228170  20.9228515
  81.7393415  88.7341272  27.8819170  82.6596424  88.9119871  28.0759217
  81.7042998  87.7897317  27.7298870  80.0397639  82.6073502   6.3573399
  79.1329095  82.3106615   6.4336112  80.3173620  82.3103320   5.4907685
  70.9575580  83.9279865  16.8072445  70.6378364  83.0745173  16.5146819
  70.4109008  84.1428443  17.5630412  74.7355487  86.6442306  20.5241951
  74.9541497  87.5759414  20.5429985  75.1481261  86.2850281  21.3096755
  81.6559705  77.1510392  12.5117640  80.8460433  76.8057476  12.8872886
  82.3444122  76.8417935  13.1005251  83.5850253  76.2288438  14.1341936
  84.1381292  76.6483892  14.7931960  83.8220340  75.3024186  14.1764892
  78.8096424  79.4660437   6.4985378  79.6715588  79.7915335   6.7581195
  78.9946768  78.6791933   5.9858443  70.8263840  87.5482777  18.7765566
  70.1327311  87.1336730  18.2635521  71.5736831  87.5903313  18.1798985
  86.9629061  78.3388963  13.6420601  86.3827730  78.9973768  13.2598653
  86.6964993  77.5166308  13.2308018  85.4132627  77.7394021  15.8441921
  85.9132405  77.8510556  15.0356240  86.0568235  77.4355074  16.4842729
  79.4714623  85.6472651  28.7309762  78.9881704  86.4473011  28.9373651
  79.5575562  85.6580596  27.7777206  72.7400582  87.4801030  16.6531581
  72.7171270  87.5788718  15.7013464  73.0501219  88.3266181  16.9748747
  75.3987960  89.5377186  20.7678196  76.3531214  89.5061128  20.7008127
  75.2000484  89.0767809  21.5828422  75.9887342  88.1078302  23.3348993
  76.8080231  88.6022380  23.3583831  76.2624150  87.1910270  23.3066561
  85.7453939  80.4989054  12.6976949  84.8579794  80.7838704  12.4797144
  86.1607928  80.3382817  11.8504226  89.0968475  80.5235575  16.4131288
  89.8728865  81.0132027  16.6855905  88.3716609  80.9493629  16.8703158
  91.5341033  81.2363194  17.4705229  92.1285524  80.9958930  16.7598537
  91.6067617  80.5170325  18.0978765  73.7538189  95.0796805  17.7848394
  73.6192657  94.3197206  17.2186392  73.3370251  95.8037705  17.3177183
  84.8897152  90.2633729   6.7924969  85.5933002  90.4683731   7.4082625
  84.1659801  90.8310490   7.0574052  85.7194962  86.0143590  12.9127239
  85.6630164  86.4712141  12.0734872  86.2723305  85.2534274  12.7350082
  89.5299768  81.8033322  13.7377359  89.2736702  81.4029957  14.5685566
  88.9052636  82.5177116  13.6127498  93.8412106  84.5429395  16.2448650
  93.2811664  84.6122584  17.0180212  93.2355609  84.3670380  15.5248146
  76.9107315  95.9766122  17.9966836  76.7939699  96.9211555  17.8945527
  76.0899761  95.6739684  18.3852636  86.7983849  90.7016258   8.8423429
  87.6329453  90.2697456   8.6600904  86.6368192  90.5298271   9.7700323
  86.4529742  87.2048371  10.2079768  86.3978545  87.0392642   9.2668212
  85.8275797  87.9124404  10.3641958  71.2422257  82.4416435  24.0341191
  71.8881120  81.9315389  24.5228416  71.0339408  83.1785117  24.6084616
  83.7675649  89.5097283  29.5333331  84.6366808  89.6837935  29.1719966
  83.2882400  90.3291700  29.4109060  79.7625867  76.7056480   9.7865087
  79.7504537  77.6498320   9.9433358  80.6549289  76.5226625   9.4924548
  77.9361829  96.6294384  21.2122765  78.8389076  96.6617994  21.5289260
  77.7099199  95.6994835  21.2269101  79.6915431  95.3825370  17.8732843
  78.7411062  95.3827232  17.7597216  79.9947917  94.6358105  17.3568878
  83.5777987  73.2999257  14.0411023  82.8110382  72.7457743  14.1867706
  83.9888691  73.3721125  14.9025175  95.4268125 101.2185909  18.9378606
  96.0646534 101.0992656  18.2341946  95.3088967 102.1666753  18.9966558
  92.2357831 101.1713337  18.8740130  91.8976342 101.0554402  17.9860665
  93.1047599 100.7704502  18.8541137  88.0944646 103.0248813  14.8637021
  87.5309512 102.9338750  14.0953309  87.9797042 102.2048718  15.3439514
  92.7177614 102.3248189  24.8326336  92.7066255 101.9300987  23.9606840
  92.8798253 101.5914261  25.4260107  85.6409078 104.5200005  17.7021242
  86.4330370 104.1790830  17.2867541  85.8805729 104.6294980  18.6223395
  89.4384875 105.1085300  23.7805520  89.1474741 106.0130931  23.6652186
  90.0741859 105.1501828  24.4949590  90.3641082 102.4862149  20.3706880
  90.9604654 102.2618171  19.6563843  90.4216053 101.7446894  20.9732327
  94.9809393  98.9437363  16.0131814  95.7672482  98.5256786  15.6622231
  95.2448097  99.8483455  16.1813462 100.3817820  98.8812596  16.9164792
 101.1142992  98.3111813  17.1502622  99.6257176  98.4934196  17.3571298
  91.9993940 101.3039837  14.1128135  91.6352147 100.7770458  14.8241056
  92.8561056 100.9138306  13.9394620  97.9043240  92.5934170  21.3759401
  97.5726565  93.4629581  21.1520616  97.3088854  92.2770454  22.0553431
  91.6399427  96.3329737   9.1089483  91.8073829  97.2009974   9.4759954
  91.4496596  96.4957019   8.1850773  94.3974760 104.7946716  20.7755314
  94.0975483 105.6971755  20.6671121  94.0525820 104.5278899  21.6276467
  87.8487241 101.2460513  16.8092018  86.9237738 101.1136727  17.0169710
  88.0971655 102.0254732  17.3061960  97.7971904  97.3129256  18.4552751
  96.8888781  97.2444665  18.1611512  97.7459500  97.7901201  19.2834576
  91.6188648  98.7887395  10.0936150  91.4988273  99.2344445  10.9321630
  90.9241236  99.1372712   9.5349688  85.2096053 100.8893786  17.6435807
  85.3388434 101.1428265  18.5575219  84.5293504 101.4821494  17.3240462
  91.8712770  98.7318902  26.3987648  91.0946104  99.2912822  26.3890513
  92.5103333  99.2175685  26.9202518  99.6633550  95.5145695  20.2330625
  99.0207930  95.8078228  19.5870419  99.1588479  95.3998615  21.0383822
  90.1259142 101.5404355  25.9605615  90.8673826 102.0789399  25.6840439
  89.4196127 102.1670644  26.1177167  95.6014482 103.6833496  24.5577777
  96.0097838 103.2415906  23.8132409  94.8791743 103.1086123  24.8111970
  91.9545552  98.6206102  21.9311334  92.8006747  99.0445516  22.0745983
  91.8944189  97.9639727  22.6249897  95.9243296 104.2434686  18.3130066
  95.2952159 104.4080400  17.6106133  95.5368958 104.6576296  19.0841030
  95.1044997  96.2810471  23.5892507  94.8605929  97.0352531  23.0526783
  95.3804927  96.6595818  24.4239754  97.0583460 102.8249083  22.2669773
  97.2700355 103.4680843  21.5904154  97.0113208 101.9911400  21.7991703
  94.6609689  95.4366904  19.1706345  93.7994168  95.7348157  19.4623083
  94.6872123  95.6537303  18.2387378  91.4771258 103.9809094  15.5780151
  91.9409604 104.2596797  14.7884773  91.2128056 103.0792539  15.3953241
  88.3695339 103.5280576  18.5159914  88.9396696 103.9567844  17.8777398
  88.9603451 103.2463161  19.2144100  90.4140144 100.1032247  12.3869716
  91.1164187 100.5553290  12.8543642  90.0820773  99.4616066  13.0149609
  88.8620506  98.6944003  26.7620925  88.2319166  99.3760284  26.9956322
  88.7556594  98.5827085  25.8174063  84.1565478  98.3615799  17.6886849
  83.3664532  98.6173328  17.2126960  84.6476725  99.1764137  17.7938890
  98.1729288 105.7021039  20.4392130  98.9946731 105.3001226  20.1574812
  98.1691690 105.5989273  21.3908246  86.1080223  98.7260379  14.6470326
  85.3111387  98.8379073  15.1653822  85.8805816  99.0647031  13.7811217
  91.9385891 105.2505082  22.5952841  92.0030324 105.7125489  23.4311013
  91.2296815 104.6202447  22.7235151  82.4403181  98.6146290  20.1201840
  82.6911219  99.4993300  20.3859416  82.9762729  98.4350891  19.3476932
  88.1401248  92.9964769  29.1246176  87.7468194  92.4430968  29.7993821
  88.9567389  93.3075348  29.5152694  85.1063306 104.4348627  13.0359746
  85.6187827 105.2291878  13.1865311  85.7586019 103.7374918  12.9693348
  86.9158191 107.5514384  15.1182499  87.0924819 108.4732348  14.9303483
  87.7115024 107.2372803  15.5476879  91.0569209  94.4122648  26.7166433
  91.7978923  95.0129801  26.6370895  91.2887132  93.6700286  26.1584475
  86.2010547  99.5979016  24.9944663  86.0864062  98.6964273  25.2951761
  85.3455065  99.8442712  24.6429479  93.2802385 107.5396756  26.5932163
  92.8366239 106.7533134  26.2753068  93.9419599 107.7275906  25.9276054
  88.0389506 109.0692557  21.1192842  88.5896931 108.9409621  20.3469836
  87.2000982 109.3687446  20.7687734  95.3783623 107.8199556  24.6213564
  95.3602099 108.6408437  24.1293834  96.3003543 107.6953631  24.8463706
  91.8356677 105.3343685  25.4637073  92.3685014 104.5731973  25.2336381
  91.3070758 105.0417337  26.2061227  95.0026372  90.4403751  20.9930715
  94.6590642  91.3305393  20.9169825  95.3705335  90.2505409  20.1300300
  83.0712223 102.7637282  13.8119317  83.9087445 103.1734290  13.5953024
  83.2490491 101.8236724  13.7819511  92.5523766  95.2762063  14.5588388
  91.6965362  94.8868913  14.3794027  92.9650718  95.3554024  13.6988174
  94.0822913  92.8108406  18.9579948  93.5787708  92.7738542  18.1447753
  94.3753520  93.7201149  19.0176604  90.3265799  92.8947136  17.9646130
  91.1918795  92.6989945  17.6052019  90.3943307  92.6657488  18.8915486
  94.7562958  98.3039454  11.3262931  94.4513094  98.6185604  12.1773074
  95.7093400  98.3820874  11.3690264  98.1802236 102.6578698  18.0922931
  97.5225910 103.3477960  18.1803060  98.9842635 103.0475130  18.4356917
  87.9328118  95.1249344  15.3362496  88.5071870  94.9024525  14.6035689
  88.5199100  95.1938038  16.0891098  96.9907695 101.0123071  16.1426873
  97.5039577 101.6453063  16.6448583  97.6408919 100.4124266  15.7770233
  88.2597705  97.1553805   9.3558382  87.4235017  97.4928492   9.6767656
  88.1202474  97.0202785   8.4185519  90.2350785  91.9990593  14.0637566
  89.5815198  91.6839610  13.4394181  90.1931259  91.3766333  14.7897389
  93.4688526  98.4872526  18.3885213  92.5511087  98.7087473  18.2306901
  93.8848669  98.5618837  17.5296921  94.2523573  99.8863942  13.5187894
  94.9995392 100.3985339  13.2095016  94.5215163  99.5647995  14.3792287
  96.7002411  96.9221058  15.5006683  95.9625167  96.4098445  15.8316926
  96.9529184  96.4821440  14.6889960  96.8014038  89.6997310  16.0948452
  97.1072915  88.8394674  15.8074367  97.5266643  90.2914931  15.8947446
  83.0938394 100.1027997  14.4830050  82.8962794  99.5097358  13.7581117
  82.5385058  99.7980207  15.2005989  91.0735118  99.9951103  16.6024643
  91.1283727  99.0424940  16.5267120  90.2626320 100.1510543  17.0865942
  89.0127478  98.6128163  14.3615022  88.1995343  98.9122334  14.7680214
  89.5086472  98.2183852  15.0789504  91.1636055 108.6085920  16.2949287
  91.1212234 108.8346766  15.3657819  92.0798754 108.3749295  16.4435088
  94.6101689  99.0769988  23.1929916  94.9651077  99.3041461  24.0524382
  95.2573821  99.4088364  22.5707171  88.5041552  96.1846519  19.9776257
  89.1440932  96.0435278  19.2799220  87.6719083  95.8981032  19.6014859
 100.3668806 104.2664951  18.9090517 100.8005313 104.1740240  19.7573571
 101.0800387 104.2422451  18.2710533  89.2801856 105.4848949  16.0911250
  90.0742455 104.9899269  15.8893825  88.5693549 104.9566812  15.7278955
  94.0996701 107.8667045  20.4423617  94.1533723 108.4357981  21.2101333
  93.2311482 108.0368930  20.0777654  85.5884620  99.6292031  12.1671002
  84.6582208  99.5676486  12.3840964  85.6842092  99.1067984  11.3707643
  85.5070169  96.1546844  14.7549244  85.7676986  97.0692177  14.6458404
  86.3287341  95.6871286  14.9045857  86.9795094  97.5684601  21.9248068
  87.6518148  97.3601963  21.2760717  86.1524881  97.3706687  21.4853301
 101.2284355 104.3088651  21.4423402 101.4220245 105.2134462  21.6882677
 101.1284974 103.8496070  22.2761987  92.8820666  94.1946542  23.9413729
  92.2348581  94.8936491  23.8478206  93.6521682  94.6282686  24.3089978
  96.2899464 104.4595394  27.0164283  96.1384970 104.2305946  26.0994366
  96.2804144 105.4165995  27.0295628  93.0584800 102.0327307  22.0010549
  93.9876860 102.1838466  21.8279516  92.6375831 102.1211327  21.1459196
  91.8573132 106.0577971  19.7709087  91.7184218 105.6896756  20.6435025
  91.0687728 106.5725611  19.5993044  93.4078347 105.4359574  17.1597924
  93.0728180 105.3960344  18.0555574  92.9082293 104.7704290  16.6868335
  87.3822591 100.8427204  22.6850506  87.2442389 100.1107443  23.2862045
  88.2927515 100.7536104  22.4034693  90.0104892 100.5547163  22.1734185
  90.7204511  99.9140355  22.1320804  89.9674200 100.8060058  23.0960366
  97.9991671 107.4914517  25.0940764  97.9404217 106.8073737  24.4271347
  98.4011189 108.2333507  24.6421390  88.7233826  97.5412381  23.9929825
  88.1871183  97.0903120  24.6451421  88.1350534  97.6758290  23.2500289
  87.0182370 114.3076430  17.8874483  87.2578968 114.9394955  18.5653502
  86.1751566 113.9564470  18.1739843  98.0009078 105.4554100  23.3254744
  97.1135857 105.1180022  23.4481143  98.5707629 104.7237132  23.5623510
  79.6538225 101.7878192  16.6497796  80.3409265 101.4739922  16.0618811
  79.4986354 102.6919557  16.3765047  84.4572947  96.6768389  21.0782819
  84.3731136  96.0694058  20.3433229  83.6355654  97.1677407  21.0792316
  91.5310231 110.1155553  20.2915987  91.4580403 110.9210524  20.8035292
  91.0887624 110.3147519  19.4664009  94.6296661  95.1621952  16.4453014
  95.1265361  94.4091915  16.1254084  93.8583643  95.1986269  15.8796224
 102.4826419 100.8662318  18.0871306 102.4716295 101.7487033  17.7165239
 101.6143798 100.5133869  17.8925843  93.9908915 110.0142387  22.4474146
  94.7036887 110.6489852  22.3750047  93.4998944 110.1106253  21.6314148
  95.7126442 103.9193640  14.0191438  94.7782721 104.0395102  13.8496142
  95.8903110 103.0166106  13.7551447  91.2131630  97.3039335  16.1724699
  90.8429417  96.7510376  16.8605604  91.7090722  96.6997469  15.6199699
  99.0998993  99.7610959  14.5541472  99.5659445 100.5938950  14.4801774
  99.5506494  99.2955940  15.2586730  89.0420828 107.7636830  23.2679717
  89.7430288 108.3973313  23.4209111  88.5715943 108.1051562  22.5075356
  97.0715656  92.1291546  18.5932373  96.1578736  92.3595773  18.7614580
  97.5008757  92.2129990  19.4446405  96.8422114 100.3181438  21.0932267
  96.1893565 100.5657345  20.4384720  97.2202494  99.5045576  20.7594744
  92.8909687 101.0601249  27.5798304  92.2150324 100.9595378  28.2500679
  93.7137321 100.9040463  28.0434301  84.6388547 107.2973185  20.2010819
  85.2241983 106.5516873  20.3338724  84.4413385 107.6077142  21.0847483
  87.4927202 110.3324433  15.2173262  86.8237577 110.8170560  14.7337302
  87.3540071 110.5793653  16.1316640  79.2306201  99.8678786  18.9215263
  79.2690301  99.3342376  19.7152381  78.7246494  99.3413991  18.3026240
  91.6332470 112.3668176  21.8155920  92.1850778 112.5299798  22.5805005
  91.9738664 112.9572614  21.1435945  86.6096964  94.7143326  22.4177805
  86.6738290  95.5758157  22.0055203  86.5464084  94.1017328  21.6850163
  86.0849236  96.7866459  26.0650839  86.7121275  96.4043536  26.6788364
  85.2277155  96.5680661  26.4306532  96.4843345 107.1929434  27.6704575
  97.0283249 107.8059392  27.1759529  95.9030189 107.7509012  28.1871588
  82.8614779  98.5942888  11.9969194  83.1568220  97.6853566  11.9436248
  81.9602815  98.5730627  11.6750196  94.7700858 110.3150152  18.8019602
  94.6451997 109.5139892  18.2930548  95.4279949 110.8096345  18.3133572
  86.3909026  96.6698884  17.9796743  85.6695612  97.2834852  17.8404216
  87.1802282  97.2056649  17.9013389  96.8335766 108.1159172  20.4299152
  95.8866102 107.9964523  20.3577479  97.1818539 107.2281670  20.5125414
  89.1935339  94.0053311  24.2537394  89.7169741  94.2515607  25.0163704
  88.9747673  94.8373346  23.8340532  84.5902620  96.2756985  12.1208519
  84.2615327  95.3954364  11.9383625  84.9441991  96.2204654  13.0084908
  93.8382199 107.9111888  16.6303505  93.6907162 106.9828595  16.8111075
  94.6635693 107.9331979  16.1460580  87.7044444  96.5629955  12.4883997
  88.0440516  97.0915876  11.7662605  88.1516564  96.9010361  13.2642563
  90.3987884  94.9467006  21.9387065  90.0584705  94.1474819  22.3407745
  89.6926891  95.2468717  21.3663898  91.0504356  92.0316318  20.3914388
  91.8730426  91.5576796  20.2693278  91.2942420  92.8106802  20.8913074
  89.6912591  95.0604577  10.6877290  90.4120953  95.4385830  10.1841006
  89.0677895  95.7793454  10.7912268  93.8343714  95.7649726  11.6235622
  94.0507328  96.6474364  11.3224450  93.3537781  95.3735939  10.8941264
  88.5742935  98.7235439  18.2006367  88.4287516  99.0375742  19.0930648
  88.0968139  99.3420339  17.6477265  90.4339318  95.7137987  18.2487256
  90.4200887  94.8179080  17.9119554  91.1511746  95.7208651  18.8825542
  92.2865449  96.1475327  20.2940384  92.0283226  97.0692398  20.2924714
  91.7550489  95.7505762  20.9840848  83.0488597 101.2640783  21.1394028
  82.5042065 102.0400591  21.2714302  83.9267947 101.6111588  20.9813149
  89.8376214  94.5952367  13.5174826  89.9592125  93.6669013  13.7165714
  89.5478256  94.6091053  12.6053142  92.7067404  92.2807278  16.6541546
  92.7289101  92.3446611  15.6993526  93.1235463  91.4411786  16.8482052
  83.8354619 100.3910680  24.0324185  83.0936355 100.5393315  24.6188815
  83.5147363 100.6518945  23.1690934  91.7798282 109.9326658  23.8304575
  92.0885408 109.6875805  24.7027274  92.5773764 110.1373296  23.3423445
  84.2811233 108.2776108  16.0634579  85.1069253 107.9779880  15.6833223
  83.9305285 107.5083731  16.5124368  89.2492766 107.6302577  18.1332253
  88.6272775 106.9673282  17.8334481  89.9197633 107.6563708  17.4505901
  82.4819838 106.1962435  17.0223513  81.6451746 105.7684609  16.8407514
  82.4543483 106.3894878  17.9594304  89.3217293  96.1084365  27.7264759
  89.3705449  96.9846487  27.3442528  89.8639808  95.5661758  27.1536402
  99.8072139 106.6525488  27.0065896  99.0167683 106.6349627  26.4670395
  99.5705494 107.1913782  27.7614933  99.9270014 103.5017954  24.3198624
  99.9768019 103.3367962  25.2614147  99.8183937 102.6345213  23.9296505
  97.2173776  99.4848882  25.6357931  98.1183639  99.3455347  25.3441929
  97.2921751  99.6503337  26.5756109  91.5516582  96.8615737  24.4811117
  90.6819891  97.1549303  24.2093706  91.7876062  97.4456182  25.2018381
 101.4288211 105.9214896  24.5640646 101.1373019 106.2844876  25.4004107
 100.8160342 105.2081904  24.3853978 102.6283893 103.4867776  17.0843216
 103.4630785 103.9257580  17.2480777 102.7643022 103.0106429  16.2651462
  99.6775399 101.0447510  23.0320704 100.1529521 101.2375157  22.2239555
  98.7540964 101.1006696  22.7864088  86.5658906 102.2071678  12.6151782
  86.3204948 101.3034008  12.8131992  86.7354820 102.2088828  11.6731260
  94.2555616  93.0795354  21.9976538  94.7737559  93.8156381  21.6723026
  93.9010748  93.3859347  22.8323297  85.8354553  97.9400035  10.1137944
  85.1423798  98.0144390   9.4577980  85.5906305  97.1760379  10.6359461
  94.5068210  89.4995636  17.5177434  94.7869964  88.8318826  18.1437861
  95.2918817  89.6924732  17.0052098  98.3777068  97.9213270  21.2649010
  99.3294491  98.0211368  21.2861234  98.2080519  97.1291539  21.7747094
  96.3991448  95.0068854  21.4508411  95.8041380  95.2873866  20.7554899
  96.1141144  95.4962755  22.2225152 100.8565146 101.1419390  20.3791309
 100.8241466 100.2035391  20.5650993 101.4665770 101.2203427  19.6457134
 101.0059634  97.9330434  20.4249592 100.4898683  97.1488890  20.2379521
 101.8899583  97.6049150  20.5896112  98.6670361  91.6771449  16.3845405
  98.4695182  91.3686537  17.2688737  99.2770067  92.4033088  16.5143335
 106.6741696 102.2035397  19.5197346 107.4045084 101.9420685  20.0805049
 106.0648641 101.4664119  19.5599414 104.7556993 100.3443260  20.1171797
 104.0290156 100.2099224  19.5088289 104.3404280 100.6520088  20.9228515
  92.5787169 104.0633189  27.8819170  93.4990179 104.2411788  28.0759217
  92.5436752 103.1189235  27.7298870  81.7969334  99.2571783  16.8072445
  81.4772119  98.4037091  16.5146819  81.2502762  99.4720361  17.5630412
  85.5749242 101.9734224  20.5241951  85.7935252 102.9051332  20.5429985
  85.9875016 101.6142198  21.3096755  92.4953460  92.4802309  12.5117640
  91.6854188  92.1349394  12.8872886  93.1837877  92.1709853  13.1005251
  94.4244008  91.5580356  14.1341936  94.9775047  91.9775809  14.7931960
  94.6614094  90.6316104  14.1764892  90.4477107  97.5467430  29.9144700
  90.3473834  98.4961787  29.8456791  90.2298649  97.2185669  29.0420770
  89.6490179  94.7952355   6.4985378  90.5109343  95.1207253   6.7581195
  89.8340523  94.0083851   5.9858443  81.6657594 102.8774694  18.7765566
  80.9721066 102.4628647  18.2635521  82.4130585 102.9195231  18.1798985
  97.8022815  93.6680881  13.6420601  97.2221484  94.3265685  13.2598653
  97.5358748  92.8458226  13.2308018  96.2526381  93.0685939  15.8441921
  96.7526160  93.1802473  15.0356240  96.8961989  92.7646992  16.4842729
  90.3108377 100.9764568  28.7309762  89.8275459 101.7764929  28.9373651
  90.3969316 100.9872513  27.7777206  83.5794337 102.8092948  16.6531581
  83.5565025 102.9080635  15.7013464  83.8894973 103.6558099  16.9748747
  86.2381715 104.8669103  20.7678196  87.1924968 104.8353046  20.7008127
  86.0394238 104.4059727  21.5828422  86.8281097 103.4370219  23.3348993
  87.6473986 103.9314298  23.3583831  87.1017905 102.5202187  23.3066561
  96.5847693  95.8280972  12.6976949  95.6973548  96.1130622  12.4797144
  97.0001682  95.6674735  11.8504226  99.9362229  95.8527493  16.4131288
 100.7122619  96.3423945  16.6855905  99.2110363  96.2785547  16.8703158
 102.3734788  96.5655112  17.4705229 102.9679279  96.3250848  16.7598537
 102.4461372  95.8462242  18.0978765  84.5931943 110.4088723  17.7848394
  84.4586411 109.6489124  17.2186392  84.1764006 111.1329623  17.3177183
 100.3693523  97.1325239  13.7377359 100.1130457  96.7321875  14.5685566
  99.7446391  97.8469033  13.6127498 104.6805861  99.8721313  16.2448650
 104.1205419  99.9414502  17.0180212 104.0749364  99.6962297  15.5248146
  87.7501069 111.3058040  17.9966836  87.6333454 112.2503472  17.8945527
  86.9293516 111.0031601  18.3852636  82.0816011  97.7708353  24.0341191
  82.7274875  97.2607307  24.5228416  81.8733162  98.5077035  24.6084616
  94.6069403 104.8389201  29.5333331  95.4760563 105.0129853  29.1719966
  94.1276155 105.6583617  29.4109060  90.6019622  92.0348398   9.7865087
  90.5898291  92.9790238   9.9433358  91.4943043  91.8518543   9.4924548
  88.7755583 111.9586302  21.2122765  89.6782830 111.9909912  21.5289260
  88.5492954 111.0286753  21.2269101  90.5309186 110.7117288  17.8732843
  89.5804817 110.7119150  17.7597216  90.8341672 109.9650023  17.3568878
  94.4171741  88.6291174  14.0411023  93.6504137  88.0749661  14.1867706
  94.8282446  88.7013043  14.9025175  86.4213502  94.9175970  28.1316205
  87.2844964  94.5612775  28.3419529  85.8478913  94.5789865  28.8191609
 102.7106524 114.0610819  26.3987648 101.9339858 114.6204740  26.3890513
 103.3497087 114.5467602  26.9202518 100.9652896 116.8696273  25.9605615
 101.7067581 117.4081317  25.6840439 100.2589882 117.4962562  26.1177167
 105.9438751 111.6102388  23.5892507 105.6999683 112.3644449  23.0526783
 106.2198682 111.9887736  24.4239754  99.7014260 114.0235921  26.7620925
  99.0712921 114.7052202  26.9956322  99.5950348 113.9119003  25.8174063
  93.2796936 113.9438207  20.1201840  93.5304974 114.8285217  20.3859416
  93.8156484 113.7642809  19.3476932  98.9795003 108.3256687  29.1246176
  98.5861948 107.7722885  29.7993821  99.7961143 108.6367265  29.5152694
 101.8962964 109.7414566  26.7166433 102.6372677 110.3421719  26.6370895
 102.1280887 108.9992204  26.1584475  97.0404302 114.9270933  24.9944663
  96.9257817 114.0256190  25.2951761  96.1848820 115.1734630  24.6429479
 105.8420127 105.7695669  20.9930715 105.4984396 106.6597311  20.9169825
 106.2099089 105.5797327  20.1300300  97.8188849 112.8976519  21.9248068
  98.4911902 112.6893881  21.2760717  96.9918635 112.6998605  21.4853301
 103.7214421 109.5238459  23.9413729 103.0742336 110.2228409  23.8478206
 104.4915436 109.9574603  24.3089978  98.2216346 116.1719122  22.6850506
  98.0836144 115.4399360  23.2862045  99.1321269 116.0828022  22.4034693
  99.5627581 112.8704299  23.9929825  99.0264938 112.4195037  24.6451421
  98.9744289 113.0050208  23.2500289  95.2966702 112.0060306  21.0782819
  95.2124890 111.3985976  20.3433229  94.4749408 112.4969325  21.0792316
 103.7303442 116.3893166  27.5798304 103.0544079 116.2887296  28.2500679
 104.5531076 116.2332380  28.0434301  90.0699956 115.1970703  18.9215263
  90.1084055 114.6634294  19.7152381  89.5640249 114.6705909  18.3026240
  97.4490718 110.0435244  22.4177805  97.5132045 110.9050075  22.0055203
  97.3857838 109.4309245  21.6850163  96.9242991 112.1158376  26.0650839
  97.5515029 111.7335454  26.6788364  96.0670909 111.8972578  26.4306532
 100.0329094 109.3345228  24.2537394 100.5563496 109.5807525  25.0163704
  99.8141427 110.1665263  23.8340532 101.2381639 110.2758924  21.9387065
 100.8978459 109.4766737  22.3407745 100.5320645 110.5760634  21.3663898
 101.8898111 107.3608236  20.3914388 102.7124180 106.8868714  20.2693278
 102.1336174 108.1398720  20.8913074  93.8882352 116.5932701  21.1394028
  93.3435820 117.3692509  21.2714302  94.7661701 116.9403505  20.9813149
  94.6748373 115.7202597  24.0324185  93.9330110 115.8685233  24.6188815
  94.3541118 115.9810863  23.1690934 100.1611048 111.4376282  27.7264759
 100.2099203 112.3138405  27.3442528 100.7033562 110.8953675  27.1536402
 102.3910336 112.1907655  24.4811117 101.5213646 112.4841221  24.2093706
 102.6269817 112.7748100  25.2018381 105.0949370 108.4087272  21.9976538
 105.6131314 109.1448299  21.6723026 104.7404503 108.7151265  22.8323297
 103.4180924 119.3925107  27.8819170 104.3383933 119.5703706  28.0759217
 103.3830507 118.4481152  27.7298870 101.2870862 112.8759347  29.9144700
 101.1867589 113.8253704  29.8456791 101.0692404 112.5477586  29.0420770
 101.1502132 116.3056486  28.7309762 100.6669213 117.1056846  28.9373651
 101.2363071 116.3164431  27.7777206  92.9209766 113.1000271  24.0341191
  93.5668629 112.5899225  24.5228416  92.7126917 113.8368952  24.6084616
 105.4463158 120.1681118  29.5333331 106.3154317 120.3421771  29.1719966
 104.9669909 120.9875535  29.4109060  97.2607257 110.2467888  28.1316205
  98.1238718 109.8904693  28.3419529  96.6872667 109.9081783  28.8191609
  60.1996352  33.3434558  11.5571643  60.1884992  32.9487357  10.6852146
  60.3616991  32.6100631  12.1505414  56.9203613  36.1271670  10.5050827
  56.6293479  37.0317301  10.3897493  57.5560597  36.1688198  11.2194896
  59.3531507  29.7505271  13.1232955  58.5764841  30.3099191  13.1135820
  59.9922070  30.2362054  13.6447825  57.6077880  32.5590725  12.6850922
  58.3492564  33.0975769  12.4085745  56.9014865  33.1857013  12.8422474
  63.0833219  34.7019865  11.2823083  63.4916575  34.2602276  10.5377716
  62.3610481  34.1272493  11.5357276  65.6548025  36.7207408   7.1637437
  66.4765469  36.3187595   6.8820119  65.6510428  36.6175642   8.1153553
  60.7621123  38.5583125  13.3177470  60.3184977  37.7719504  12.9998374
  61.4238336  38.7462276  12.6521361  62.8602361  38.8385925  11.3458871
  62.8420836  39.6594806  10.8539140  63.7822281  38.7140001  11.5709012
  59.3175415  36.3530055  12.1882379  59.8503752  35.5918343  11.9581687
  58.7889496  36.0603707  12.9306534  68.7103093  35.3275021   8.1668709
  68.9038983  36.2320831   8.4127984  68.6103711  34.8682440   9.0007294
  63.7718202  35.4781764  13.7409589  63.6203708  35.2492315  12.8239673
  63.7622881  36.4352365  13.7540934  65.4810409  38.5100886  11.8186071
  65.4222955  37.8260106  11.1516654  65.8829927  39.2519876  11.3666697
  65.4827816  36.4740470  10.0500051  64.5954595  36.1366392  10.1726450
  66.0526367  35.7423501  10.2868816  61.4727653  41.0328756   9.1719453
  62.1855625  41.6676221   9.0995354  60.9817681  41.1292622   8.3559454
  56.5239566  38.7823200   9.9925023  57.2249026  39.4159683  10.1454418
  56.0534681  39.1237931   9.2320663  60.3728425  32.0787618  14.3043611
  59.6969062  31.9781748  14.9745986  61.1956059  31.9226832  14.7679608
  59.1151208  43.3854546   8.5401227  59.6669516  43.5486167   9.3050312
  59.4557402  43.9758984   7.8681252  63.9662082  38.2115803  14.3949881
  64.5101986  38.8245762  13.9004836  63.3848927  38.7695382  14.9116894
  64.3154504  39.1345541   7.1544459  63.3684839  39.0150893   7.0822786
  64.6637277  38.2468039   7.2370721  59.2617019  40.9513027  10.5549881
  59.5704146  40.7062174  11.4272581  60.0592501  41.1559666  10.0668751
  67.2890877  37.6711857  13.7311203  66.4986420  37.6535996  13.1915702
  67.0524231  38.2100151  14.4860239  67.4088752  34.5204324  11.0443931
  67.4586757  34.3554331  11.9859454  67.3002675  33.6531583  10.6541812
  64.6992514  30.5035252  12.3603238  65.6002377  30.3641717  12.0687236
  64.7740489  30.6689707  13.3001415  68.9106949  36.9401265  11.2885953
  68.6191757  37.3031246  12.1249414  68.2979080  36.2268274  11.1099285
  67.1594137  32.0633880   9.7566011  67.6348259  32.2561526   8.9484862
  66.2359702  32.1193066   9.5109394  74.1560434  33.2221767   6.2442653
  74.8863822  32.9607055   6.8050356  73.5467379  32.4850488   6.2844721
  60.0605907  35.0819559  14.6064477  60.9808917  35.2598158  14.8004523
  60.0255490  34.1375604  14.4544176  57.9295845  28.5653799  16.6390007
  57.8292572  29.5148156  16.5702098  57.7117387  28.2372038  15.7666077
  57.7927115  31.9950938  15.4555069  57.3094197  32.7951298  15.6618958
  57.8788054  32.0058883  14.5022513  62.0888141  35.8575570  16.2578638
  62.9579301  36.0316222  15.8965273  61.6094893  36.6769987  16.1354367
  56.2574321  42.9772671   7.9368071  57.1601568  43.0096281   8.2534566
  56.0311691  42.0473122   7.9514407  73.7480617  47.5664196   5.6623912
  74.3859027  47.4470943   4.9587252  73.6301460  48.5145040   5.7211865
  70.5570323  47.5191624   5.5985437  70.2188835  47.4032689   4.7105972
  71.4260091  47.1182789   5.5786443  66.4157139  49.3727101   1.5882328
  65.8522004  49.2817038   0.8198616  66.3009534  48.5527005   2.0684821
  71.0390106  48.6726476  11.5571643  71.0278747  48.2779274  10.6852146
  71.2010746  47.9392549  12.1505414  63.9621571  50.8678292   4.4266548
  64.7542863  50.5269117   4.0112848  64.2018221  50.9773267   5.3468702
  71.9956697  53.0398068  -3.1003207  71.3444677  53.6252149  -3.4869193
  72.7901060  53.5704263  -3.0408170  67.7597367  51.4563588  10.5050827
  67.4687233  52.3609219  10.3897493  68.3954352  51.4980115  11.2194896
  68.6853574  48.8340436   7.0952186  69.2817146  48.6096459   6.3809149
  68.7428546  48.0925182   7.6977634  73.3021885  45.2915650   2.7377120
  74.0884975  44.8735073   2.3867537  73.5660590  46.1961742   2.9058769
  73.4731963  50.7288500  -2.5634223  72.8377796  50.8023127  -1.8513318
  73.1429369  51.3182099  -3.2415144  78.7030312  45.2290883   3.6410099
  79.4355484  44.6590100   3.8747928  77.9469668  44.8412484   4.0816605
  70.3206432  47.6518125   0.8373441  69.9564639  47.1248746   1.5486363
  71.1773548  47.2616594   0.6639927  76.2255733  38.9412457   8.1004708
  75.8939058  39.8107868   7.8765923  75.6301346  38.6248741   8.7798738
  72.7187252  51.1425003   7.5000620  72.4187975  52.0450042   7.3916428
  72.3738312  50.8757186   8.3521773  66.1699734  47.5938800   3.5337325
  65.2450230  47.4615014   3.7415016  66.4184147  48.3733019   4.0307267
  76.1184396  43.6607543   5.1798058  75.2101273  43.5922952   4.8856819
  76.0671992  44.1379488   6.0079883  63.5308545  47.2372074   4.3681114
  63.6600926  47.4906553   5.2820525  62.8505996  47.8299782   4.0485769
  67.7008032  57.9069324   0.4671588  67.6232062  58.8577149   0.5460069
  67.0969676  57.5615196   1.1246514  70.1925262  45.0797189  13.1232955
  69.4158596  45.6391109  13.1135820  70.8315825  45.5653972  13.6447825
  77.9846042  41.8623982   6.9575932  77.3420423  42.1556515   6.3115726
  77.4800971  41.7476902   7.7629128  75.6386206  45.6087155  -2.3538209
  76.5504062  45.8414542  -2.5290512  75.1295853  46.1924199  -2.9163131
  68.4471634  47.8882642  12.6850922  69.1886319  48.4267686  12.4085745
  67.7408620  48.5148931  12.8422474  73.9226974  50.0311783  11.2823083
  74.3310330  49.5894193  10.5377716  73.2004235  49.4564410  11.5357276
  70.2758044  44.9684390   8.6556640  71.1219239  45.3923803   8.7991289
  70.2156682  44.3118014   9.3495203  74.2455788  50.5912973   5.0375372
  73.6164651  50.7558688   4.3351440  73.8581451  51.0054583   5.8086336
  78.1245020  51.5267411   2.3919736  77.4396058  51.9066313   1.8416769
  78.2088870  52.1362738   3.1251684  73.4257489  42.6288758  10.3137814
  73.1818421  43.3830819   9.7772090  73.7017420  43.0074106  11.1485061
  75.3795952  49.1727370   8.9915080  75.5912847  49.8159130   8.3149461
  75.3325700  48.3389687   8.5237010  72.9822181  41.7845191   5.8951652
  72.1206660  42.0826445   6.1868389  73.0084616  42.0015590   4.9632684
  69.7983750  50.3287382   2.3025457  70.2622096  50.6075085   1.5130080
  69.5340548  49.4270826   2.1198548  66.6907831  49.8758863   5.2405221
  67.2609188  50.3046131   4.6022705  67.2815943  49.5941448   5.9389406
  67.1832998  45.0422291  13.4866232  66.5531658  45.7238571  13.7201629
  67.0769086  44.9305372  12.5419370  62.4777970  44.7094087   4.4132156
  61.6877024  44.9651615   3.9372267  62.9689218  45.5242424   4.5184197
  76.4941780  52.0499326   7.1637437  77.3159224  51.6479513   6.8820119
  76.4904183  51.9467560   8.1153553  70.2598383  51.5983369   9.3198147
  70.3242816  52.0603776  10.1556319  69.5509307  50.9680734   9.4480457
  60.7615673  44.9624577   6.8447147  61.0123712  45.8471587   7.1104723
  61.2975222  44.7829179   6.0722239  84.5847773  48.3938074   3.5122408
  83.8311481  47.8245472   3.3566413  84.7195314  48.3600739   4.4593043
  69.9746401  53.2651477  -0.8122872  69.8392076  54.1103012  -0.3838024
  70.5156214  53.4670754  -1.5756939  66.4613741  39.3443056  15.8491483
  66.0680686  38.7909255  16.5239127  67.2779881  39.6553635  16.2398000
  63.4275798  50.7826915  -0.2394947  63.9400319  51.5770165  -0.0889383
  64.0798511  50.0853205  -0.3061346  65.2370683  53.8992671   1.8427806
  65.4137311  54.8210636   1.6548790  66.0327517  53.5851090   2.2722186
  69.3781702  40.7600935  13.4411739  70.1191415  41.3608089  13.3616202
  69.6099624  40.0178573  12.8829782  64.5223040  45.9457303  11.7189969
  64.4076555  45.0442560  12.0197068  63.6667557  46.1921000  11.3674786
  71.6014877  53.8875043  13.3177470  71.1578732  53.1011422  12.9998374
  72.2632091  54.0754194  12.6521361  66.3601999  55.4170845   7.8438148
  66.9109424  55.2887908   7.0715142  65.5213474  55.7165734   7.4933041
  73.6996115  54.1677843  11.3458871  73.6814591  54.9886724  10.8539140
  74.6216035  54.0431918  11.5709012  70.1569170  51.6821972  12.1882379
  70.6897506  50.9210261  11.9581687  69.6283251  51.3895624  12.9306534
  73.3238865  36.7882038   7.7176021  72.9803134  37.6783680   7.6415132
  73.6917827  36.5983696   6.8545606  72.4035405  39.1586694   5.6825254
  71.9000201  39.1216829   4.8693060  72.6966012  40.0679436   5.7421911
  68.6478291  39.2425423   4.6891436  69.5131288  39.0468232   4.3297326
  68.7155800  39.0135775   5.6160793  78.2623421  49.5323004  -1.8398370
  77.4852864  49.1934164  -2.2843208  78.9414902  49.5375627  -2.5143405
  71.5221882  50.8107965  -0.2998809  70.9943244  50.0760725  -0.6125571
  71.0209385  51.5882641  -0.5458840  76.5014728  49.0056985   4.8168238
  75.8438403  49.6956247   4.9048366  77.3055128  49.3953417   5.1602224
  75.3120187  47.3601358   2.8672179  75.8252069  47.9931350   3.3693889
  75.9621411  46.7602554   2.5015540  72.5742561  57.3385682  -4.3767149
  71.9004260  57.6417379  -3.7682192  72.9608383  58.1414763  -4.7261692
  71.7901018  44.8350814   5.1130520  70.8723579  45.0565761   4.9552208
  72.2061162  44.9097124   4.2542227  72.5736066  46.2342229   0.2433200
  73.3207885  46.7463627  -0.0659678  72.8427655  45.9126282   1.1037594
  76.0781983  52.3407360   0.9951322  75.6244310  51.4998269   1.0516513
  75.4475950  52.9768758   1.3326102  75.0214903  43.2699346   2.2251990
  74.2837660  42.7576732   2.5562232  75.2741676  42.8299727   1.4135266
  74.5214923  54.1783856   1.9301140  74.8137897  54.7388913   1.2113506
  75.0313543  54.4712417   2.6854299  69.3947610  46.3429391   3.3269950
  69.4496220  45.3903227   3.2512426  68.5838812  46.4988830   3.8111248
  67.3339970  44.9606450   1.0860329  66.5207835  45.2600621   1.4925521
  67.8298964  44.5662139   1.8034811  69.4848548  54.9564207   3.0194593
  69.4424727  55.1825054   2.0903125  70.4011247  54.7227582   3.1680395
  72.9314182  45.4248275   9.9175223  73.2863569  45.6519748  10.7769688
  73.5786313  45.7566652   9.2952478  78.6611919  48.5466711   0.6224552
  78.5229817  48.7368307  -0.3054259  78.3048137  49.3086094   1.0792603
  66.8254045  42.5324806   6.7021564  67.4653424  42.3913565   6.0044527
  65.9931575  42.2459319   6.3260166  78.6881298  50.6143238   5.6335823
  79.1217805  50.5218527   6.4818877  79.4012879  50.5900738   4.9955839
  67.6014349  51.8327236   2.8156556  68.3954947  51.3377557   2.6139131
  66.8906041  51.3045100   2.4524262  72.4209193  54.2145332   7.1668924
  72.4746215  54.7836268   7.9346640  71.5523974  54.3847217   6.8022961
  65.3007586  43.9162888   8.6493375  65.9730640  43.7080250   8.0006024
  64.4737373  43.7184974   8.2098607  79.5496848  50.6566938   8.1668709
  79.7432738  51.5612749   8.4127984  79.4497466  50.1974358   9.0007294
  71.2033158  40.5424829  10.6659036  70.5561073  41.2414779  10.5723512
  71.9734174  40.9760973  11.0335284  74.6111956  50.8073681  13.7409589
  74.4597463  50.5784233  12.8239673  74.6016636  51.7644283  13.7540934
  71.3797293  48.3805594   8.7255856  72.3089353  48.5316754   8.5524823
  70.9588323  48.4689615   7.8704502  70.1785625  52.4056258   6.4954393
  70.0396710  52.0375043   7.3680331  69.3900221  52.9203898   6.3238351
  70.7733777  57.5065355  -2.1620070  70.9485532  57.0353398  -1.3474448
  70.0866565  58.1331121  -1.9338809  71.7290840  51.7837861   3.8843231
  71.3940672  51.7438631   4.7800881  71.2294785  51.1182577   3.4113641
  65.7035084  47.1905491   9.4095812  65.5654882  46.4585730  10.0107351
  66.6140007  47.1014391   9.1280000  68.3317384  46.9025450   8.8979492
  69.0417003  46.2618643   8.8566110  68.2886692  47.1538345   9.8205673
  76.3204163  53.8392804  11.8186071  76.2616709  53.1552024  11.1516654
  76.7223681  54.5811794  11.3666697  67.0446318  43.8890668  10.7175131
  66.5083675  43.4381407  11.3696728  66.4563027  44.0236577   9.9745596
  65.3394862  60.6554718   4.6119790  65.5791460  61.2873242   5.2898809
  64.4964058  60.3042758   4.8985149  76.3221570  51.8032388  10.0500051
  75.4348349  51.4658309  10.1726450  76.8920121  51.0715419  10.2868816
  57.9750717  48.1356479   3.3743102  58.6621757  47.8218209   2.7864117
  57.8198846  49.0397844   3.1010354  62.7785440  43.0246676   7.8028126
  62.6943628  42.4172346   7.0678536  61.9568146  43.5155694   7.8037622
  69.8522724  56.4633840   7.0161294  69.7792895  57.2688812   7.5280599
  69.4100117  56.6625806   6.1909315  69.6412503  55.7005610   0.5264116
  68.8580025  56.2427290   0.6202340  70.3405248  56.2179590   0.9258357
  72.9509153  41.5100240   3.1698321  73.4477853  40.7570202   2.8499391
  72.1796135  41.5464556   2.6041530  80.8038911  47.2140605   4.8116612
  80.7928787  48.0965320   4.4410545  79.9356290  46.8612156   4.6171149
  72.3121407  56.3620674   9.1719453  73.0249379  56.9968139   9.0995354
  71.8211436  56.4584540   8.3559454  74.0338934  50.2671927   0.7436744
  73.0995213  50.3873389   0.5741449  74.2115603  49.3644394   0.4796754
  69.5344122  43.6517623   2.8970005  69.1641910  43.0988663   3.5850911
  70.0303215  43.0475756   2.3445006  77.4211485  46.1089246   1.2786778
  77.8871938  46.9417238   1.2047081  77.8718986  45.6434228   1.9832037
  67.3633321  54.1115118   9.9925023  68.0642780  54.7451600  10.1454418
  66.8928436  54.4529849   9.2320663  75.4887717  52.4533067  -1.7227070
  75.7647560  52.3389662  -0.8133195  74.6192215  52.0550552  -1.7614896
  75.3928148  38.4769833   5.3177680  74.4791228  38.7074060   5.4859887
  75.8221250  38.5608277   6.1691712  75.1634607  46.6659725   7.8177574
  74.5106057  46.9135632   7.1630027  75.5414987  45.8523863   7.4840051
  72.1241781  56.7019418   1.9205744  72.3064175  55.8841074   2.3833496
  72.9474767  56.9187110   1.4830634  72.4583946  55.6287603  -0.8179207
  72.9871712  55.1180058  -1.4309045  72.7212166  55.3130134   0.0466326
  71.2122180  47.4079536  14.3043611  70.5362817  47.3073665  14.9745986
  72.0349814  47.2518750  14.7679608  62.9601039  53.6451473   6.9256126
  63.5454476  52.8995160   7.0584030  62.7625877  53.9555429   7.8092790
  65.8139694  56.6802720   1.9418568  65.1450069  57.1648848   1.4582609
  65.6752564  56.9271940   2.8561947  57.5518694  46.2157073   5.6460569
  57.5902793  45.6820663   6.4397687  57.0458986  45.6892278   5.0271546
  69.9544963  58.7146463   8.5401227  70.5063271  58.8778085   9.3050312
  70.2951156  59.3050901   7.8681252  64.9309456  41.0621613   9.1423112
  64.9950782  41.9236444   8.7300509  64.8676576  40.4495615   8.4095470
  64.4061728  43.1344746  12.7896146  65.0333767  42.7521823  13.4033670
  63.5489647  42.9158948  13.1551838  74.8055837  53.5407721  14.3949881
  75.3495741  54.1537679  13.9004836  74.2242682  54.0987299  14.9116894
  73.0913350  56.6628439   5.5264909  72.9664489  55.8618179   5.0175855
  73.7492441  57.1574632   5.0378879  64.7121518  43.0177172   4.7042049
  63.9908104  43.6313139   4.5649523  65.5014774  43.5534936   4.6258695
  75.1548258  54.4637459   7.1544459  74.2078594  54.3442810   7.0822786
  75.5031031  53.5759957   7.2370721  67.5147832  40.3531598  10.9782701
  68.0382233  40.5993895  11.7409010  67.2960165  41.1851633  10.5585838
  72.1594692  54.2590175   3.3548811  72.0119654  53.3306883   3.5356381
  72.9848185  54.2810266   2.8705887  75.7628813  55.0818734   4.4413684
  76.6875361  54.8761595   4.3038135  75.5944117  54.8335135   5.3503026
  68.7200377  41.2945293   8.6632372  68.3797197  40.4953106   9.0653051
  68.0139383  41.5947004   8.0909205  69.3716848  38.3794606   7.1159695
  70.1942918  37.9055084   6.9938585  69.6154912  39.1585089   7.6158381
  66.8955427  45.0713726   4.9251673  66.7500008  45.3854029   5.8175955
  66.4180631  45.6898627   4.3722572  68.7551810  42.0616274   4.9732563
  68.7413379  41.1657367   4.6364861  69.4724238  42.0686938   5.6070849
  70.6077941  42.4953614   7.0185690  70.3495719  43.4170685   7.0170021
  70.0762981  42.0984049   7.7086154  75.5524130  55.6004401  -0.2024224
  75.7261007  55.0350824  -0.9550372  76.0453021  56.4005296  -0.3844734
  61.3701089  47.6119071   7.8639334  60.8254557  48.3878879   7.9959609
  62.2480439  47.9589875   7.7058456  81.4063521  48.3640824   1.4166075
  81.8494667  47.6148150   1.0185199  80.5290031  48.3550961   1.0339807
  76.5399302  54.9171166  -3.1027326  77.2350207  55.5377859  -2.8840012
  76.8822452  54.0666517  -2.8274948  62.1567111  46.7388967  10.7569491
  61.4148847  46.8871602  11.3434122  61.8359856  46.9997232   9.8936241
  78.4390725  52.3670871  -1.5739995  78.9642049  52.7058144  -2.2990675
  78.3513078  51.4317887  -1.7576861  70.1010774  56.2804945  10.5549881
  70.4097900  56.0354092  11.4272581  70.8986256  56.4851584  10.0668751
  70.1231386  58.4342855   2.7855258  69.6836376  57.9419233   3.4788114
  70.8739503  57.8915822   2.5447333  62.6023725  54.6254396   2.7879886
  63.4281745  54.3258167   2.4078529  62.2517777  53.8562018   3.2369675
  67.5705258  53.9780864   4.8577559  66.9485267  53.3151569   4.5579787
  68.2410125  54.0041996   4.1751207  60.8032330  52.5440722   3.7468819
  59.9664238  52.1162896   3.5652821  60.7755975  52.7373165   4.6839611
  67.6429786  42.4562652  14.4510065  67.6917941  43.3324775  14.0687835
  68.1852300  41.9140045  13.8781709  78.1284631  53.0003775  13.7311203
  77.3380175  52.9827914  13.1915702  77.8917986  53.5392069  14.4860239
  78.2482506  49.8496241  11.0443931  78.2980511  49.6846249  11.9859454
  78.1396430  48.9823500  10.6541812  67.1318765  52.5284787  -1.6663980
  67.2806885  53.2120252  -2.3197307  67.9385208  52.5089877  -1.1514524
  75.5386269  45.8327169  12.3603238  76.4396131  45.6933634  12.0687236
  75.6134243  45.9981624  13.3001415  69.8729074  43.2094024  11.2056424
  69.0032383  43.5027590  10.9339013  70.1088554  43.7934469  11.9263688
  79.7500703  52.2693183  11.2885953  79.4585511  52.6323164  12.1249414
  79.1372834  51.5560191  11.1099285  80.9496385  49.8346063   3.8088523
  81.7843277  50.2735867   3.9726083  81.0855514  49.3584716   2.9896769
  77.9987891  47.3925798   9.7566011  78.4742013  47.5853444   8.9484862
  77.0753457  47.4484983   9.5109394  72.5768108  39.4273641   8.7221845
  73.0950052  40.1634668   8.3968333  72.2223241  39.7337634   9.5568604
  72.8280702  35.8473924   4.2422741  73.1082456  35.1797113   4.8683168
  73.6131309  36.0403019   3.7297405  70.6314171  55.0232918  -4.1952233
  70.0588138  55.6423105  -4.6481761  71.2046964  55.5732279  -3.6612311
  76.6989560  44.2691558   7.9894316  77.6506983  44.3689655   8.0106540
  76.5293011  43.4769826   8.4992401  74.7203940  41.3547141   8.1753717
  74.1253872  41.6352154   7.4800206  74.4353637  41.8441042   8.9470458
  73.8511430  55.3070068  -3.0643650  74.7842103  55.2415629  -2.8610775
  73.7634643  56.1426335  -3.5229118  76.4799447  54.6235938  -6.1039703
  76.4013079  54.2895802  -5.2103945  77.3009114  55.1157706  -6.1048230
  79.1777638  47.4897677   7.1036616  79.1453958  46.5513678   7.2896300
  79.7878262  47.5681714   6.3702441  79.3272127  44.2808721   7.1494899
  78.8111175  43.4967177   6.9624828  80.2112075  43.9527437   7.3141419
  76.9882854  38.0249736   3.1090712  76.7907675  37.7164825   3.9934044
  77.5982559  38.7511375   3.2388642  84.9954188  48.5513684   6.2442653
  85.7257577  48.2898972   6.8050356  84.3861134  47.8142406   6.2844721
  83.0769485  46.6921547   6.8417104  82.3502649  46.5577512   6.2333595
  82.6616772  46.9998375   7.6473822  70.8999662  50.4111476  14.6064477
  71.8202671  50.5890075  14.8004523  70.8649245  49.4667522  14.4544176
  63.8961734  48.3212511   7.2487258  64.1147744  49.2529619   7.2675292
  64.3087508  47.9620486   8.0342062  68.7689599  43.8945717  16.6390007
  68.6686326  44.8440074  16.5702098  68.5511141  43.5663956  15.7666077
  59.9870087  49.2252982   5.5010873  59.2933558  48.8106934   4.9880828
  60.7343078  49.2673518   4.9044292  74.5738874  39.4164226   2.5687228
  75.0738652  39.5280761   1.7601547  75.2174482  39.1125279   3.2088036
  68.6320869  47.3242856  15.4555069  68.1487951  48.1243216  15.6618958
  68.7181809  47.3350801  14.5022513  61.9006829  49.1571235   3.3776888
  61.8777517  49.2558923   2.4258771  62.2107466  50.0036386   3.6994054
  64.5594207  51.2147390   7.4923502  65.5137461  51.1831333   7.4253434
  64.3606731  50.7538014   8.3073728  65.1493589  49.7848506  10.0594300
  65.9686478  50.2792585  10.0829137  65.4230397  48.8680475  10.0311868
  78.2574721  42.2005780   3.1376595  79.0335112  42.6902232   3.4101212
  77.5322856  42.6263834   3.5948464  80.6947280  42.9133399   4.1950535
  81.2891771  42.6729135   3.4843844  80.7673864  42.1940530   4.8224072
  62.9144436  56.7567010   4.5093700  62.7798904  55.9967411   3.9431698
  62.4976498  57.4807910   4.0422489  74.8801209  47.6913795  -0.3627454
  74.8236410  48.1482346  -1.2019822  75.4329552  46.9304479  -0.5404611
  78.6906015  43.4803527   0.4622665  78.4342949  43.0800162   1.2930873
  78.0658883  44.1947321   0.3372804  83.0018353  46.2199600   2.9693957
  82.4417911  46.2892789   3.7425519  82.3961856  46.0440584   2.2493453
  66.0713562  57.6536327   4.7212143  65.9545946  58.5981759   4.6190833
  65.2506008  57.3509889   5.1097942  75.9590096  52.3786463  -4.4331264
  76.7935700  51.9467661  -4.6153790  75.7974439  52.2068476  -3.5054370
  75.6135988  48.8818576  -3.0674925  75.5584792  48.7162847  -4.0086481
  74.9882044  49.5894609  -2.9112735  60.4028503  44.1186640  10.7586497
  61.0487367  43.6085594  11.2473722  60.1945654  44.8555322  11.3329922
  72.9281896  51.1867488  16.2578638  73.7973055  51.3608140  15.8965273
  72.4488647  52.0061905  16.1354367  67.0968076  58.3064589   7.9368071
  67.9995322  58.3388199   8.2534566  66.8705446  57.3765040   7.9514407
  68.8521678  57.0595575   4.5978150  67.9017309  57.0597437   4.4842522
  69.1554164  56.3128310   4.0814185  64.7425994  41.2654257  14.8561511
  65.6057456  40.9091062  15.0664836  64.1691405  40.9268152  15.5436916
  84.5874371  62.8956114   5.6623912  85.2252781  62.7762861   4.9587252
  84.4695214  63.8436958   5.7211865  81.3964078  62.8483542   5.5985437
  81.0582589  62.7324607   4.7105972  82.2653846  62.4474707   5.5786443
  77.2550893  64.7019018   1.5882328  76.6915758  64.6108955   0.8198616
  77.1403288  63.8818923   2.0684821  81.8783861  64.0018394  11.5571643
  81.8672501  63.6071192  10.6852146  82.0404500  63.2684466  12.1505414
  74.8015325  66.1970210   4.4266548  75.5936617  65.8561035   4.0112848
  75.0411975  66.3065185   5.3468702  82.8350452  68.3689986  -3.1003207
  82.1838432  68.9544066  -3.4869193  83.6294815  68.8996181  -3.0408170
  76.7606079  65.4579123  -2.7016073  77.5336955  64.9108110  -2.8403197
  77.1131478  66.3223372  -2.4901611  78.5991122  66.7855505  10.5050827
  78.3080988  67.6901136  10.3897493  79.2348106  66.8272033  11.2194896
  79.5247329  64.1632354   7.0952186  80.1210901  63.9388376   6.3809149
  79.5822300  63.4217099   7.6977634  79.0972357  61.6171789  -5.0697623
  79.3497878  61.0953311  -5.8314160  78.1596916  61.4537935  -4.9670939
  84.1415640  60.6207568   2.7377120  84.9278729  60.2026991   2.3867537
  84.4054344  61.5253660   2.9058769  84.3125717  66.0580418  -2.5634223
  83.6771550  66.1315044  -1.8513318  83.9823124  66.6474017  -3.2415144
  89.5424067  60.5582801   3.6410099  90.2749239  59.9882018   3.8747928
  88.7863423  60.1704401   4.0816605  78.8168646  63.5199895  -2.8673248
  78.7004904  62.8444799  -2.1992164  78.9270906  63.0332269  -3.6841095
  81.1600187  62.9810042   0.8373441  80.7958394  62.4540663   1.5486363
  82.0167303  62.5908511   0.6639927  87.0649487  54.2704375   8.1004708
  86.7332812  55.1399786   7.8765923  86.4695101  53.9540659   8.7798738
  80.8005674  58.0099942  -4.1665210  80.9680076  58.8780178  -3.7994739
  80.6102843  58.1727224  -5.0903921  83.5581007  66.4716921   7.5000620
  83.2581730  67.3741960   7.3916428  83.2132066  66.2049104   8.3521773
  77.0093488  62.9230718   3.5337325  76.0843985  62.7906932   3.7415016
  77.2577901  63.7024937   4.0307267  86.9578151  58.9899461   5.1798058
  86.0495028  58.9214870   4.8856819  86.9065746  59.4671406   6.0079883
  80.7794894  60.4657600  -3.1818543  80.6594520  60.9114650  -2.3433063
  80.0847483  60.8142917  -3.7405005  74.3702299  62.5663991   4.3681114
  74.4994680  62.8198470   5.2820525  73.6899751  63.1591699   4.0485769
  78.5401787  73.2361241   0.4671588  78.4625816  74.1869066   0.5460069
  77.9363430  72.8907114   1.1246514  81.0319016  60.4089107  13.1232955
  80.2552350  60.9683027  13.1135820  81.6709579  60.8945890  13.6447825
  88.8239797  57.1915900   6.9575932  88.1814177  57.4848433   6.3115726
  88.3194725  57.0768820   7.7629128  86.4779961  60.9379073  -2.3538209
  87.3897817  61.1706459  -2.5290512  85.9689608  61.5216117  -2.9163131
  79.2865389  63.2174560  12.6850922  80.0280073  63.7559604  12.4085745
  78.5802374  63.8440849  12.8422474  84.7620728  65.3603701  11.2823083
  85.1704084  64.9186111  10.5377716  84.0397990  64.7856328  11.5357276
  81.1151798  60.2976307   8.6556640  81.9612994  60.7215721   8.7991289
  81.0550436  59.6409932   9.3495203  85.0849543  65.9204891   5.0375372
  84.4558405  66.0850605   4.3351440  84.6975205  66.3346501   5.8086336
  88.9638775  66.8559329   2.3919736  88.2789813  67.2358230   1.8416769
  89.0482624  67.4654656   3.1251684  84.2651244  57.9580676  10.3137814
  84.0212176  58.7122736   9.7772090  84.5411174  58.3366023  11.1485061
  86.2189706  64.5019288   8.9915080  86.4306602  65.1451048   8.3149461
  86.1719455  63.6681605   8.5237010  83.8215935  57.1137109   5.8951652
  82.9600414  57.4118362   6.1868389  83.8478370  57.3307508   4.9632684
  80.6377505  65.6579299   2.3025457  81.1015850  65.9367002   1.5130080
  80.3734303  64.7562744   2.1198548  77.5301586  65.2050781   5.2405221
  78.1002943  65.6338049   4.6022705  78.1209698  64.9233365   5.9389406
  79.5746391  61.7802452  -0.8884978  80.2770434  62.2323495  -0.4211051
  79.2427019  61.1386270  -0.2605084  78.0226752  60.3714208  13.4866232
  77.3925413  61.0530489  13.7201629  77.9162840  60.2597290  12.5419370
  73.3171725  60.0386004   4.4132156  72.5270779  60.2943533   3.9372267
  73.8082972  60.8534342   4.5184197  87.3335534  67.3791243   7.1637437
  88.1552978  66.9771431   6.8820119  87.3297937  67.2759478   8.1153553
  75.2686470  60.4030584   1.3715633  74.4717633  60.5149278   1.8899128
  75.0412062  60.7417236   0.5056523  81.0992138  66.9275287   9.3198147
  81.1636570  67.3895694  10.1556319  80.3903062  66.2972652   9.4480457
  71.6009428  60.2916495   6.8447147  71.8517466  61.1763505   7.1104723
  72.1368976  60.1121096   6.0722239  95.4241527  63.7229992   3.5122408
  94.6705236  63.1537390   3.3566413  95.5589069  63.6892656   4.4593043
  80.8140155  68.5943394  -0.8122872  80.6785830  69.4394930  -0.3838024
  81.3549968  68.7962672  -1.5756939  77.3007495  54.6734974  15.8491483
  76.9074441  54.1201173  16.5239127  78.1173635  54.9845553  16.2398000
  74.2669553  66.1118832  -0.2394947  74.7794073  66.9062083  -0.0889383
  74.9192266  65.4145123  -0.3061346  76.0764438  69.2284589   1.8427806
  76.2531066  70.1502553   1.6548790  76.8721271  68.9143008   2.2722186
  80.2175456  56.0892853  13.4411739  80.9585169  56.6900006  13.3616202
  80.4493379  55.3470491  12.8829782  75.3616794  61.2749220  11.7189969
  75.2470309  60.3734478  12.0197068  74.5061312  61.5212917  11.3674786
  82.4408632  69.2166961  13.3177470  81.9972486  68.4303339  12.9998374
  83.1025845  69.4046111  12.6521361  77.1995753  70.7462762   7.8438148
  77.7503178  70.6179826   7.0715142  76.3607229  71.0457651   7.4933041
  84.5389870  69.4969761  11.3458871  84.5208345  70.3178642  10.8539140
  85.4609790  69.3723836  11.5709012  80.9962924  67.0113890  12.1882379
  81.5291261  66.2502178  11.9581687  80.4677005  66.7187542  12.9306534
  84.1632619  52.1173956   7.7176021  83.8196888  53.0075598   7.6415132
  84.5311582  51.9275614   6.8545606  72.2318470  64.4407487   0.5364623
  73.0693692  64.8504495   0.3198331  72.4096737  63.5006929   0.5064817
  84.1282902  62.1082567  -3.7751544  83.6129525  62.8787172  -3.5363156
  83.8560210  61.4347703  -3.1518482  81.7130013  56.9532268   1.2833695
  80.8571609  56.5639118   1.1039333  82.1256965  57.0324229   0.4233480
  83.2429159  54.4878611   5.6825254  82.7393955  54.4508746   4.8693060
  83.5359766  55.3971354   5.7421911  79.4872045  54.5717341   4.6891436
  80.3525042  54.3760150   4.3297326  79.5549554  54.3427693   5.6160793
  89.1017176  64.8614922  -1.8398370  88.3246619  64.5226081  -2.2843208
  89.7808657  64.8667545  -2.5143405  83.9169205  59.9809659  -1.9491763
  83.6119341  60.2955808  -1.0981619  84.8699647  60.0591079  -1.9064430
  82.3615637  66.1399883  -0.2998809  81.8336998  65.4052642  -0.6125571
  81.8603140  66.9174559  -0.5458840  87.3408483  64.3348903   4.8168238
  86.6832157  65.0248165   4.9048366  88.1448882  64.7245335   5.1602224
  77.0934364  56.8019549   2.0607803  77.6678116  56.5794730   1.3280996
  77.6805347  56.8708243   2.8136404  86.1513942  62.6893276   2.8672179
  86.6645823  63.3223268   3.3693889  86.8015166  62.0894471   2.5015540
  77.4203952  58.8324010  -3.9196312  76.5841264  59.1698696  -3.5987037
  77.2808721  58.6972990  -4.8569175  79.3957032  53.6760798   0.7882872
  78.7421444  53.3609815   0.1639487  79.3537506  53.0536538   1.5142695
  80.5068237  63.9580093  -7.2963836  79.5995299  63.7269346  -7.0972687
  81.0039269  63.1617712  -7.1089854  83.4136316  72.6677600  -4.3767149
  82.7398015  72.9709297  -3.7682192  83.8002138  73.4706680  -4.7261692
  82.6294772  60.1642731   5.1130520  81.7117334  60.3857678   4.9552208
  83.0454916  60.2389042   4.2542227  83.4129820  61.5634147   0.2433200
  84.1601639  62.0755544  -0.0659678  83.6821410  61.2418200   1.1037594
  81.6856470  64.0592688  -2.7739845  80.7767690  63.7751721  -2.6767376
  81.7151554  64.4791766  -3.6336539  86.9175738  67.6699277   0.9951322
  86.4638065  66.8290187   1.0516513  86.2869705  68.3060676   1.3326102
  85.8608657  58.5991263   2.2251990  85.1231414  58.0868649   2.5562232
  86.1135431  58.1591645   1.4135266  85.3608677  69.5075774   1.9301140
  85.6531651  70.0680831   1.2113506  85.8707298  69.8004335   2.6854299
  85.9620285  51.3767515   2.8193759  86.2679162  50.5164879   2.5319674
  86.6872890  51.9685135   2.6192753  72.2544641  61.7798202   1.2075357
  72.0569041  61.1867563   0.4826423  71.6991305  61.4750412   1.9251296
  80.2341364  61.6721308   3.3269950  80.2889974  60.7195145   3.2512426
  79.4232566  61.8280747   3.8111248  81.3832558  65.6001431  -5.4351767
  80.9451988  64.8837290  -5.8946130  82.1242999  65.8277546  -5.9966675
  78.1733724  60.2898368   1.0860329  77.3601590  60.5892539   1.4925521
  78.6692719  59.8954057   1.8034811  80.3242302  70.2856125   3.0194593
  80.2818481  70.5116971   2.0903125  81.2405001  70.0519500   3.1680395
  83.7707936  60.7540193   9.9175223  84.1257324  60.9811666  10.7769688
  84.4180067  61.0858569   9.2952478  89.5005673  63.8758628   0.6224552
  89.3623572  64.0660224  -0.3054259  89.1441892  64.6378011   1.0792603
  77.6647799  57.8616724   6.7021564  78.3047178  57.7205483   6.0044527
  76.8325330  57.5751237   6.3260166  89.5275053  65.9435155   5.6335823
  89.9611559  65.8510445   6.4818877  90.2406633  65.9192656   4.9955839
  78.4408103  67.1619154   2.8156556  79.2348702  66.6669474   2.6139131
  77.7299795  66.6337017   2.4524262  83.2602948  69.5437250   7.1668924
  83.3139970  70.1128186   7.9346640  82.3917729  69.7139135   6.8022961
  74.7490867  61.3062236  -1.1083691  73.8188455  61.2446691  -0.8913729
  74.8448338  60.7838189  -1.9047050  74.6676416  57.8317049   1.4794551
  74.9283233  58.7462382   1.3703711  75.4893588  57.3641491   1.6291163
  76.1401341  59.2454806   8.6493375  76.8124394  59.0372168   8.0006024
  75.3131127  59.0476892   8.2098607  90.3890602  65.9858856   8.1668709
  90.5826492  66.8904667   8.4127984  90.2891220  65.5266275   9.0007294
  82.0426913  55.8716747  10.6659036  81.3954828  56.5706696  10.5723512
  82.8127928  56.3052891  11.0335284  85.4505711  66.1365599  13.7409589
  85.2991217  65.9076151  12.8239673  85.4410390  67.0936200  13.7540934
  82.2191047  63.7097512   8.7255856  83.1483107  63.8608671   8.5524823
  81.7982077  63.7981532   7.8704502  81.0179379  67.7348176   6.4954393
  80.8790465  67.3666960   7.3680331  80.2293975  68.2495815   6.3238351
  81.6127531  72.8357273  -2.1620070  81.7879287  72.3645316  -1.3474448
  80.9260319  73.4623039  -1.9338809  82.5684594  67.1129779   3.8843231
  82.2334427  67.0730549   4.7800881  82.0688540  66.4474495   3.4113641
  76.5428838  62.5197409   9.4095812  76.4048636  61.7877648  10.0107351
  77.4533762  62.4306309   9.1280000  85.5043786  64.4585813  -5.8419709
  84.8872956  63.7332641  -5.9386657  85.0360274  65.2195173  -6.1852635
  79.1711139  62.2317368   8.8979492  79.8810757  61.5910560   8.8566110
  79.1280447  62.4830263   9.8205673  87.1597917  69.1684721  11.8186071
  87.1010464  68.4843942  11.1516654  87.5617436  69.9103711  11.3666697
  77.8840073  59.2182586  10.7175131  77.3477430  58.7673324  11.3696728
  77.2956781  59.3528495   9.9745596  76.1788616  75.9846635   4.6119790
  76.4185215  76.6165159   5.2898809  75.3357813  75.6334675   4.8985149
  77.2942332  58.6771237  -6.7198405  76.4171798  58.5560038  -7.0836158
  77.7700085  57.8857316  -6.9719516  87.1615325  67.1324305  10.0500051
  86.2742104  66.7950227  10.1726450  87.7313876  66.4007337  10.2868816
  68.8144472  63.4648397   3.3743102  69.5015512  63.1510127   2.7864117
  68.6592601  64.3689762   3.1010354  73.6179194  58.3538594   7.8028126
  73.5337383  57.7464263   7.0678536  72.7961900  58.8447612   7.8037622
  80.6916478  71.7925758   7.0161294  80.6186650  72.5980729   7.5280599
  80.2493871  71.9917724   6.1909315  80.4806258  71.0297528   0.5264116
  79.6973780  71.5719208   0.6202340  81.1799003  71.5471507   0.9258357
  83.7902908  56.8392157   3.1698321  84.2871607  56.0862120   2.8499391
  83.0189889  56.8756474   2.6041530  91.6432665  62.5432523   4.8116612
  91.6322542  63.4257238   4.4410545  90.7750045  62.1904074   4.6171149
  83.1515162  71.6912592   9.1719453  83.8643134  72.3260057   9.0995354
  82.6605190  71.7876458   8.3559454  84.8732689  65.5963844   0.7436744
  83.9388967  65.7165307   0.5741449  85.0509357  64.6936311   0.4796754
  80.3737877  58.9809540   2.8970005  80.0035664  58.4280581   3.5850911
  80.8696969  58.3767674   2.3445006  88.2605240  61.4381164   1.2786778
  88.7265692  62.2709155   1.2047081  88.7112740  60.9726145   1.9832037
  78.2027075  69.4407035   9.9925023  78.9036535  70.0743518  10.1454418
  77.7322190  69.7821767   9.2320663  86.3281471  67.7824985  -1.7227070
  86.6041315  67.6681580  -0.8133195  85.4585970  67.3842470  -1.7614896
  86.2321903  53.8061751   5.3177680  85.3184982  54.0365978   5.4859887
  86.6615004  53.8900195   6.1691712  86.0028361  61.9951643   7.8177574
  85.3499811  62.2427550   7.1630027  86.3808741  61.1815781   7.4840051
  82.9635535  72.0311336   1.9205744  83.1457930  71.2132992   2.3833496
  83.7868521  72.2479028   1.4830634  83.2977701  70.9579521  -0.8179207
  83.8265467  70.4471976  -1.4309045  83.5605920  70.6422051   0.0466326
  82.0515934  62.7371454  14.3043611  81.3756571  62.6365583  14.9745986
  82.8743568  62.5810667  14.7679608  73.7994793  68.9743390   6.9256126
  74.3848230  68.2287078   7.0584030  73.6019632  69.2847347   7.8092790
  76.6533448  72.0094638   1.9418568  75.9843824  72.4940765   1.4582609
  76.5146318  72.2563858   2.8561947  68.3912448  61.5448990   5.6460569
  68.4296548  61.0112581   6.4397687  67.8852741  61.0184196   5.0271546
  80.7938717  74.0438381   8.5401227  81.3457025  74.2070003   9.3050312
  81.1344911  74.6342819   7.8681252  75.7703210  56.3913531   9.1423112
  75.8344537  57.2528362   8.7300509  75.7070331  55.7787533   8.4095470
  75.2455483  58.4636664  12.7896146  75.8727522  58.0813741  13.4033670
  74.3883402  58.2450865  13.1551838  85.6449591  68.8699639  14.3949881
  86.1889495  69.4829597  13.9004836  85.0636436  69.4279217  14.9116894
  72.0221026  60.2713093  -1.2785499  72.3174467  59.3623771  -1.3318446
  71.1209061  60.2500832  -1.6004497  83.9307104  71.9920357   5.5264909
  83.8058244  71.1910097   5.0175855  84.5886195  72.4866550   5.0378879
  75.5515273  58.3469089   4.7042049  74.8301858  58.9605057   4.5649523
  76.3408528  58.8826854   4.6258695  85.9942013  69.7929377   7.1544459
  85.0472348  69.6734728   7.0822786  86.3424786  68.9051875   7.2370721
  78.3541586  55.6823516  10.9782701  78.8775988  55.9285812  11.7409010
  78.1353919  56.5143551  10.5585838  73.7508867  57.9527190  -1.1546174
  73.4221573  57.0724569  -1.3371068  74.1048238  57.8974859  -0.2669785
  82.9988446  69.5882093   3.3548811  82.8513408  68.6598800   3.5356381
  83.8241940  69.6102184   2.8705887  76.8650690  58.2400160  -0.7870696
  77.2046763  58.7686081  -1.5092088  77.3122811  58.5780566  -0.0112130
  86.6022568  70.4110652   4.4413684  87.5269115  70.2053513   4.3038135
  86.4337871  70.1627053   5.3503026  79.5594131  56.6237211   8.6632372
  79.2190952  55.8245024   9.0653051  78.8533137  56.9238922   8.0909205
  80.2110603  53.7086523   7.1159695  81.0336672  53.2347001   6.9938585
  80.4548667  54.4877007   7.6158381  78.8518837  56.7374782  -2.5877404
  79.5727200  57.1156034  -3.0913687  78.2284142  57.4563658  -2.4842426
  82.9949960  57.4419931  -1.6519071  83.2113575  58.3244569  -1.9530243
  82.5144027  57.0506144  -2.3813429  77.7349182  60.4005644   4.9251673
  77.5893762  60.7145947   5.8175955  77.2574385  61.0190544   4.3722572
  79.5945565  57.3908192   4.9732563  79.5807133  56.4949285   4.6364861
  80.3117993  57.3978856   5.6070849  81.4471695  57.8245532   7.0185690
  81.1889473  58.7462603   7.0170021  80.9156736  57.4275967   7.7086154
  86.3917884  70.9296319  -0.2024224  86.5654762  70.3642742  -0.9550372
  86.8846775  71.7297214  -0.3844734  72.2094844  62.9410988   7.8639334
  71.6648312  63.7170796   7.9959609  73.0874194  63.2881793   7.7058456
  78.9982461  56.2722572   0.2420133  79.1198372  55.3439218   0.4411020
  78.7084503  56.2861258  -0.6701552  81.8673651  53.9577483   3.3786853
  81.8895348  54.0216816   2.4238832  82.2841710  53.1181991   3.5727359
  92.2457275  63.6932742   1.4166075  92.6888421  62.9440067   1.0185199
  91.3683786  63.6842878   1.0339807  87.3793057  70.2463084  -3.1027326
  88.0743961  70.8669776  -2.8840012  87.7216207  69.3958435  -2.8274948
  72.9960866  62.0680885  10.7569491  72.2542602  62.2163520  11.3434122
  72.6753610  62.3289150   9.8936241  89.2784480  67.6962789  -1.5739995
  89.8035804  68.0350062  -2.2990675  89.1906832  66.7609804  -1.7576861
  80.9404528  71.6096863  10.5549881  81.2491655  71.3646010  11.4272581
  81.7380010  71.8143501  10.0668751  80.9625140  73.7634772   2.7855258
  80.5230131  73.2711151   3.4788114  81.7133257  73.2207740   2.5447333
  73.4417479  69.9546313   2.7879886  74.2675499  69.6550085   2.4078529
  73.0911531  69.1853936   3.2369675  78.4099013  69.3072781   4.8577559
  77.7879022  68.6443486   4.5579787  79.0803879  69.3333913   4.1751207
  71.6426084  67.8732640   3.7468819  70.8057993  67.4454814   3.5652821
  71.6149730  68.0665083   4.6839611  78.4823540  57.7854569  14.4510065
  78.5311696  58.6616692  14.0687835  79.0246054  57.2431963  13.8781709
  88.9678386  68.3295693  13.7311203  88.1773929  68.3119832  13.1915702
  88.7311740  68.8683986  14.4860239  89.0876261  65.1788159  11.0443931
  89.1374266  65.0138167  11.9859454  88.9790184  64.3115418  10.6541812
  77.9712520  67.8576705  -1.6663980  78.1200640  68.5412169  -2.3197307
  78.7778963  67.8381795  -1.1514524  86.3780023  61.1619087  12.3603238
  87.2789886  61.0225552  12.0687236  86.4527998  61.3273542  13.3001415
  80.7122829  58.5385942  11.2056424  79.8426138  58.8319508  10.9339013
  80.9482309  59.1226387  11.9263688  90.5894458  67.5985101  11.2885953
  90.2979266  67.9615081  12.1249414  89.9766589  66.8852109  11.1099285
  91.7890140  65.1637980   3.8088523  92.6237031  65.6027784   3.9726083
  91.9249269  64.6876634   2.9896769  88.8381646  62.7217715   9.7566011
  89.3135767  62.9145362   8.9484862  87.9147211  62.7776901   9.5109394
  75.7265152  63.8841882  -0.6602911  75.4811194  62.9804212  -0.4622701
  75.8961067  63.8859033  -1.6023433  83.4161862  54.7565559   8.7221845
  83.9343806  55.4926586   8.3968333  83.0616995  55.0629552   9.5568604
  74.9960800  59.6170240  -3.1616750  74.3030045  59.6914595  -3.8176714
  74.7512552  58.8530584  -2.6395233  83.6674457  51.1765841   4.2422741
  83.9476210  50.5089030   4.8683168  84.4525063  51.3694937   3.7297405
  81.4707925  70.3524835  -4.1952233  80.8981892  70.9715022  -4.6481761
  82.0440719  70.9024197  -3.6612311  87.5383315  59.5983475   7.9894316
  88.4900738  59.6981573   8.0106540  87.3686765  58.8061744   8.4992401
  85.5597694  56.6839059   8.1753717  84.9647626  56.9644071   7.4800206
  85.2747391  57.1732959   8.9470458  84.6905185  70.6361985  -3.0643650
  85.6235858  70.5707547  -2.8610775  84.6028398  71.4718252  -3.5229118
  87.3193201  69.9527856  -6.1039703  87.2406833  69.6187719  -5.2103945
  88.1402868  70.4449624  -6.1048230  90.0171393  62.8189595   7.1036616
  89.9847713  61.8805596   7.2896300  90.6272016  62.8973632   6.3702441
  81.8554724  61.6885648  -6.8536180  82.8013828  61.5591856  -6.7847762
  81.4768968  60.9500310  -6.3766752  90.1665881  59.6100638   7.1494899
  89.6504930  58.8259095   6.9624828  91.0505830  59.2819355   7.3141419
  87.8276608  53.3541654   3.1090712  87.6301429  53.0456742   3.9934044
  88.4376314  54.0803293   3.2388642  95.8347943  63.8805602   6.2442653
  96.5651331  63.6190890   6.8050356  95.2254888  63.1434324   6.2844721
  93.9163240  62.0213464   6.8417104  93.1896403  61.8869429   6.2333595
  93.5010527  62.3290293   7.6473822  81.7393416  65.7403394  14.6064477
  82.6596426  65.9181993  14.8004523  81.7042999  64.7959440  14.4544176
  80.0397641  59.6135624  -6.9181295  79.1329096  59.3168737  -6.8418581
  80.3173622  59.3165442  -7.7847009  70.9575581  60.9341988   3.5317752
  70.6378365  60.0807296   3.2392126  70.4109009  61.1490566   4.2875719
  74.7355489  63.6504429   7.2487258  74.9541498  64.5821537   7.2675292
  75.1481262  63.2912403   8.0342062  81.6559706  54.1572514  -0.7637054
  80.8460435  53.8119599  -0.3881807  82.3444123  53.8480058  -0.1749442
  83.5850255  53.2350561   0.8587243  84.1381293  53.6546014   1.5177266
  83.8220341  52.3086309   0.9010199  79.6083354  59.2237635  16.6390007
  79.5080081  60.1731992  16.5702098  79.3904896  58.8955873  15.7666077
  78.8096425  56.4722560  -6.7769316  79.6715589  56.7977458  -6.5173498
  78.9946769  55.6854056  -7.2896250  70.8263841  64.5544899   5.5010873
  70.1327312  64.1398852   4.9880828  71.5736832  64.5965436   4.9044292
  86.9629062  55.3451086   0.3665907  86.3827731  56.0035890  -0.0156040
  86.6964994  54.5228431  -0.0446675  85.4132628  54.7456144   2.5687228
  85.9132407  54.8572678   1.7601547  86.0568236  54.4417197   3.2088036
  79.4714624  62.6534773  15.4555069  78.9881706  63.4535134  15.6618958
  79.5575563  62.6642718  14.5022513  72.7400584  64.4863153   3.3776888
  72.7171272  64.5850840   2.4258771  73.0501220  65.3328304   3.6994054
  75.3987961  66.5439308   7.4923502  76.3531215  66.5123250   7.4253434
  75.2000485  66.0829932   8.3073728  75.9887344  65.1140424  10.0594300
  76.8080233  65.6084503  10.0829137  76.2624151  64.1972392  10.0311868
  85.7453940  57.5051176  -0.5777744  84.8579795  57.7900827  -0.7957550
  86.1607929  57.3444940  -1.4250467  89.0968476  57.5297697   3.1376595
  89.8728866  58.0194150   3.4101212  88.3716610  57.9555752   3.5948464
  91.5341035  58.2425317   4.1950535  92.1285525  58.0021053   3.4843844
  91.6067618  57.5232447   4.8224072  73.7538190  72.0858928   4.5093700
  73.6192658  71.3259328   3.9431698  73.3370253  72.8099827   4.0422489
  84.8897153  67.2695851  -6.4829724  85.5933003  67.4745854  -5.8672069
  84.1659802  67.8372613  -6.2180641  85.7194964  63.0205712  -0.3627454
  85.6630165  63.4774264  -1.2019822  86.2723306  62.2596397  -0.5404611
  89.5299769  58.8095444   0.4622665  89.2736704  58.4092080   1.2930873
  88.9052637  59.5239238   0.3372804  93.8412107  61.5491518   2.9693957
  93.2811665  61.6184707   3.7425519  93.2355611  61.3732502   2.2493453
  76.9107316  72.9828245   4.7212143  76.7939700  73.9273677   4.6190833
  76.0899762  72.6801806   5.1097942  86.7983851  67.7078380  -4.4331264
  87.6329455  67.2759579  -4.6153790  86.6368194  67.5360394  -3.5054370
  86.4529743  64.2110494  -3.0674925  86.3978547  64.0454765  -4.0086481
  85.8275798  64.9186527  -2.9112735  71.2422258  59.4478558  10.7586497
  71.8881121  58.9377512  11.2473722  71.0339409  60.1847240  11.3329922
  83.7675650  66.5159406  16.2578638  84.6366810  66.6900058  15.8965273
  83.2882402  67.3353822  16.1354367  79.7625868  53.7118603  -3.4889607
  79.7504538  54.6560443  -3.3321336  80.6549290  53.5288748  -3.7830145
  77.9361830  73.6356507   7.9368071  78.8389077  73.6680117   8.2534566
  77.7099200  72.7056957   7.9514407  79.6915432  72.3887493   4.5978150
  78.7411063  72.3889355   4.4842522  79.9947918  71.6420228   4.0814185
  83.5777988  50.3061379   0.7656330  82.8110384  49.7519866   0.9113012
  83.9888693  50.3783248   1.6270482  75.5819749  56.5946175  14.8561511
  76.4451210  56.2382980  15.0664836  75.0085159  56.2560070  15.5436916
  95.4268126  78.2248031   5.6623912  96.0646536  78.1054779   4.9587252
  95.3088969  79.1728875   5.7211865  92.2357832  78.1775460   5.5985437
  91.8976344  78.0616524   4.7105972  93.1047600  77.7766625   5.5786443
  88.0944648  80.0310936   1.5882328  87.5309513  79.9400873   0.8198616
  87.9797043  79.2110840   2.0684821  92.7177615  79.3310311  11.5571643
  92.7066256  78.9363110  10.6852146  92.8798255  78.5976384  12.1505414
  85.6409080  81.5262128   4.4266548  86.4330372  81.1852952   4.0112848
  85.8805730  81.6357103   5.3468702  89.4384876  82.1147423  10.5050827
  89.1474742  83.0193054  10.3897493  90.0741861  82.1563951  11.2194896
  90.3641083  79.4924272   7.0952186  90.9604655  79.2680294   6.3809149
  90.4216055  78.7509017   7.6977634  94.9809394  75.9499485   2.7377120
  95.7672483  75.5318908   2.3867537  95.2448099  76.8545577   2.9058769
 100.3817821  75.8874719   3.6410099 101.1142993  75.3173935   3.8747928
  99.6257177  75.4996319   4.0816605  91.9993941  78.3101960   0.8373441
  91.6352148  77.7832581   1.5486363  92.8561057  77.9200429   0.6639927
  97.9043242  69.5996293   8.1004708  97.5726567  70.4691704   7.8765923
  97.3088855  69.2832577   8.7798738  91.6399428  73.3391860  -4.1665210
  91.8073830  74.2072096  -3.7994739  91.4496597  73.5019141  -5.0903921
  94.3974761  81.8008839   7.5000620  94.0975484  82.7033877   7.3916428
  94.0525821  81.5341022   8.3521773  87.8487243  78.2522635   3.5337325
  86.9237739  78.1198850   3.7415016  88.0971656  79.0316855   4.0307267
  97.7971905  74.3191379   5.1798058  96.8888782  74.2506787   4.8856819
  97.7459501  74.7963324   6.0079883  91.6188649  75.7949517  -3.1818543
  91.4988274  76.2406568  -2.3433063  90.9241237  76.1434835  -3.7405005
  85.2096054  77.8955909   4.3681114  85.3388435  78.1490388   5.2820525
  84.5293505  78.4883617   4.0485769  91.8712771  75.7381024  13.1232955
  91.0946105  76.2974945  13.1135820  92.5103334  76.2237807  13.6447825
  99.6633551  72.5207817   6.9575932  99.0207932  72.8140350   6.3115726
  99.1588480  72.4060738   7.7629128  90.1259143  78.5466478  12.6850922
  90.8673828  79.0851522  12.4085745  89.4196129  79.1732766  12.8422474
  95.6014483  80.6895618  11.2823083  96.0097839  80.2478029  10.5377716
  94.8791744  80.1148246  11.5357276  91.9545553  75.6268225   8.6556640
  92.8006748  76.0507639   8.7991289  91.8944191  74.9701849   9.3495203
  95.9243297  81.2496809   5.0375372  95.2952160  81.4142523   4.3351440
  95.5368960  81.6638418   5.8086336  95.1044998  73.2872593  10.3137814
  94.8605930  74.0414654   9.7772090  95.3804929  73.6657941  11.1485061
  97.0583461  79.8311206   8.9915080  97.2700356  80.4742966   8.3149461
  97.0113209  78.9973522   8.5237010  94.6609690  72.4429026   5.8951652
  93.7994169  72.7410280   6.1868389  94.6872125  72.6599425   4.9632684
  91.4771259  80.9871217   2.3025457  91.9409605  81.2658920   1.5130080
  91.2128057  80.0854661   2.1198548  88.3695340  80.5342698   5.2405221
  88.9396697  80.9629967   4.6022705  88.9603452  80.2525283   5.9389406
  90.4140145  77.1094369  -0.8884978  91.1164189  77.5615413  -0.4211051
  90.0820774  76.4678188  -0.2605084  88.8620507  75.7006126  13.4866232
  88.2319167  76.3822407  13.7201629  88.7556595  75.5889208  12.5419370
  84.1565479  75.3677922   4.4132156  83.3664533  75.6235450   3.9372267
  84.6476727  76.1826260   4.5184197  98.1729289  82.7083161   7.1637437
  98.9946733  82.3063348   6.8820119  98.1691692  82.6051395   8.1153553
  86.1080225  75.7322501   1.3715633  85.3111388  75.8441195   1.8899128
  85.8805817  76.0709153   0.5056523  91.9385892  82.2567204   9.3198147
  92.0030325  82.7187612  10.1556319  91.2296816  81.6264569   9.4480457
  82.4403182  75.6208412   6.8447147  82.6911221  76.5055422   7.1104723
  82.9762731  75.4413014   6.0722239  88.1401250  70.0026892  15.8491483
  87.7468195  69.4493090  16.5239127  88.9567390  70.3137470  16.2398000
  85.1063307  81.4410750  -0.2394947  85.6187828  82.2354000  -0.0889383
  85.7586020  80.7437040  -0.3061346  86.9158192  84.5576506   1.8427806
  87.0924820  85.4794471   1.6548790  87.7115026  84.2434925   2.2722186
  91.0569211  71.4184771  13.4411739  91.7978924  72.0191924  13.3616202
  91.2887133  70.6762409  12.8829782  86.2010549  76.6041138  11.7189969
  86.0864064  75.7026395  12.0197068  85.3455066  76.8504835  11.3674786
  93.2802386  84.5458878  13.3177470  92.8366241  83.7595257  12.9998374
  93.9419600  84.7338029  12.6521361  88.0389508  86.0754680   7.8438148
  88.5896933  85.9471743   7.0715142  87.2000983  86.3749569   7.4933041
  95.3783624  84.8261678  11.3458871  95.3602100  85.6470559  10.8539140
  96.3003544  84.7015754  11.5709012  91.8356679  82.3405808  12.1882379
  92.3685015  81.5794096  11.9581687  91.3070760  82.0479460  12.9306534
  95.0026374  67.4465874   7.7176021  94.6590643  68.3367515   7.6415132
  95.3705336  67.2567531   6.8545606  83.0712224  79.7699404   0.5364623
  83.9087446  80.1796413   0.3198331  83.2490492  78.8298846   0.5064817
  92.5523767  72.2824186   1.2833695  91.6965364  71.8931036   1.1039333
  92.9650719  72.3616146   0.4233480  94.0822914  69.8170529   5.6825254
  93.5787710  69.7800664   4.8693060  94.3753521  70.7263272   5.7421911
  90.3265800  69.9009259   4.6891436  91.1918797  69.7052067   4.3297326
  90.3943309  69.6719610   5.6160793  94.7562959  75.3101577  -1.9491763
  94.4513095  75.6247726  -1.0981619  95.7093402  75.3882997  -1.9064430
  98.1802237  79.6640821   4.8168238  97.5225912  80.3540082   4.9048366
  98.9842637  80.0537253   5.1602224  87.9328119  72.1311467   2.0607803
  88.5071871  71.9086648   1.3280996  88.5199101  72.2000161   2.8136404
  96.9907696  78.0185193   2.8672179  97.5039578  78.6515185   3.3693889
  97.6408920  77.4186389   2.5015540  88.2597706  74.1615928  -3.9196312
  87.4235018  74.4990614  -3.5987037  88.1202476  74.0264907  -4.8569175
  90.2350787  69.0052715   0.7882872  89.5815199  68.6901733   0.1639487
  90.1931261  68.3828456   1.5142695  93.4688527  75.4934649   5.1130520
  92.5511088  75.7149596   4.9552208  93.8848671  75.5680960   4.2542227
  94.2523575  76.8926065   0.2433200  94.9995394  77.4047462  -0.0659678
  94.5215164  76.5710117   1.1037594  96.7002412  73.9283181   2.2251990
  95.9625169  73.4160567   2.5562232  96.9529185  73.4883563   1.4135266
  96.8014039  66.7059433   2.8193759  97.1072916  65.8456796   2.5319674
  97.5266644  67.2977053   2.6192753  83.0938395  77.1090120   1.2075357
  82.8962795  76.5159480   0.4826423  82.5385059  76.8042330   1.9251296
  91.0735119  77.0013226   3.3269950  91.1283729  76.0487062   3.2512426
  90.2626321  77.1572665   3.8111248  89.0127479  75.6190286   1.0860329
  88.1995344  75.9184456   1.4925521  89.5086473  75.2245975   1.8034811
  91.1636057  85.6148043   3.0194593  91.1212236  85.8408889   2.0903125
  92.0798756  85.3811417   3.1680395  94.6101691  76.0832110   9.9175223
  94.9651078  76.3103583  10.7769688  95.2573822  76.4150487   9.2952478
  88.5041554  73.1908641   6.7021564  89.1440933  73.0497400   6.0044527
  87.6719084  72.9043155   6.3260166 100.3668807  81.2727073   5.6335823
 100.8005314  81.1802362   6.4818877 101.0800388  81.2484574   4.9955839
  89.2801858  82.4911072   2.8156556  90.0742456  81.9961392   2.6139131
  88.5693550  81.9628935   2.4524262  94.0996702  84.8729167   7.1668924
  94.1533724  85.4420104   7.9346640  93.2311483  85.0431052   6.8022961
  85.5884621  76.6354153  -1.1083691  84.6582209  76.5738609  -0.8913729
  85.6842093  76.1130106  -1.9047050  85.5070170  73.1608966   1.4794551
  85.7676987  74.0754300   1.3703711  86.3287342  72.6933409   1.6291163
  86.9795095  74.5746723   8.6493375  87.6518149  74.3664086   8.0006024
  86.1524882  74.3768809   8.2098607 101.2284357  81.3150774   8.1668709
 101.4220247  82.2196584   8.4127984 101.1284975  80.8558193   9.0007294
  92.8820667  71.2008664  10.6659036  92.2348582  71.8998614  10.5723512
  93.6521683  71.6344808  11.0335284  96.2899465  81.4657517  13.7409589
  96.1384972  81.2368068  12.8239673  96.2804145  82.4228118  13.7540934
  93.0584802  79.0389429   8.7255856  93.9876862  79.1900589   8.5524823
  92.6375832  79.1273450   7.8704502  91.8573134  83.0640094   6.4954393
  91.7184219  82.6958878   7.3680331  91.0687730  83.5787733   6.3238351
  93.4078349  82.4421696   3.8843231  93.0728181  82.4022466   4.7800881
  92.9082294  81.7766412   3.4113641  87.3822593  77.8489326   9.4095812
  87.2442391  77.1169565  10.0107351  88.2927516  77.7598227   9.1280000
  90.0104893  77.5609286   8.8979492  90.7204512  76.9202478   8.8566110
  89.9674201  77.8122181   9.8205673  97.9991672  84.4976639  11.8186071
  97.9404218  83.8135859  11.1516654  98.4011190  85.2395629  11.3666697
  88.7233827  74.5474504  10.7175131  88.1871184  74.0965242  11.3696728
  88.1350536  74.6820412   9.9745596  87.0182371  91.3138553   4.6119790
  87.2578969  91.9457077   5.2898809  86.1751567  90.9626593   4.8985149
  98.0009079  82.4616223  10.0500051  97.1135858  82.1242145  10.1726450
  98.5707630  81.7299254  10.2868816  79.6538226  78.7940315   3.3743102
  80.3409266  78.4802045   2.7864117  79.4986355  79.6981679   3.1010354
  84.4572949  73.6830511   7.8028126  84.3731137  73.0756181   7.0678536
  83.6355655  74.1739530   7.8037622  91.5310233  87.1217675   7.0161294
  91.4580404  87.9272647   7.5280599  91.0887626  87.3209641   6.1909315
  94.6296662  72.1684075   3.1698321  95.1265362  71.4154037   2.8499391
  93.8583644  72.2048392   2.6041530 102.4826420  77.8724440   4.8116612
 102.4716296  78.7549156   4.4410545 101.6143799  77.5195991   4.6171149
  93.9908916  87.0204509   9.1719453  94.7036888  87.6551974   9.0995354
  93.4998945  87.1168375   8.3559454  95.7126443  80.9255762   0.7436744
  94.7782722  81.0457225   0.5741449  95.8903112  80.0228229   0.4796754
  91.2131631  74.3101458   2.8970005  90.8429419  73.7572498   3.5850911
  91.7090724  73.7059591   2.3445006  99.0998994  76.7673081   1.2786778
  99.5659447  77.6001073   1.2047081  99.5506495  76.3018063   1.9832037
  89.0420830  84.7698953   9.9925023  89.7430289  85.4035436  10.1454418
  88.5715945  85.1113684   9.2320663  97.0715657  69.1353668   5.3177680
  96.1578737  69.3657895   5.4859887  97.5008759  69.2192112   6.1691712
  96.8422116  77.3243560   7.8177574  96.1893566  77.5719468   7.1630027
  97.2202496  76.5107699   7.4840051  92.8909689  78.0663371  14.3043611
  92.2150326  77.9657501  14.9745986  93.7137323  77.9102585  14.7679608
  84.6388548  84.3035308   6.9256126  85.2241985  83.5578996   7.0584030
  84.4413386  84.6139265   7.8092790  87.4927203  87.3386555   1.9418568
  86.8237578  87.8232683   1.4582609  87.3540073  87.5855776   2.8561947
  79.2306202  76.8740908   5.6460569  79.2690302  76.3404499   6.4397687
  78.7246495  76.3476114   5.0271546  91.6332472  89.3730299   8.5401227
  92.1850780  89.5361920   9.3050312  91.9738665  89.9634737   7.8681252
  86.6096965  71.7205449   9.1423112  86.6738291  72.5820280   8.7300509
  86.5464085  71.1079450   8.4095470  86.0849237  73.7928581  12.7896146
  86.7121276  73.4105659  13.4033670  85.2277156  73.5742783  13.1551838
  96.4843346  84.1991556  14.3949881  97.0283250  84.8121515  13.9004836
  95.9030191  84.7571135  14.9116894  82.8614780  75.6005010  -1.2785499
  83.1568221  74.6915689  -1.3318446  81.9602816  75.5792750  -1.6004497
  94.7700859  87.3212274   5.5264909  94.6451998  86.5202014   5.0175855
  95.4279950  87.8158468   5.0378879  86.3909027  73.6761007   4.7042049
  85.6695613  74.2896975   4.5649523  87.1802283  74.2118772   4.6258695
  96.8335767  85.1221294   7.1544459  95.8866103  85.0026646   7.0822786
  97.1818540  84.2343792   7.2370721  89.1935341  71.0115433  10.9782701
  89.7169742  71.2577730  11.7409010  88.9747674  71.8435468  10.5585838
  84.5902622  73.2819108  -1.1546174  84.2615328  72.4016487  -1.3371068
  84.9441992  73.2266777  -0.2669785  93.8382201  84.9174011   3.3548811
  93.6907163  83.9890718   3.5356381  94.6635694  84.9394101   2.8705887
  87.7044445  73.5692078  -0.7870696  88.0440517  74.0977999  -1.5092088
  88.1516565  73.9072484  -0.0112130  90.3987886  71.9529128   8.6632372
  90.0584706  71.1536942   9.0653051  89.6926892  72.2530839   8.0909205
  91.0504357  69.0378441   7.1159695  91.8730427  68.5638919   6.9938585
  91.2942421  69.8168925   7.6158381  89.6912592  72.0666699  -2.5877404
  90.4120954  72.4447952  -3.0913687  89.0677896  72.7855576  -2.4842426
  93.8343715  72.7711848  -1.6519071  94.0507329  73.6536486  -1.9530243
  93.3537782  72.3798062  -2.3813429  88.5742936  75.7297562   4.9251673
  88.4287517  76.0437865   5.8175955  88.0968140  76.3482462   4.3722572
  90.4339319  72.7200110   4.9732563  90.4200888  71.8241203   4.6364861
  91.1511747  72.7270773   5.6070849  92.2865450  73.1537450   7.0185690
  92.0283228  74.0754520   7.0170021  91.7550490  72.7567884   7.7086154
  83.0488598  78.2702906   7.8639334  82.5042066  79.0462714   7.9959609
  83.9267948  78.6173710   7.7058456  89.8376215  71.6014490   0.2420133
  89.9592126  70.6731136   0.4411020  89.5478257  71.6153176  -0.6701552
  92.7067405  69.2869400   3.3786853  92.7289102  69.3508733   2.4238832
  93.1235464  68.4473909   3.5727359  83.8354620  77.3972802  10.7569491
  83.0936356  77.5455438  11.3434122  83.5147365  77.6581068   9.8936241
  91.7798283  86.9388780  10.5549881  92.0885409  86.6937927  11.4272581
  92.5773765  87.1435419  10.0668751  84.2811234  85.2838231   2.7879886
  85.1069254  84.9842003   2.4078529  83.9305286  84.5145853   3.2369675
  89.2492767  84.6364699   4.8577559  88.6272776  83.9735404   4.5579787
  89.9197634  84.6625831   4.1751207  82.4819839  83.2024557   3.7468819
  81.6451747  82.7746732   3.5652821  82.4543484  83.3957001   4.6839611
  89.3217295  73.1146487  14.4510065  89.3705450  73.9908610  14.0687835
  89.8639809  72.5723880  13.8781709  99.8072140  83.6587610  13.7311203
  99.0167684  83.6411749  13.1915702  99.5705495  84.1975904  14.4860239
  99.9270015  80.5080077  11.0443931  99.9768020  80.3430084  11.9859454
  99.8183939  79.6407336  10.6541812  97.2173778  76.4911005  12.3603238
  98.1183640  76.3517470  12.0687236  97.2921752  76.6565460  13.3001415
  91.5516583  73.8677860  11.2056424  90.6819892  74.1611426  10.9339013
  91.7876063  74.4518305  11.9263688 101.4288212  82.9277018  11.2885953
 101.1373020  83.2906999  12.1249414 100.8160343  82.2144027  11.1099285
 102.6283894  80.4929898   3.8088523 103.4630786  80.9319702   3.9726083
 102.7643023  80.0168551   2.9896769  99.6775400  78.0509633   9.7566011
 100.1529522  78.2437279   8.9484862  98.7540966  78.1068819   9.5109394
  86.5658907  79.2133800  -0.6602911  86.3204949  78.3096130  -0.4622701
  86.7354822  79.2150951  -1.6023433  94.2555617  70.0857477   8.7221845
  94.7737561  70.8218503   8.3968333  93.9010750  70.3921470   9.5568604
  85.8354555  74.9462158  -3.1616750  85.1423799  75.0206513  -3.8176714
  85.5906306  74.1822501  -2.6395233  94.5068211  66.5057759   4.2422741
  94.7869965  65.8380948   4.8683168  95.2918818  66.6986855   3.7297405
  98.3777069  74.9275393   7.9894316  99.3294492  75.0273491   8.0106540
  98.2080520  74.1353662   8.4992401  96.3991449  72.0130976   8.1753717
  95.8041381  72.2935989   7.4800206  96.1141146  72.5024877   8.9470458
 100.8565147  78.1481513   7.1036616 100.8241467  77.2097513   7.2896300
 101.4665771  78.2265549   6.3702441 101.0059636  74.9392556   7.1494899
 100.4898684  74.1551013   6.9624828 101.8899584  74.6111273   7.3141419
  98.6670363  68.6833572   3.1090712  98.4695184  68.3748660   3.9934044
  99.2770068  69.4095211   3.2388642 106.6741697  79.2097520   6.2442653
 107.4045085  78.9482808   6.8050356 106.0648642  78.4726242   6.2844721
 104.7556994  77.3505382   6.8417104 104.0290158  77.2161347   6.2333595
 104.3404281  77.6582211   7.6473822  92.5787171  81.0695312  14.6064477
  93.4990180  81.2473911  14.8004523  92.5436754  80.1251357  14.4544176
  81.7969336  76.2633905   3.5317752  81.4772120  75.4099214   3.2392126
  81.2502764  76.4782484   4.2875719  85.5749243  78.9796346   7.2487258
  85.7935253  79.9113454   7.2675292  85.9875017  78.6204321   8.0342062
  92.4953461  69.4864432  -0.7637054  91.6854189  69.1411517  -0.3881807
  93.1837878  69.1771976  -0.1749442  94.4244009  68.5642479   0.8587243
  94.9775048  68.9837932   1.5177266  94.6614096  67.6378227   0.9010199
  90.4477108  74.5529552  16.6390007  90.3473835  75.5023909  16.5702098
  90.2298650  74.2247791  15.7666077  89.6490180  71.8014477  -6.7769316
  90.5109344  72.1269376  -6.5173498  89.8340524  71.0145973  -7.2896250
  81.6657596  79.8836817   5.5010873  80.9721067  79.4690770   4.9880828
  82.4130587  79.9257353   4.9044292  97.8022816  70.6743004   0.3665907
  97.2221485  71.3327808  -0.0156040  97.5358749  69.8520348  -0.0446675
  96.2526383  70.0748061   2.5687228  96.7526161  70.1864596   1.7601547
  96.8961991  69.7709114   3.2088036  90.3108378  77.9826691  15.4555069
  89.8275460  78.7827051  15.6618958  90.3969318  77.9934636  14.5022513
  83.5794338  79.8155071   3.3776888  83.5565026  79.9142758   2.4258771
  83.8894975  80.6620222   3.6994054  86.2381716  81.8731226   7.4923502
  87.1924970  81.8415168   7.4253434  86.0394240  81.4121850   8.3073728
  86.8281098  80.4432342  10.0594300  87.6473987  80.9376421  10.0829137
  87.1017906  79.5264310  10.0311868  96.5847694  72.8343094  -0.5777744
  95.6973549  73.1192745  -0.7957550  97.0001683  72.6736858  -1.4250467
  99.9362230  72.8589615   3.1376595 100.7122621  73.3486068   3.4101212
  99.2110365  73.2847669   3.5948464 102.3734789  73.5717234   4.1950535
 102.9679280  73.3312970   3.4843844 102.4461373  72.8524365   4.8224072
  84.5931945  87.4150845   4.5093700  84.4586413  86.6551246   3.9431698
  84.1764007  88.1391745   4.0422489 100.3693524  74.1387362   0.4622665
 100.1130458  73.7383998   1.2930873  99.7446392  74.8531156   0.3372804
 104.6805862  76.8783435   2.9693957 104.1205420  76.9476625   3.7425519
 104.0749365  76.7024420   2.2493453  87.7501071  88.3120162   4.7212143
  87.6333455  89.2565595   4.6190833  86.9293517  88.0093724   5.1097942
  82.0816012  74.7770476  10.7586497  82.7274876  74.2669430  11.2473722
  81.8733163  75.5139157  11.3329922  94.6069405  81.8451323  16.2578638
  95.4760564  82.0191975  15.8965273  94.1276156  82.6645740  16.1354367
  90.6019623  69.0410520  -3.4889607  90.5898293  69.9852360  -3.3321336
  91.4943045  68.8580666  -3.7830145  88.7755585  88.9648424   7.9368071
  89.6782831  88.9972034   8.2534566  88.5492955  88.0348875   7.9514407
  90.5309187  87.7179411   4.5978150  89.5804818  87.7181272   4.4842522
  90.8341673  86.9712145   4.0814185  94.4171742  65.6353297   0.7656330
  93.6504138  65.0811784   0.9113012  94.8282447  65.7075166   1.6270482
  86.4213503  71.9238093  14.8561511  87.2844965  71.5674898  15.0664836
  85.8478914  71.5851988  15.5436916 102.7106525  91.0672942  13.1232955
 101.9339859  91.6266862  13.1135820 103.3497088  91.5529725  13.6447825
 100.9652898  93.8758395  12.6850922 101.7067582  94.4143439  12.4085745
 100.2589883  94.5024684  12.8422474 105.9438753  88.6164511  10.3137814
 105.6999685  89.3706572   9.7772090 106.2198683  88.9949859  11.1485061
  99.7014261  91.0298044  13.4866232  99.0712922  91.7114324  13.7201629
  99.5950349  90.9181125  12.5419370  93.2796937  90.9500330   6.8447147
  93.5304975  91.8347340   7.1104723  93.8156485  90.7704932   6.0722239
  98.9795004  85.3318809  15.8491483  98.5861950  84.7785008  16.5239127
  99.7961144  85.6429388  16.2398000 101.8962965  86.7476689  13.4411739
 102.6372678  87.3483842  13.3616202 102.1280888  86.0054326  12.8829782
  97.0404303  91.9333056  11.7189969  96.9257818  91.0318313  12.0197068
  96.1848821  92.1796753  11.3674786 105.8420128  82.7757791   7.7176021
 105.4984397  83.6659433   7.6415132 106.2099091  82.5859449   6.8545606
  97.8188850  89.9038641   8.6493375  98.4911903  89.6956003   8.0006024
  96.9918636  89.7060727   8.2098607 103.7214422  86.5300582  10.6659036
 103.0742337  87.2290532  10.5723512 104.4915437  86.9636726  11.0335284
  98.2216347  93.1781244   9.4095812  98.0836145  92.4461483  10.0107351
  99.1321271  93.0890144   9.1280000  99.5627582  89.8766421  10.7175131
  99.0264939  89.4257160  11.3696728  98.9744290  90.0112330   9.9745596
  95.2966703  89.0122429   7.8028126  95.2124892  88.4048099   7.0678536
  94.4749409  89.5031447   7.8037622 103.7303443  93.3955289  14.3043611
 103.0544080  93.2949418  14.9745986 104.5531077  93.2394503  14.7679608
  90.0699957  92.2032826   5.6460569  90.1084056  91.6696417   6.4397687
  89.5640250  91.6768031   5.0271546  97.4490719  87.0497366   9.1423112
  97.5132046  87.9112197   8.7300509  97.3857840  86.4371368   8.4095470
  96.9242992  89.1220499  12.7896146  97.5515031  88.7397576  13.4033670
  96.0670911  88.9034701  13.1551838 100.0329095  86.3407351  10.9782701
 100.5563497  86.5869648  11.7409010  99.8141428  87.1727386  10.5585838
 101.2381640  87.2821046   8.6632372 100.8978460  86.4828859   9.0653051
 100.5320646  87.5822757   8.0909205 101.8898112  84.3670359   7.1159695
 102.7124181  83.8930837   6.9938585 102.1336175  85.1460842   7.6158381
  93.8882353  93.5994824   7.8639334  93.3435821  94.3754632   7.9959609
  94.7661703  93.9465628   7.7058456  94.6748375  92.7264720  10.7569491
  93.9330111  92.8747355  11.3434122  94.3541119  92.9872985   9.8936241
 100.1611049  88.4438405  14.4510065 100.2099205  89.3200528  14.0687835
 100.7033563  87.9015798  13.8781709 102.3910338  89.1969777  11.2056424
 101.5213647  89.4903343  10.9339013 102.6269818  89.7810222  11.9263688
 105.0949371  85.4149394   8.7221845 105.6131315  86.1510421   8.3968333
 104.7404504  85.7213387   9.5568604 103.4180925  96.3987229  14.6064477
 104.3383935  96.5765829  14.8004523 103.3830508  95.4543275  14.4544176
 101.2870863  89.8821470  16.6390007 101.1867590  90.8315827  16.5702098
 101.0692405  89.5539709  15.7666077 101.1502133  93.3118609  15.4555069
 100.6669215  94.1118969  15.6618958 101.2363072  93.3226554  14.5022513
  92.9209767  90.1062393  10.7586497  93.5668630  89.5961347  11.2473722
  92.7126918  90.8431075  11.3329922 105.4463159  97.1743241  16.2578638
 106.3154319  97.3483893  15.8965273 104.9669910  97.9937658  16.1354367
  97.2607258  87.2530010  14.8561511  98.1238719  86.8966815  15.0664836
  96.6872668  86.9143905  15.5436916  81.8783862  41.0080516  -1.7183051
  81.8672503  40.6133314  -2.5902547  82.0404501  40.2746589  -1.1249279
  78.5991123  43.7917628  -2.7703867  78.3080989  44.6963259  -2.8857200
  79.2348107  43.8334156  -2.0559797  81.0319018  37.4151229  -0.1521738
  80.2552352  37.9745149  -0.1618874  81.6709581  37.9008012   0.3693132
  79.2865390  40.2236683  -0.5903771  80.0280074  40.7621727  -0.8668948
  78.5802375  40.8502971  -0.4332220  84.7620730  42.3665823  -1.9931610
  85.1704086  41.9248234  -2.7376978  84.0397991  41.7918451  -1.7397417
  87.3335536  44.3853366  -6.1117256  88.1552979  43.9833553  -6.3934575
  87.3297939  44.2821600  -5.1601141  82.4408633  46.2229083   0.0422776
  81.9972487  45.4365462  -0.2756319  83.1025847  46.4108234  -0.6233333
  84.5389871  46.5031883  -1.9295822  84.5208347  47.3240764  -2.4215553
  85.4609791  46.3785958  -1.7045681  80.9962925  44.0176013  -1.0872314
  81.5291262  43.2564301  -1.3173006  80.4677006  43.7249665  -0.3448159
  90.3890603  42.9920979  -5.1085985  90.5826494  43.8966789  -4.8626710
  90.2891222  42.5328398  -4.2747400  85.4505712  43.1427721   0.4654896
  85.2991219  42.9138273  -0.4515020  85.4410392  44.0998323   0.4786241
  87.1597919  46.1746844  -1.4568622  87.1010465  45.4906064  -2.1238039
  87.5617437  46.9165834  -1.9087996  87.1615326  44.1386428  -3.2254643
  86.2742105  43.8012350  -3.1028244  87.7313877  43.4069459  -2.9885877
  83.1515163  48.6974714  -4.1035241  83.8643135  49.3322179  -4.1759339
  82.6605192  48.7938580  -4.9195239  78.2027076  46.4469158  -3.2829670
  78.9036536  47.0805641  -3.1300276  77.7322191  46.7883889  -4.0434031
  82.0515935  39.7433576   1.0288918  81.3756572  39.6427706   1.6991293
  82.8743569  39.5872790   1.4924915  80.7938718  51.0500504  -4.7353466
  81.3457026  51.2132125  -3.9704381  81.1344912  51.6404942  -5.4073442
  85.6449593  45.8761761   1.1195188  86.1889497  46.4891720   0.6250143
  85.0636438  46.4341340   1.6362201  85.9942014  46.7991499  -6.1210234
  85.0472350  46.6796851  -6.1931908  86.3424787  45.9113997  -6.0383973
  80.9404530  48.6158985  -2.7204812  81.2491656  48.3708132  -1.8482113
  81.7380012  48.8205624  -3.2085942  88.9678387  45.3357815   0.4556509
  88.1773931  45.3181954  -0.0838991  88.7311742  45.8746109   1.2105546
  89.0876262  42.1850282  -2.2310762  89.1374267  42.0200289  -1.2895239
  88.9790185  41.3177541  -2.6212881  86.3780024  38.1681210  -0.9151456
  87.2789887  38.0287675  -1.2067458  86.4527999  38.3335665   0.0246722
  90.5894459  44.6047223  -1.9868741  90.2979267  44.9677204  -1.1505280
  89.9766590  43.8914232  -2.1655409  88.8381647  39.7279838  -3.5188683
  89.3135769  39.9207484  -4.3269831  87.9147213  39.7839024  -3.7645299
  81.7393417  42.7465517   1.3309784  82.6596427  42.9244116   1.5249830
  81.7043000  41.8021562   1.1789483  79.6083355  36.2299757   3.3635314
  79.5080082  37.1794114   3.2947405  79.3904897  35.9017996   2.4911384
  79.4714625  39.6596896   2.1800375  78.9881707  40.4597256   2.3864264
  79.5575564  39.6704841   1.2267819  83.7675651  43.5221528   2.9823944
  84.6366811  43.6962180   2.6210579  83.2882403  44.3415945   2.8599674
  77.9361832  50.6418629  -5.3386622  78.8389078  50.6742239  -5.0220127
  77.7099202  49.7119080  -5.3240286  95.4268127  55.2310154  -7.6130781
  96.0646537  55.1116901  -8.3167441  95.3088970  56.1790998  -7.5542829
  92.2357833  55.1837582  -7.6769256  91.8976345  55.0678647  -8.5648721
  93.1047602  54.7828747  -7.6968250  88.0944649  57.0373059 -11.6872365
  87.5309514  56.9462996 -12.4556078  87.9797044  56.2172963 -11.2069873
  92.7177616  56.3372434  -1.7183051  92.7066257  55.9425232  -2.5902547
  92.8798256  55.6038506  -1.1249279  85.6409081  58.5324250  -8.8488145
  86.4330373  58.1915075  -9.2641846  85.8805731  58.6419225  -7.9285992
  89.4384877  59.1209546  -2.7703867  89.1474743  60.0255177  -2.8857200
  90.0741862  59.1626073  -2.0559797  90.3641084  56.4986394  -6.1802507
  90.9604657  56.2742417  -6.8945544  90.4216056  55.7571140  -5.5777059
  94.9809396  52.9561608 -10.5377573  95.7672485  52.5381031 -10.8887156
  95.2448100  53.8607700 -10.3695925  91.9993942  55.3164083 -12.4381252
  91.6352150  54.7894704 -11.7268330  92.8561058  54.9262552 -12.6114767
  97.9043243  46.6058415  -5.1749986  97.5726568  47.4753826  -5.3988771
  97.3088856  46.2894699  -4.4955955  94.3974763  58.8070961  -5.7754073
  94.0975486  59.7096000  -5.8838266  94.0525822  58.5403144  -4.9232920
  87.8487244  55.2584758  -9.7417369  86.9237740  55.1260972  -9.5339677
  88.0971657  56.0378977  -9.2447426  97.7971906  51.3253501  -8.0956636
  96.8888784  51.2568910  -8.3897875  97.7459502  51.8025446  -7.2674810
  85.2096055  54.9018032  -8.9073580  85.3388436  55.1552511  -7.9934168
  84.5293506  55.4945740  -9.2268925  91.8712772  52.7443147  -0.1521738
  91.0946106  53.3037067  -0.1618874  92.5103335  53.2299930   0.3693132
  99.6633553  49.5269940  -6.3178762  99.0207933  49.8202473  -6.9638967
  99.1588481  49.4122860  -5.5125565  90.1259144  55.5528600  -0.5903771
  90.8673829  56.0913644  -0.8668948  89.4196130  56.1794889  -0.4332220
  95.6014484  57.6957741  -1.9931610  96.0097840  57.2540151  -2.7376978
  94.8791746  57.1210368  -1.7397417  91.9545554  52.6330348  -4.6198053
  92.8006749  53.0569761  -4.4763404  91.8944192  51.9763972  -3.9259490
  95.9243299  58.2558931  -8.2379321  95.2952161  58.4204646  -8.9403253
  95.5368961  58.6700541  -7.4668357  95.1044999  50.2934716  -2.9616879
  94.8605931  51.0476776  -3.4982604  95.3804930  50.6720064  -2.1269632
  97.0583462  56.8373328  -4.2839614  97.2700357  57.4805088  -4.9605233
  97.0113210  56.0035645  -4.7517684  94.6609691  49.4491149  -7.3803042
  93.7994170  49.7472403  -7.0886304  94.6872126  49.6661548  -8.3122009
  91.4771261  57.9933340 -10.9729236  91.9409606  58.2721042 -11.7624614
  91.2128059  57.0916784 -11.1556145  88.3695342  57.5404821  -8.0349473
  88.9396699  57.9692089  -8.6731988  88.9603453  57.2587406  -7.3365287
  88.8620508  52.7068249   0.2111539  88.2319169  53.3884529   0.4446935
  88.7556596  52.5951330  -0.7335323  84.1565481  52.3740045  -8.8622537
  83.3664535  52.6297573  -9.3382427  84.6476728  53.1888382  -8.7570497
  98.1729290  59.7145284  -6.1117256  98.9946734  59.3125471  -6.3934575
  98.1691693  59.6113518  -5.1601141  91.9385894  59.2629327  -3.9556546
  92.0030326  59.7249734  -3.1198374  91.2296817  58.6326692  -3.8274236
  82.4403184  52.6270535  -6.4307547  82.6911222  53.5117545  -6.1649971
  82.9762732  52.4475137  -7.2032455  88.1401251  47.0089014   2.5736790
  87.7468196  46.4555213   3.2484434  88.9567391  47.3199593   2.9643307
  85.1063309  58.4472873 -13.5149641  85.6187829  59.2416123 -13.3644076
  85.7586021  57.7499163 -13.5816039  86.9158193  61.5638629 -11.4326887
  87.0924822  62.4856594 -11.6205904  87.7115027  61.2497048 -11.0032508
  91.0569212  48.4246893   0.1657046  91.7978925  49.0254047   0.0861509
  91.2887135  47.6824531  -0.3924911  86.2010550  53.6103261  -1.5564724
  86.0864065  52.7088518  -1.2557625  85.3455068  53.8566957  -1.9079908
  93.2802388  61.5521001   0.0422776  92.8366242  60.7657380  -0.2756319
  93.9419601  61.7400152  -0.6233333  88.0389509  63.0816803  -5.4316545
  88.5896934  62.9533866  -6.2039551  87.2000985  63.3811692  -5.7821652
  95.3783626  61.8323801  -1.9295822  95.3602101  62.6532682  -2.4215553
  96.3003546  61.7077876  -1.7045681  91.8356680  59.3467930  -1.0872314
  92.3685017  58.5856219  -1.3173006  91.3070761  59.0541582  -0.3448159
  95.0026375  44.4527996  -5.5578672  94.6590644  45.3429638  -5.6339562
  95.3705337  44.2629654  -6.4209087  94.0822915  46.8232652  -7.5929439
  93.5787711  46.7862787  -8.4061634  94.3753522  47.7325394  -7.5332782
  90.3265801  46.9071381  -8.5863257  91.1918798  46.7114190  -8.9457368
  90.3943310  46.6781733  -7.6593900  98.1802239  56.6702943  -8.4586456
  97.5225913  57.3602205  -8.3706327  98.9842638  57.0599375  -8.1152469
  96.9907697  55.0247316 -10.4082514  97.5039579  55.6577308  -9.9060804
  97.6408921  54.4248512 -10.7739154  93.4688528  52.4996772  -8.1624173
  92.5511090  52.7211719  -8.3202485  93.8848672  52.5743082  -9.0212466
  94.2523576  53.8988187 -13.0321493  94.9995395  54.4109585 -13.3414371
  94.5215166  53.5772240 -12.1717100  91.0735120  54.0075349  -9.9484743
  91.1283730  53.0549185 -10.0242267  90.2626322  54.1634788  -9.4643445
  89.0127480  52.6252408 -12.1894365  88.1995346  52.9246579 -11.7829172
  89.5086474  52.2308097 -11.4719882  91.1636058  62.6210165 -10.2560100
  91.1212237  62.8471012 -11.1851568  92.0798757  62.3873540 -10.1074299
  94.6101692  53.0894233  -3.3579471  94.9651080  53.3165706  -2.4985005
  95.2573823  53.4212610  -3.9802215  88.5041555  50.1970764  -6.5733130
  89.1440934  50.0559523  -7.2710166  87.6719085  49.9105277  -6.9494528
 100.3668808  58.2789196  -7.6418870 100.8005315  58.1864485  -6.7935816
 101.0800389  58.2546696  -8.2798854  89.2801859  59.4973194 -10.4598137
  90.0742457  59.0023514 -10.6615562  88.5693551  58.9691057 -10.8230432
  94.0996703  61.8791290  -6.1085770  94.1533726  62.4482226  -5.3408054
  93.2311485  62.0493175  -6.4731732  86.9795097  51.5808846  -4.6261318
  87.6518150  51.3726208  -5.2748669  86.1524883  51.3830932  -5.0656086
 101.2284358  58.3212896  -5.1085985 101.4220248  59.2258707  -4.8626710
 101.1284976  57.8620315  -4.2747400  92.8820669  48.2070787  -2.6095657
  92.2348584  48.9060737  -2.7031181  93.6521684  48.6406931  -2.2419409
  96.2899467  58.4719639   0.4654896  96.1384973  58.2430191  -0.4515020
  96.2804146  59.4290241   0.4786241  93.0584803  56.0451552  -4.5498838
  93.9876863  56.1962712  -4.7229870  92.6375833  56.1335573  -5.4050191
  91.8573135  60.0702216  -6.7800300  91.7184220  59.7021001  -5.9074362
  91.0687731  60.5849856  -6.9516342  93.4078350  59.4483819  -9.3911462
  93.0728183  59.4084589  -8.4953812  92.9082296  58.7828535  -9.8641052
  87.3822594  54.8551449  -3.8658881  87.2442392  54.1231688  -3.2647342
  88.2927517  54.7660349  -4.1474693  90.0104895  54.5671408  -4.3775201
  90.7204513  53.9264601  -4.4188583  89.9674203  54.8184303  -3.4549021
  97.9991673  61.5038762  -1.4568622  97.9404219  60.8197982  -2.1238039
  98.4011192  62.2457752  -1.9087996  88.7233829  51.5536626  -2.5579562
  88.1871186  51.1027365  -1.9057966  88.1350537  51.6882535  -3.3009098
  87.0182372  68.3200676  -8.6634903  87.2578970  68.9519200  -7.9855885
  86.1751569  67.9688716  -8.3769544  98.0009081  59.4678346  -3.2254643
  97.1135859  59.1304267  -3.1028244  98.5707632  58.7361377  -2.9885877
  79.6538228  55.8002437  -9.9011591  80.3409267  55.4864167 -10.4890576
  79.4986356  56.7043802 -10.1744340  84.4572950  50.6892634  -5.4726568
  84.3731139  50.0818303  -6.2076158  83.6355656  51.1801652  -5.4717071
  91.5310234  64.1279798  -6.2593399  91.4580405  64.9334769  -5.7474095
  91.0887627  64.3271764  -7.0845378  94.6296664  49.1746197 -10.1056372
  95.1265363  48.4216160 -10.4255302  93.8583645  49.2110514 -10.6713163
 102.4826421  54.8786563  -8.4638081 102.4716297  55.7611278  -8.8344148
 101.6143800  54.5258114  -8.6583544  93.9908917  64.0266632  -4.1035241
  94.7036890  64.6614097  -4.1759339  93.4998946  64.1230498  -4.9195239
  95.7126444  57.9317885 -12.5317949  94.7782723  58.0519347 -12.7013245
  95.8903113  57.0290351 -12.7957939  91.2131632  51.3163580 -10.3784688
  90.8429420  50.7634621  -9.6903782  91.7090725  50.7121714 -10.9309688
  89.0420831  61.7761075  -3.2829670  89.7430290  62.4097558  -3.1300276
  88.5715946  62.1175807  -4.0434031  97.0715658  46.1415791  -7.9577014
  96.1578738  46.3720018  -7.7894807  97.5008760  46.2254235  -7.1062981
  96.8422117  54.3305683  -5.4577120  96.1893567  54.5781590  -6.1124667
  97.2202497  53.5169821  -5.7914642  92.8909690  55.0725494   1.0288918
  92.2150327  54.9719623   1.6991293  93.7137324  54.9164708   1.4924915
  84.6388549  61.3097431  -6.3498567  85.2241986  60.5641118  -6.2170663
  84.4413387  61.6201387  -5.4661903  87.4927204  64.3448678 -11.3336125
  86.8237580  64.8294806 -11.8172085  87.3540074  64.5917898 -10.4192746
  79.2306204  53.8803031  -7.6294124  79.2690303  53.3466621  -6.8357006
  78.7246497  53.3538236  -8.2483147  91.6332473  66.3792421  -4.7353466
  92.1850781  66.5424043  -3.9704381  91.9738666  66.9696859  -5.4073442
  86.6096966  48.7267571  -4.1331582  86.6738293  49.5882402  -4.5454184
  86.5464086  48.1141573  -4.8659223  86.0849239  50.7990704  -0.4858548
  86.7121277  50.4167781   0.1278977  85.2277157  50.5804906  -0.1202855
  96.4843347  61.2053679   1.1195188  97.0283251  61.8183637   0.6250143
  95.9030192  61.7633257   1.6362201  94.7700860  64.3274397  -7.7489784
  94.6452000  63.5264137  -8.2578839  95.4279951  64.8220590  -8.2375814
  86.3909028  50.6823129  -8.5712644  85.6695614  51.2959097  -8.7105171
  87.1802284  51.2180894  -8.6495998  96.8335768  62.1283417  -6.1210234
  95.8866104  62.0088768  -6.1931908  97.1818542  61.2405915  -6.0383973
  89.1935342  48.0177556  -2.2971992  89.7169744  48.2639853  -1.5345683
  88.9747675  48.8497591  -2.7168855  93.8382202  61.9236133  -9.9205882
  93.6907164  60.9952841  -9.7398312  94.6635695  61.9456224 -10.4048807
  90.3987887  48.9591251  -4.6122322  90.0584707  48.1599064  -4.2101642
  89.6926893  49.2592962  -5.1845489  91.0504359  46.0440563  -6.1594999
  91.8730428  45.5701042  -6.2816108  91.2942422  46.8231047  -5.6596313
  88.5742937  52.7359684  -8.3503020  88.4287518  53.0499987  -7.4578739
  88.0968141  53.3544584  -8.9032122  90.4339320  49.7262232  -8.3022131
  90.4200889  48.8303325  -8.6389833  91.1511748  49.7332896  -7.6683845
  92.2865451  50.1599572  -6.2569003  92.0283229  51.0816643  -6.2584673
  91.7550491  49.7630007  -5.5668539  83.0488600  55.2765029  -5.4115359
  82.5042068  56.0524836  -5.2795085  83.9267950  55.6235833  -5.5696238
  83.8354622  54.4034925  -2.5185202  83.0936358  54.5517560  -1.9320572
  83.5147366  54.6643190  -3.3818453  91.7798284  63.9450903  -2.7204812
  92.0885411  63.7000050  -1.8482113  92.5773766  64.1497541  -3.2085942
  84.2811235  62.2900354 -10.4874808  85.1069255  61.9904125 -10.8676164
  83.9305287  61.5207976 -10.0385019  89.2492768  61.6426822  -8.4177134
  88.6272778  60.9797527  -8.7174906  89.9197635  61.6687954  -9.1003486
  82.4819840  60.2086680  -9.5285874  81.6451749  59.7808854  -9.7101873
  82.4543486  60.4019123  -8.5915083  89.3217296  50.1208610   1.1755372
  89.3705451  50.9970733   0.7933142  89.8639810  49.5786003   0.6027015
  99.8072142  60.6649733   0.4556509  99.0167685  60.6473872  -0.0838991
  99.5705496  61.2038027   1.2105546  99.9270017  57.5142199  -2.2310762
  99.9768021  57.3492207  -1.2895239  99.8183940  56.6469458  -2.6212881
  97.2173779  53.4973127  -0.9151456  98.1183642  53.3579592  -1.2067458
  97.2921753  53.6627582   0.0246722  91.5516584  50.8739982  -2.0698269
  90.6819894  51.1673548  -2.3415681  91.7876065  51.4580427  -1.3491006
 101.4288213  59.9339141  -1.9868741 101.1373022  60.2969121  -1.1505280
 100.8160345  59.2206149  -2.1655409  99.6775402  55.0571756  -3.5188683
 100.1529523  55.2499402  -4.3269831  98.7540967  55.1130941  -3.7645299
  94.2555618  47.0919599  -4.5532849  94.7737562  47.8280626  -4.8786360
  93.9010751  47.3983592  -3.7186090  98.3777071  51.9337516  -5.2860377
  99.3294494  52.0335613  -5.2648153  98.2080521  51.1415784  -4.7762293
  96.3991450  49.0193099  -5.1000976  95.8041382  49.2998112  -5.7954488
  96.1141147  49.5087000  -4.3284235 100.8565148  55.1543635  -6.1718077
 100.8241469  54.2159636  -5.9858394 101.4665772  55.2327672  -6.9052253
 101.0059637  51.9454679  -6.1259794 100.4898686  51.1613135  -6.3129865
 101.8899585  51.6173395  -5.9613275 104.7556995  54.3567505  -6.4337589
 104.0290159  54.2223470  -7.0421098 104.3404282  54.6644333  -5.6280871
  92.5787172  58.0757434   1.3309784  93.4990181  58.2536033   1.5249830
  92.5436755  57.1313480   1.1789483  85.5749244  55.9858469  -6.0267435
  85.7935254  56.9175577  -6.0079401  85.9875018  55.6266443  -5.2412631
  90.4477110  51.5591675   3.3635314  90.3473837  52.5086032   3.2947405
  90.2298652  51.2309914   2.4911384  81.6657597  56.8898940  -7.7743820
  80.9721068  56.4752892  -8.2873866  82.4130588  56.9319476  -8.3710401
  90.3108380  54.9888814   2.1800375  89.8275461  55.7889174   2.3864264
  90.3969319  54.9996759   1.2267819  83.5794339  56.8217193  -9.8977805
  83.5565027  56.9204881 -10.8495922  83.8894976  57.6682344  -9.5760639
  86.2381717  58.8793348  -5.7831191  87.1924971  58.8477291  -5.8501259
  86.0394241  58.4183972  -4.9680965  86.8281099  57.4494464  -3.2160393
  87.6473988  57.9438543  -3.1925556  87.1017907  56.5326433  -3.2442826
  84.5931946  64.4212968  -8.7660993  84.4586414  63.6613369  -9.3322995
  84.1764008  65.1453868  -9.2332204  87.7501072  65.3182285  -8.5542550
  87.6333456  66.2627717  -8.6563860  86.9293518  65.0155846  -8.1656751
  82.0816014  51.7832598  -2.5168196  82.7274877  51.2731552  -2.0280971
  81.8733165  52.5201280  -1.9424771  94.6069406  58.8513446   2.9823944
  95.4760565  59.0254098   2.6210579  94.1276157  59.6707863   2.8599674
  88.7755586  65.9710547  -5.3386622  89.6782833  66.0034157  -5.0220127
  88.5492956  65.0410998  -5.3240286  90.5309188  64.7241533  -8.6776543
  89.5804819  64.7243395  -8.7912171  90.8341674  63.9774268  -9.1940509
  86.4213505  48.9300215   1.5806818  87.2844966  48.5737020   1.7910143
  85.8478915  48.5914110   2.2682222 102.7106527  68.0735065  -0.1521738
 101.9339861  68.6328985  -0.1618874 103.3497090  68.5591848   0.3693132
 100.9652899  70.8820518  -0.5903771 101.7067583  71.4205562  -0.8668948
 100.2589884  71.5086807  -0.4332220 105.9438754  65.6226634  -2.9616879
 105.6999686  66.3768694  -3.4982604 106.2198684  66.0011981  -2.1269632
  99.7014263  68.0360166   0.2111539  99.0712923  68.7176447   0.4446935
  99.5950351  67.9243248  -0.7335323  93.2796938  67.9562453  -6.4307547
  93.5304976  68.8409463  -6.1649971  93.8156486  67.7767054  -7.2032455
  98.9795005  62.3380932   2.5736790  98.5861951  61.7847131   3.2484434
  99.7961146  62.6491511   2.9643307 101.8962966  63.7538811   0.1657046
 102.6372680  64.3545964   0.0861509 102.1280889  63.0116449  -0.3924911
  97.0404304  68.9395178  -1.5564724  96.9257819  68.0380436  -1.2557625
  96.1848822  69.1858875  -1.9079908 105.8420129  59.7819914  -5.5578672
 105.4984399  60.6721556  -5.6339562 106.2099092  59.5921572  -6.4209087
  97.8188851  66.9100764  -4.6261318  98.4911905  66.7018126  -5.2748669
  96.9918638  66.7122850  -5.0656086 103.7214423  63.5362705  -2.6095657
 103.0742338  64.2352654  -2.7031181 104.4915439  63.9698849  -2.2419409
  98.2216348  70.1843367  -3.8658881  98.0836146  69.4523606  -3.2647342
  99.1321272  70.0952267  -4.1474693  99.5627583  66.8828544  -2.5579562
  99.0264940  66.4319282  -1.9057966  98.9744291  67.0174453  -3.3009098
  95.2966704  66.0184552  -5.4726568  95.2124893  65.4110221  -6.2076158
  94.4749411  66.5093570  -5.4717071 103.7303444  70.4017412   1.0288918
 103.0544081  70.3011541   1.6991293 104.5531078  70.2456625   1.4924915
  90.0699958  69.2094948  -7.6294124  90.1084058  68.6758539  -6.8357006
  89.5640251  68.6830154  -8.2483147  97.4490721  64.0559489  -4.1331582
  97.5132047  64.9174320  -4.5454184  97.3857841  63.4433491  -4.8659223
  96.9242993  66.1282621  -0.4858548  97.5515032  65.7459699   0.1278977
  96.0670912  65.9096823  -0.1202855 100.0329096  63.3469474  -2.2971992
 100.5563498  63.5931770  -1.5345683  99.8141430  64.1789508  -2.7168855
 101.2381641  64.2883169  -4.6122322 100.8978462  63.4890982  -4.2101642
 100.5320648  64.5884880  -5.1845489 101.8898113  61.3732481  -6.1594999
 102.7124183  60.8992959  -6.2816108 102.1336177  62.1522965  -5.6596313
  93.8882354  70.6056946  -5.4115359  93.3435822  71.3816754  -5.2795085
  94.7661704  70.9527751  -5.5696238  94.6748376  69.7326842  -2.5185202
  93.9330112  69.8809478  -1.9320572  94.3541120  69.9935108  -3.3818453
 100.1611050  65.4500527   1.1755372 100.2099206  66.3262650   0.7933142
 100.7033565  64.9077920   0.6027015 102.3910339  66.2031900  -2.0698269
 101.5213648  66.4965466  -2.3415681 102.6269819  66.7872345  -1.3491006
 105.0949373  62.4211517  -4.5532849 105.6131316  63.1572544  -4.8786360
 104.7404505  62.7275510  -3.7186090 103.4180926  73.4049352   1.3309784
 104.3383936  73.5827951   1.5249830 103.3830509  72.4605397   1.1789483
 101.2870864  66.8883593   3.3635314 101.1867591  67.8377949   3.2947405
 101.0692406  66.5601831   2.4911384 101.1502134  70.3180731   2.1800375
 100.6669216  71.1181091   2.3864264 101.2363073  70.3288676   1.2267819
  92.9209768  67.1124516  -2.5168196  93.5668632  66.6023470  -2.0280971
  92.7126919  67.8493198  -1.9424771 105.4463160  74.1805363   2.9823944
 106.3154320  74.3546016   2.6210579 104.9669912  74.9999780   2.8599674
  97.2607259  64.2592133   1.5806818  98.1238721  63.9028938   1.7910143
  96.6872670  63.9206028   2.2682222   2.1089754 118.5083576  86.6104089
   1.4664134 118.8016109  85.9643883   1.6044682 118.3936496  87.4157285
   3.4515838 120.9268315  86.8023056   2.9354886 120.1426771  86.6152985
   4.3355786 120.5987031  86.9669576   1.1126565 114.6709330  82.7618869
   0.9151386 114.3624418  83.6462201   1.7226270 115.3970969  82.8916799
   2.3818432 118.8465373  82.7904752   3.1578823 119.3361826  83.0629369
   1.6566567 119.2723428  83.2476621   4.8190991 119.5592993  83.8478693
   5.4135482 119.3188729  83.1372001   4.8917575 118.8400123  84.4752229
   2.8149726 120.1263120  80.1150822   2.5586660 119.7259756  80.9459030
   2.1902594 120.8406914  79.9900962   2.8274025  98.8812599  70.0183563
   3.5599197  98.3111816  70.2521392   2.0713380  98.4934200  70.4590068
   2.1089755  95.5145698  73.3349395   1.4664135  95.8078231  72.6889190
   1.6044683  95.3998618  74.1402592   2.2488733 105.1789128  68.7693200
   1.5639771 105.5588029  68.2190233   2.3332582 105.7884454  69.5025147
   0.6185492 105.7021042  73.5410901   1.4402936 105.3001229  73.2593582
   0.6147895 105.5989276  74.4927016   8.7091485 102.0459791  69.8895872
   7.9555194 101.4767189  69.7339877   8.8439026 102.0122455  70.8366507
   2.3867134 103.1844721  64.5375093   1.6096576 102.8455880  64.0930256
   3.0658615 103.1897344  63.8630059   2.7855631 102.1988427  66.9998015
   2.6473529 102.3890023  66.0719205   2.4291850 102.9607810  67.4566067
   4.9282623 100.8662321  71.1890076   4.9172499 101.7487037  70.8184009
   4.0600003 100.5133872  70.9944613   1.5455198  99.7610962  67.6560242
   2.0115650 100.5938954  67.5820545   1.9962698  99.2955944  68.3605501
   5.5307233 102.0162541  67.7939539   5.9738379 101.2669866  67.3958662
   4.6533743 102.0072677  67.4113271   0.6643014 108.5692882  63.2746138
   1.3593919 109.1899575  63.4933452   1.0066165 107.7188233  63.5498515
   2.5634437 106.0192588  64.8033468   3.0885762 106.3579861  64.0782788
   2.4756790 105.0839603  64.6196603   2.2528344 106.6525491  80.1084666
   1.4623887 106.6349630  79.5689166   2.0161698 107.1913785  80.8633703
   2.3726219 103.5017958  77.4217395   2.4224224 103.3367965  78.3632918
   2.2640142 102.6345217  77.0315276   5.0740098 103.4867779  70.1861987
   5.9086989 103.9257583  70.3499547   5.2099227 103.0106432  69.3670232
   2.1231604 101.0447514  76.1339474   2.5985725 101.2375160  75.3258326
   1.1997169 101.1006700  75.8882858   0.8233273  97.9213274  74.3667780
   1.7750696  98.0211372  74.3880004   0.6536723  97.1291543  74.8765864
   0.6043159 108.2757654  60.2733761   0.5256791 107.9417518  61.1669519
   1.4252826 108.7679422  60.2725233   3.3021350 101.1419394  73.4810080
   3.2697671 100.2035394  73.6669763   3.9121974 101.2203430  72.7475904
   3.4515839  97.9330437  73.5268363   2.9354888  97.1488894  73.3398292
   4.3355787  97.6049154  73.6914882   1.1126566  91.6771453  69.4864175
   0.9151387  91.3686541  70.3707507   1.7226271  92.4033092  69.6162105
   2.3818434  95.8527496  69.5150059   3.1578824  96.3423949  69.7874675
   1.6566568  96.2785550  69.9721928   4.8190992  96.5655115  70.5723999
   5.4135483  96.3250851  69.8617307   4.8917576  95.8462246  71.1997535
   2.8149727  97.1325243  66.8396129   2.5586661  96.7321879  67.6704337
   2.1902595  97.8469037  66.7146268   7.1262065  99.8721316  69.3467420
   6.5661623  99.9414505  70.1198982   6.5205568  99.6962301  68.6266917
   8.7118084 116.5477830  72.0397376   9.3496494 116.4284577  71.3360716
   8.5938926 117.4958674  72.0985328   5.5207790 116.5005258  71.9758901
   5.1826301 116.3846323  71.0879436   6.3897558 116.0996423  71.9559907
   1.3794606 118.3540735  67.9655792   0.8159471 118.2630672  67.1972080
   1.2647001 117.5340639  68.4458284   6.0027573 117.6540110  77.9345106
   5.9916214 117.2592908  77.0625610   6.1648212 116.9206183  78.5278878
   0.8849791 119.1100839  63.6757391   1.6580667 118.5629827  63.5370267
   1.2375190 119.9745089  63.8871852   3.6491041 117.8154070  73.4725650
   4.2454613 117.5910093  72.7582613   3.7066012 117.0738816  74.0751098
   3.2216069 115.2693506  61.3075841   3.4741590 114.7475027  60.5459304
   2.2840628 115.1059651  61.4102525   8.2659352 114.2729284  69.1150584
   9.0522441 113.8548707  68.7641001   8.5298056 115.1775376  69.2832233
   8.4369429 119.7102134  63.8139241   7.8015262 119.7836761  64.5260146
   8.1066836 120.2995733  63.1358320  13.6667779 114.2104517  70.0183563
  14.3992951 113.6403734  70.2521392  12.9107135 113.8226118  70.4590068
   2.9412358 117.1721612  63.5100216   2.8248616 116.4966515  64.1781300
   3.0514618 116.6853985  62.6932369   5.2843899 116.6331759  67.2146905
   4.9202106 116.1062380  67.9259827   6.1411015 116.2430228  67.0413391
  11.1893200 107.9226091  74.4778171  10.8576524 108.7921502  74.2539386
  10.5938813 107.6062375  75.1572202   4.9249386 111.6621658  62.2108254
   5.0923788 112.5301895  62.5778725   4.7346555 111.8248940  61.2869543
   7.6824719 120.1238637  73.8774084   7.3825442 121.0263676  73.7689891
   7.3375779 119.8570820  74.7295237  11.0821863 112.6421177  71.5571521
  10.1738740 112.5736586  71.2630282  11.0309459 113.1193122  72.3853347
   4.9038607 114.1179316  63.1954920   4.7838232 114.5636367  64.0340401
   4.2091195 114.4664634  62.6368459   5.1562729 114.0610823  79.5006419
   4.3796063 114.6204743  79.4909283   5.7953292 114.5467606  80.0221289
  12.9483509 110.8437616  73.3349395  12.3057889 111.1370149  72.6889190
  12.4438438 110.7290536  74.1402592  10.6023673 114.5900789  64.0235255
  11.5141529 114.8228176  63.8482952  10.0933320 115.1737833  63.4610333
   3.4109101 116.8696276  79.0624386   4.1523785 117.4081320  78.7859209
   2.7046086 117.4962565  79.2195937   8.8864441 119.0125417  77.6596547
   9.2947797 118.5707827  76.9151179   8.1641702 118.4378044  77.9130740
   5.2395511 113.9498024  75.0330104   6.0856706 114.3737437  75.1764753
   5.1794148 113.2931648  75.7268667   9.2093255 119.5726607  71.4148836
   8.5802118 119.7372322  70.7124904   8.8218917 119.9868217  72.1859800
  13.0882487 120.5081045  68.7693200  12.4033525 120.8879947  68.2190233
  13.1726336 121.1176372  69.5025147   8.3894956 111.6102392  76.6911278
   8.1455888 112.3644452  76.1545553   8.6654886 111.9887740  77.5258525
  10.3433419 118.1541004  75.3688543  10.5550314 118.7972764  74.6922924
  10.2963167 117.3203321  74.9010473   7.9459648 110.7658825  72.2725115
   7.0844127 111.0640079  72.5641853   7.9722082 110.9829224  71.3406148
   4.7621217 119.3101016  68.6798921   5.2259563 119.5888719  67.8903544
   4.4978015 118.4084460  68.4972012   1.6545298 118.8572497  71.6178684
   2.2246655 119.2859765  70.9796169   2.2453410 118.5755082  72.3162870
   3.6990103 115.4324168  65.4888486   4.4014146 115.8845212  65.9562413
   3.3670732 114.7907987  66.1168379   2.1470465 114.0235925  79.8639696
   1.5169125 114.7052205  80.0975092   2.0406553 113.9119006  78.9192834
  11.4579247 121.0312960  73.5410901  12.2796690 120.6293147  73.2593582
  11.4541650 120.9281194  74.4927016   5.2235850 120.5797003  75.6971611
   5.2880283 121.0417410  76.5329783   4.5146774 119.9494368  75.8253921
  19.5485240 117.3751708  69.8895872  18.7948948 116.8059106  69.7339877
  19.6832781 117.3414373  70.8366507   1.4251207 108.3256690  82.2264947
   1.0318153 107.7722889  82.9012591   2.2417348 108.6367269  82.6171464
   4.3419168 109.7414569  79.8185203   5.0828882 110.3421723  79.7389666
   4.5737091 108.9992207  79.2603246   5.1206636 120.6635606  78.5655843
   5.6534973 119.9023895  78.3355151   4.5920717 120.3709258  79.3079998
   8.2526614 115.7604284  62.6021920   7.7373237 116.5308888  62.8410307
   7.9803923 115.0869420  63.2254981   5.8373725 110.6053984  67.6607158
   4.9815321 110.2160835  67.4812797   6.2500677 110.6845945  66.8006944
   7.3672872 108.1400328  72.0598718   6.8637667 108.1030463  71.2466523
   7.6603479 109.0493070  72.1195375  13.2260888 118.5136638  64.5375093
  12.4490331 118.1747798  64.0930256  13.9052369 118.5189261  63.8630059
   8.0412917 113.6331376  64.4281701   7.7363053 113.9477525  65.2791844
   8.9943359 113.7112796  64.4709034   6.4859349 119.7921599  66.0774655
   5.9580711 119.0574359  65.7647893   5.9846852 120.5696275  65.8314624
  11.4652195 117.9870619  71.1941701  10.8075870 118.6769881  71.2821830
  12.2692594 118.3767051  71.5375688   1.2178077 110.4541265  68.4381267
   1.7921829 110.2316447  67.7054460   1.8049059 110.5229960  69.1909868
  10.2757654 116.3414992  69.2445643  10.7889536 116.9744984  69.7467353
  10.9258878 115.7416188  68.8789003   1.5447664 112.4845726  62.4577152
   0.7084976 112.8220413  62.7786427   1.4052433 112.3494706  61.5204289
   3.5200744 107.3282514  67.1656336   2.8665157 107.0131531  66.5412951
   3.4781219 106.7058255  67.8916159   4.6311949 117.6101809  59.0809628
   3.7239011 117.3791063  59.2800777   5.1282981 116.8139428  59.2683610
   6.7538485 113.8164448  71.4903984   5.8361046 114.0379395  71.3325672
   7.1698628 113.8910758  70.6315691   7.5373533 115.2155863  66.6206664
   8.2845351 115.7277261  66.3113786   7.8065122 114.8939916  67.4811058
   5.8100183 117.7114404  63.6033618   4.9011402 117.4273437  63.7006088
   5.8395267 118.1313483  62.7436925  11.0419450 121.3220994  67.3724786
  10.5881777 120.4811903  67.4289976  10.4113417 121.9582392  67.7099566
   9.9852370 112.2512980  68.6025453   9.2475126 111.7390366  68.9335696
  10.2379143 111.8113361  67.7908730   9.4852389 123.1597490  68.3074604
   9.7775364 123.7202547  67.5886970   9.9951010 123.4526051  69.0627763
  10.0863997 105.0289232  69.1967223  10.3922874 104.1686595  68.9093138
  10.8116602 105.6206852  68.9966216   4.3585077 115.3243025  69.7043414
   4.4133687 114.3716861  69.6285890   3.5476279 115.4802464  70.1884712
   5.5076271 119.2523148  60.9421697   5.0695700 118.5359007  60.4827334
   6.2486711 119.4799263  60.3806788   2.2977437 113.9420084  67.4633793
   1.4845302 114.2414255  67.8698985   2.7936431 113.5475773  68.1808275
   7.8951648 114.4061909  76.2948686   8.2501036 114.6333382  77.1543152
   8.5423780 114.7380286  75.6725942  13.6249385 117.5280345  66.9998015
  13.4867284 117.7181941  66.0719205  13.2685604 118.2899728  67.4566067
   1.7891511 111.5138440  73.0795027   2.4290891 111.3727199  72.3817991
   0.9569042 111.2272953  72.7033629  13.6518765 119.5956872  72.0109287
  14.0855272 119.5032161  72.8592341  14.3650346 119.5714372  71.3729303
   2.5651815 120.8140870  69.1930020   3.3592414 120.3191191  68.9912595
   1.8543508 120.2858733  68.8297725  14.5134314 119.6380572  74.5442172
  14.7070205 120.5426383  74.7901447  14.4134933 119.1787992  75.3780757
   6.1670625 109.5238463  77.0432500   5.5198540 110.2228413  76.9496976
   6.9371641 109.9574607  77.4108748   9.5749423 119.7887315  80.1183053
   9.4234930 119.5597867  79.2013137   9.5654103 120.7457917  80.1314398
   6.3434760 117.3619228  75.1029319   7.2726820 117.5130388  74.9298287
   5.9225790 117.4503249  74.2477966   6.6928306 120.7651495  70.2616695
   6.3578139 120.7252265  71.1574345   6.1932252 120.0996211  69.7887105
   0.6672550 116.1719125  75.7869276   0.5292348 115.4399364  76.3880815
   1.5777474 116.0828025  75.5053464   9.6287498 118.1107529  60.5353754
   9.0116669 117.3854358  60.4386807   9.1603987 118.8716890  60.1920829
   3.2954851 115.8839084  75.2752956   4.0054470 115.2432277  75.2339574
   3.2524159 116.1351979  76.1979136  11.2841630 122.8206438  78.1959535
  11.2254176 122.1365658  77.5290118  11.6861148 123.5625428  77.7440161
   2.0083785 112.8704302  77.0948595   1.4721142 112.4195041  77.7470191
   1.4200494 113.0050211  76.3519059   1.4186044 112.3292954  59.6575059
   0.5415510 112.2081754  59.2937305   1.8943797 111.5379032  59.4053947
  11.2859037 120.7846022  76.4273514  10.3985816 120.4471943  76.5499913
  11.8557588 120.0529053  76.6642280   7.9146620 110.4913874  69.5471785
   8.4115320 109.7383836  69.2272855   7.1433602 110.5278190  68.9814994
  15.7676378 116.1954239  71.1890076  15.7566254 117.0778954  70.8184009
  14.8993757 115.8425790  70.9944613   8.9976401 119.2485561  67.1210208
   8.0632680 119.3687023  66.9514912   9.1753069 118.3458028  66.8570218
   4.4981589 112.6331257  69.2743469   4.1279376 112.0802297  69.9624375
   4.9940681 112.0289390  68.7218469  12.3848952 115.0902880  67.6560242
  12.8509404 115.9230872  67.5820545  12.8356453 114.6247862  68.3605501
  10.4525183 121.4346701  64.6546394  10.7285027 121.3203296  65.5640268
   9.5829682 121.0364186  64.6158567  10.3565615 107.4583467  71.6951143
   9.4428695 107.6887694  71.8633350  10.7858716 107.5421911  72.5465176
  10.1272073 115.6473359  74.1951038   9.4743524 115.8949266  73.5403490
  10.5052453 114.8337497  73.8613515   6.1759646 116.3893170  80.6817075
   5.5000283 116.2887299  81.3519450   6.9987280 116.2332384  81.1453072
   9.7693304 122.5221355  80.7723345  10.3133208 123.1351313  80.2778300
   9.1880149 123.0800933  81.2890358  10.1185725 123.4451093  73.5317923
   9.1716061 123.3256444  73.4596250  10.4668498 122.5573591  73.6144184
   2.4785298 109.3345232  77.3556165   3.0019700 109.5807529  78.1182474
   2.2597632 110.1665267  76.9359302   0.9894403 111.8921876  65.5902767
   1.3290475 112.4207798  64.8681376   1.4366523 112.2302283  66.3661334
  10.7266280 124.0632368  70.8187148  11.6512828 123.8575229  70.6811599
  10.5581584 123.8148769  71.7276489   3.6837843 110.2758927  75.0405835
   3.3434664 109.4766740  75.4426515   2.9776850 110.5760638  74.4682668
   2.9762550 110.3896498  63.7896060   3.6970912 110.7677751  63.2859777
   2.3527854 111.1085375  63.8931038   7.1193673 111.0941647  64.7254392
   7.3357287 111.9766285  64.4243220   6.6387740 110.7027860  63.9960034
   1.8592894 114.0527360  71.3025137   1.7137475 114.3667663  72.1949418
   1.3818098 114.6712261  70.7496036   3.7189277 111.0429908  71.3506026
   3.7050846 110.1471001  71.0138324   4.4361705 111.0500572  71.9844313
   5.5715408 111.4767248  73.3959154   5.3133185 112.3984319  73.3943484
   5.0400448 111.0797683  74.0859618   3.1226173 109.9244288  66.6193597
   3.2442084 108.9960935  66.8184484   2.8328215 109.9382974  65.7071912
   5.9917363 107.6099199  69.7560316   6.0139060 107.6738532  68.8012296
   6.4085422 106.7703708  69.9500823  16.3700988 117.3454458  67.7939539
  16.8132134 116.5961784  67.3958662  15.4927498 117.3364595  67.4113271
  11.5036769 123.8984800  63.2746138  12.1987673 124.5191493  63.4933452
  11.8459919 123.0480151  63.5498515  13.4028192 121.3484505  64.8033468
  13.9279516 121.6871778  64.0782788  13.3150545 120.4131521  64.6196603
   2.6067252 111.4376286  80.8283529   2.6555408 112.3138409  80.4461299
   3.1489767 110.8953679  80.2555172  13.0922098 121.9817409  80.1084666
  12.3017642 121.9641548  79.5689166  12.8555453 122.5205703  80.8633703
  13.2119973 118.8309875  77.4217395  13.2617978 118.6659883  78.3632918
  13.1033896 117.9637134  77.0315276  10.5023735 114.8140803  78.7376702
  11.4033598 114.6747268  78.4460699  10.5771710 114.9795258  79.6774879
   4.8366541 112.1907658  77.5829888   3.9669850 112.4841224  77.3112476
   5.0726021 112.7748103  78.3037151  14.7138170 121.2506817  77.6659416
  14.4222978 121.6136798  78.5022877  14.1010301 120.5373825  77.4872748
  15.9133852 118.8159697  70.1861987  16.7480744 119.2549501  70.3499547
  16.0492981 118.3398350  69.3670232  12.9625358 116.3739432  76.1339474
  13.4379480 116.5667078  75.3258326  12.0390924 116.4298617  75.8882858
  11.6627027 113.2505192  74.3667780  12.6144450 113.3503289  74.3880004
  11.4930478 112.4583460  74.8765864   9.6841407 110.3360775  74.5527181
   9.0891339 110.6165788  73.8573670   9.3991103 110.8254676  75.3243922
  11.4436914 123.6049572  60.2733761  11.3650545 123.2709436  61.1669519
  12.2646581 124.0971340  60.2725233  14.1415105 116.4711311  73.4810080
  14.1091425 115.5327312  73.6669763  14.7515729 116.5495348  72.7475904
   5.9798436 115.3407364  59.5237284   6.9257541 115.2113572  59.5925702
   5.6012681 114.6022026  60.0006712  14.2909593 113.2622355  73.5268363
  13.7748642 112.4780811  73.3398292  15.1749542 112.9341071  73.6914882
  11.9520320 107.0063370  69.4864175  11.7545141 106.6978459  70.3707507
  12.5620026 107.7325009  69.6162105  19.9591655 117.5327318  72.6216116
  20.6895043 117.2712606  73.1823820  19.3498600 116.7956040  72.6618184
  18.0406952 115.6735181  73.2190568  17.3140116 115.5391146  72.6107059
  17.6254239 115.9812009  74.0247286   5.8637128 119.3925110  80.9837941
   6.7840138 119.5703709  81.1777987   5.8286711 118.4481156  80.8317640
   4.1641353 113.2657341  59.4592169   3.2572808 112.9690453  59.5354882
   4.4417334 112.9687159  58.5926455   5.7803419 107.8094230  65.6136410
   4.9704147 107.4641315  65.9891656   6.4687836 107.5001774  66.2024022
   7.7093967 106.8872277  67.2360707   8.2625006 107.3067731  67.8950730
   7.9464053 105.9608025  67.2783663   3.7327066 112.8759351  83.0163471
   3.6323793 113.8253708  82.9475562   3.5148608 112.5477590  82.1439541
   2.9340138 110.1244276  59.6004148   3.7959302 110.4499174  59.8599965
   3.1190482 109.3375772  59.0877214  11.0872774 108.9972802  66.7439371
  10.5071443 109.6557606  66.3617423  10.8208707 108.1750147  66.3326789
   9.5376340 108.3977860  68.9460691  10.0376119 108.5094395  68.1375010
  10.1811948 108.0938913  69.5861500   3.5958336 116.3056490  81.8328532
   3.1125418 117.1056850  82.0392421   3.6819275 116.3164435  80.8795976
   9.8697652 111.1572893  65.7995719   8.9823507 111.4422543  65.5815914
  10.2851641 110.9966656  64.9522996  13.2212188 111.1819414  69.5150059
  13.9972578 111.6715866  69.7874675  12.4960322 111.6077468  69.9721928
  15.6584747 111.8947033  70.5723999  16.2529238 111.6542769  69.8617307
  15.7311331 111.1754164  71.1997535   9.0140866 120.9217567  59.8943739
   9.7176716 121.1267570  60.5101395   8.2903514 121.4894329  60.1592823
   9.8438676 116.6727429  66.0146009   9.7873877 117.1295980  65.1753642
  10.3967018 115.9118113  65.8368852  13.6543482 112.4617161  66.8396129
  13.3980416 112.0613796  67.6704337  13.0296350 113.1760955  66.7146268
  17.9655820 115.2013234  69.3467420  17.4055378 115.2706423  70.1198982
  17.3599323 115.0254218  68.6266917  10.9227563 121.3600097  61.9442199
  11.7573167 120.9281295  61.7619674  10.7611906 121.1882110  62.8719094
  10.5773455 117.8632210  63.3098539  10.5222259 117.6976481  62.3686983
   9.9519510 118.5708243  63.4660728   7.8919362 120.1681122  82.6352101
   8.7610522 120.3421774  82.2738736   7.4126114 120.9875539  82.5127831
   3.8869581 107.3640319  62.8883857   3.8748250 108.3082159  63.0452128
   4.7793002 107.1810464  62.5943318   7.7021700 103.9583096  67.1429794
   6.9354096 103.4041582  67.2886476   8.1132405 104.0304964  68.0043945
  22.0286954 123.2518009  74.4778171  21.6970279 124.1213420  74.2539386
  21.4332567 122.9354293  75.1572202  23.7877264 126.1729533  73.3349395
  23.1451644 126.4662067  72.6889190  23.2832192 126.0582454  74.1402592
  18.7853402 126.0950743  72.2725115  17.9237881 126.3931996  72.5641853
  18.8115837 126.3121142  71.3406148  12.2644962 123.6548608  82.2264947
  11.8711907 123.1014807  82.9012591  13.0811102 123.9659187  82.6171464
  15.1812923 125.0706487  79.8185203  15.9222636 125.6713640  79.7389666
  15.4130846 124.3284125  79.2603246  19.1270086 121.0987590  74.0949485
  18.7834355 121.9889232  74.0188595  19.4949048 120.9089248  73.2319070
  16.6767480 125.9345902  67.6607158  15.8209076 125.5452752  67.4812797
  17.0894431 126.0137863  66.8006944  18.2066626 123.4692245  72.0598718
  17.7031422 123.4322380  71.2466523  18.4997233 124.3784988  72.1195375
  14.4509512 123.5530975  71.0664900  15.3162509 123.3573784  70.7070789
  14.5187021 123.3241327  71.9934257  14.3594499 122.6574432  67.1656336
  13.7058911 122.3423449  66.5412951  14.3174973 122.0350172  67.8916159
  20.8246124 127.5804897  68.6025453  20.0868881 127.0682283  68.9335696
  21.0772898 127.1405279  67.7908730  20.9257751 120.3581149  69.1967223
  21.2316628 119.4978513  68.9093138  21.6510356 120.9498769  68.9966216
  17.0064380 124.8530381  77.0432500  16.3592295 125.5520330  76.9496976
  17.7765395 125.2866525  77.4108748  18.7540375 125.8205791  69.5471785
  19.2509074 125.0675754  69.2272855  17.9827356 125.8570108  68.9814994
  21.1959369 122.7875385  71.6951143  20.2822449 123.0179612  71.8633350
  21.6252471 122.8713829  72.5465176  15.1748070 122.6900157  73.4933158
  15.9974139 122.2160635  73.3712049  15.4186133 123.4690641  73.9931845
  16.8311118 122.9391117  69.7560316  16.8532815 123.0030450  68.8012296
  17.2479177 122.0995625  69.9500823  18.3799329 123.7379193  75.0995308
  18.8981273 124.4740220  74.7741797  18.0254462 124.0443186  75.9342067
  18.6311923 120.1579475  70.6196205  18.9113677 119.4902664  71.2456631
  19.4162530 120.3508571  70.1070869  20.5235161 125.6652693  74.5527181
  19.9285093 125.9457705  73.8573670  20.2384858 126.1546593  75.3243922
  25.1303348 128.5914272  73.5268363  24.6142397 127.8072729  73.3398292
  26.0143296 128.2632989  73.6914882  22.7914075 122.3355288  69.4864175
  22.5938896 122.0270376  70.3707507  23.4013780 123.0616927  69.6162105
  16.6197173 123.1386148  65.6136410  15.8097902 122.7933233  65.9891656
  17.3081590 122.8293692  66.2024022  18.5487721 122.2164195  67.2360707
  19.1018760 122.6359648  67.8950730  18.7857808 121.2899943  67.2783663
  21.9266529 124.3264720  66.7439371  21.3465198 124.9849524  66.3617423
  21.6602461 123.5042065  66.3326789  20.3770095 123.7269778  68.9460691
  20.8769873 123.8386312  68.1375010  21.0205703 123.4230831  69.5861500
  20.7091407 126.4864810  65.7995719  19.8217262 126.7714461  65.5815914
  21.1245396 126.3258574  64.9522996  24.0605943 126.5111331  69.5150059
  24.8366333 127.0007784  69.7874675  23.3354077 126.9369386  69.9721928
  26.4978501 127.2238951  70.5723999  27.0922992 126.9834687  69.8617307
  26.5705085 126.5046081  71.1997535  24.4937236 127.7909078  66.8396129
  24.2374170 127.3905714  67.6704337  23.8690104 128.5052872  66.7146268
  14.7263335 122.6932237  62.8883857  14.7142005 123.6374077  63.0452128
  15.6186757 122.5102382  62.5943318  18.5415455 119.2875013  67.1429794
  17.7747850 118.7333500  67.2886476  18.9526160 119.3596882  68.0043945
   2.8274026  75.8874722  56.7428869   3.5599198  75.3173939  56.9766699
   2.0713382  75.4996323  57.1835375   2.1089756  72.5207821  60.0594702
   1.4664136  72.8140354  59.4134496   1.6044685  72.4060741  60.8647899
   2.2488734  82.1851250  55.4938506   1.5639772  82.5650152  54.9435540
   2.3332583  82.7946577  56.2270454   0.6185493  82.7083165  60.2656207
   1.4402937  82.3063352  59.9838889   0.6147896  82.6051399  61.2172323
   8.7091486  79.0521913  56.6141179   7.9555195  78.4829311  56.4585183
   8.8439028  79.0184578  57.5611813   2.3867135  80.1906843  51.2620400
   1.6096578  79.8518003  50.8175562   3.0658616  80.1959466  50.5875365
   2.7855632  79.2050550  53.7243322   2.6473531  79.3952146  52.7964511
   2.4291851  79.9669933  54.1811373   2.8125012  81.2727077  58.7354594
   3.2461518  81.1802366  59.5837648   3.5256592  81.2484577  58.0974610
   3.6740561  81.3150777  61.2687479   3.8676451  82.2196588  61.5146754
   3.5741179  80.8558196  62.1026064   4.9282624  77.8724444  57.9135383
   4.9172501  78.7549159  57.5429316   4.0600004  77.5195995  57.7189920
   1.5455199  76.7673085  54.3805549   2.0115651  77.6001077  54.3065851
   1.9962699  76.3018067  55.0850807   5.5307234  79.0224663  54.5184846
   5.9738380  78.2731989  54.1203969   4.6533745  79.0134800  54.1358578
   0.6643016  85.5755005  49.9991444   1.3593920  86.1961697  50.2178759
   1.0066166  84.7250356  50.2743822   2.5634439  83.0254710  51.5278775
   3.0885763  83.3641983  50.8028095   2.4756791  82.0901726  51.3441910
   2.2528345  83.6587614  66.8329973   1.4623889  83.6411753  66.2934472
   2.0161699  84.1975908  67.5879010   2.3726220  80.5080080  64.1462701
   2.4224225  80.3430088  65.0878224   2.2640143  79.6407339  63.7560582
   3.8744417  82.9277022  64.3904723   3.5829225  83.2907002  65.2268184
   3.2616548  82.2144030  64.2118055   5.0740099  80.4929902  56.9107293
   5.9086990  80.9319706  57.0744854   5.2099228  80.0168555  56.0915539
   2.1231605  78.0509636  62.8584781   2.5985727  78.2437283  62.0503632
   1.1997170  78.1068822  62.6128165   0.8233274  74.9275397  61.0913087
   1.7750697  75.0273494  61.1125311   0.6536724  74.1353665  61.6011171
   0.6043161  85.2819777  46.9979068   0.5256792  84.9479641  47.8914826
   1.4252827  85.7741545  46.9970540   3.3021352  78.1481516  60.2055386
   3.2697672  77.2097517  60.3915070   3.9121975  78.2265553  59.4721211
   3.4515840  74.9392560  60.2513669   2.9354889  74.1551016  60.0643598
   4.3355789  74.6111276  60.4160189   1.1126567  68.6833575  56.2109482
   0.9151388  68.3748663  57.0952814   1.7226273  69.4095214  56.3407412
   9.1197902  79.2097523  59.3461423   9.8501290  78.9482811  59.9069126
   8.5104847  78.4726245  59.3863491   7.2013199  77.3505386  59.9435874
   6.4746362  77.2161351  59.3352366   6.7860486  77.6582214  60.7492592
   2.3818435  72.8589619  56.2395365   3.1578825  73.3486071  56.5119982
   1.6566569  73.2847673  56.6967235   4.8190994  73.5717238  57.2969306
   5.4135484  73.3312974  56.5862614   4.8917577  72.8524368  57.9242842
   2.8149729  74.1387365  53.5641436   2.5586663  73.7384001  54.3949643
   2.1902597  74.8531159  53.4391575   7.1262066  76.8783439  56.0712727
   6.5661624  76.9476628  56.8444289   6.5205570  76.7024423  55.3512223
   8.7118085  93.5539953  58.7642683   9.3496495  93.4346700  58.0606023
   8.5938928  94.5020797  58.8230635   5.5207791  93.5067381  58.7004207
   5.1826303  93.3908445  57.8124742   6.3897559  93.1058546  58.6805214
   1.3794607  95.3602857  54.6901098   0.8159472  95.2692794  53.9217386
   1.2647002  94.5402762  55.1703591   6.0027574  94.6602233  64.6590413
   5.9916215  94.2655031  63.7870917   6.1648214  93.9268305  65.2524184
   6.9594166  99.0273825  50.0015563   6.3082145  99.6127905  49.6149577
   7.7538528  99.5580020  50.0610601   0.8849793  96.1162962  50.4002698
   1.6580669  95.5691949  50.2615573   1.2375192  96.9807211  50.6117159
   2.7234835  97.4439344  63.6069597   2.4324701  98.3484975  63.4916263
   3.3591820  97.4855872  64.3213667   3.6491042  94.8216193  60.1970957
   4.2454614  94.5972215  59.4827920   3.7066014  94.0800938  60.7996404
   3.2216070  92.2755628  48.0321148   3.4741591  91.7537149  47.2704611
   2.2840630  92.1121774  48.1347831   8.2659353  91.2791407  55.8395891
   9.0522443  90.8610830  55.4886308   8.5298058  92.1837499  56.0077539
   8.4369431  96.7164257  50.5384548   7.8015264  96.7898883  51.2505452
   8.1066837  97.3057856  49.8603627  13.6667780  91.2166640  56.7428869
  14.3992952  90.6465857  56.9766699  12.9107136  90.8288240  57.1835375
   2.9412359  94.1783734  50.2345523   2.8248617  93.5028638  50.9026607
   3.0514619  93.6916108  49.4177676   5.2843900  93.6393881  53.9392212
   4.9202107  93.1124502  54.6505133   6.1411016  93.2492350  53.7658697
  11.1893201  84.9288214  61.2023478  10.8576526  85.7983625  60.9784693
  10.5938814  84.6124498  61.8817508   4.9249387  88.6683781  48.9353560
   5.0923789  89.5364017  49.3024031   4.7346556  88.8311063  48.0114850
   7.6824720  97.1300760  60.6019391   7.3825443  98.0325799  60.4935198
   7.3375780  96.8632943  61.4540544  11.0821864  89.6483300  58.2816828
  10.1738741  89.5798708  57.9875589  11.0309460  90.1255245  59.1098653
   4.9038608  91.1241438  49.9200227   4.7838233  91.5698489  50.7585707
   4.2091196  91.4726756  49.3613765   2.6645500 103.8945080  53.5690358
   2.5869530 104.8452905  53.6478839   2.0607144 103.5490953  54.2265285
   5.1562730  91.0672946  66.2251725   4.3796064  91.6266866  66.2154590
   5.7953293  91.5529729  66.7466595  12.9483511  87.8499738  60.0594702
  12.3057891  88.1432272  59.4134496  12.4438439  87.7352659  60.8647899
  10.6023674  91.5962912  50.7480561  11.5141530  91.8290298  50.5728259
  10.0933321  92.1799956  50.1855640   3.4109102  93.8758399  65.7869692
   4.1523787  94.4143443  65.5104516   2.7046088  94.5024688  65.9441244
   8.8864442  96.0187539  64.3841854   9.2947798  95.5769950  63.6396486
   8.1641703  95.4440167  64.6376047   5.2395512  90.9560146  61.7575411
   6.0856707  91.3799560  61.9010060   5.1794150  90.2993771  62.4513974
   9.2093256  96.5788730  58.1394143   8.5802119  96.7434444  57.4370210
   8.8218919  96.9930340  58.9105107  13.0882488  97.5143168  55.4938506
  12.4033527  97.8942069  54.9435540  13.1726338  98.1238495  56.2270454
   8.3894957  88.6164515  63.4156584   8.1455889  89.3706575  62.8790860
   8.6654888  88.9949862  64.2503831  10.3433420  95.1603127  62.0933850
  10.5550315  95.8034887  61.4168231  10.2963168  94.3265443  61.6255780
   7.9459649  87.7720948  58.9970422   7.0844128  88.0702201  59.2887160
   7.9722084  87.9891346  58.0651455   4.7621218  96.3163138  55.4044228
   5.2259564  96.5950841  54.6148850   4.4978016  95.4146583  55.2217318
   1.6545299  95.8634620  58.3423991   2.2246656  96.2921888  57.7041475
   2.2453411  95.5817204  59.0408177   3.6990104  92.4386291  52.2133793
   4.4014148  92.8907334  52.6807719   3.3670733  91.7970109  52.8413686
   2.1470466  91.0298047  66.5885002   1.5169127  91.7114328  66.8220399
   2.0406554  90.9181129  65.6438140  11.4579248  98.0375082  60.2656207
  12.2796692  97.6355270  59.9838889  11.4541651  97.9343317  61.2172323
   5.2235851  97.5859126  62.4216918   5.2880284  98.0479533  63.2575090
   4.5146775  96.9556491  62.5499228  19.5485241  94.3813831  56.6141179
  18.7948949  93.8121229  56.4585183  19.6832782  94.3476495  57.5611813
   4.9383869  99.2527233  52.2895898   4.8029544 100.0978769  52.7180746
   5.4793682  99.4546511  51.5261832   1.4251209  85.3318813  68.9510253
   1.0318154  84.7785012  69.6257898   2.2417349  85.6429391  69.3416771
   4.3419170  86.7476692  66.5430510   5.0828883  87.3483845  66.4634972
   4.5737092  86.0054330  65.9848552   6.5652345  99.8750800  66.4196240
   6.1216200  99.0887178  66.1017145   7.2269559 100.0629950  65.7540131
   1.3239467 101.4046601  60.9456919   1.8746892 101.2763665  60.1733913
   0.4850942 101.7041490  60.5951811   8.6633583 100.1553600  64.4477641
   8.6452059 100.9762481  63.9557911   9.5853504 100.0307675  64.6727783
   5.1206638  97.6697729  65.2901150   5.6534974  96.9086017  65.0600458
   4.5920719  97.3771381  66.0325304   8.2876333  82.7757795  60.8194792
   7.9440602  83.6659437  60.7433902   8.6555295  82.5859453  59.9564377
   8.2526615  92.7666406  49.3267227   7.7373239  93.5371011  49.5655614
   7.9803924  92.0931542  49.9500288   5.8373726  87.6116107  54.3852465
   4.9815323  87.2222957  54.2058104   6.2500678  87.6908068  53.5252251
   7.3672873  85.1462450  58.7844025   6.8637669  85.1092585  57.9711830
   7.6603480  86.0555193  58.8440681   3.6115759  85.2301180  57.7910207
   4.4768756  85.0343989  57.4316096   3.6793268  85.0011532  58.7179563
  13.2260889  95.5198761  51.2620400  12.4490332  95.1809920  50.8175562
  13.9052370  95.5251384  50.5875365   8.0412918  90.6393498  51.1527008
   7.7363054  90.9539647  52.0037151   8.9943361  90.7174918  51.1954341
   6.4859350  96.7983722  52.8019962   5.9580712  96.0636481  52.4893199
   5.9846853  97.5758398  52.5559930  11.4652196  94.9932742  57.9187008
  10.8075871  95.6832003  58.0067137  12.2692596  95.3829174  58.2620994
   1.2178078  87.4603388  55.1626573   1.7921830  87.2378569  54.4299766
   1.8049060  87.5292082  55.9155175  10.2757655  93.3477115  55.9690950
  10.7889537  93.9807107  56.4712660  10.9258879  92.7478310  55.6034310
   1.5447665  89.4907849  49.1822459   0.7084977  89.8282535  49.5031733
   1.4052435  89.3556829  48.2449596   3.5200746  84.3344637  53.8901643
   2.8665158  84.0193654  53.2658258   3.4781220  83.7120377  54.6161466
   4.6311951  94.6163932  45.8054935   3.7239012  94.3853185  46.0046084
   5.1282983  93.8201551  45.9928916   7.5380029 103.3261439  48.7251621
   6.8641728 103.6293136  49.3336579   7.9245851 104.1290519  48.3757078
   6.7538486  90.8226570  58.2149290   5.8361047  91.0441517  58.0570978
   7.1698630  90.8972881  57.3560998   7.5373534  92.2217986  53.3451971
   8.2845353  92.7339383  53.0359093   7.8065123  91.9002039  54.2056364
   5.8100184  94.7176527  50.3278925   4.9011403  94.4335559  50.4251395
   5.8395268  95.1375605  49.4682232  11.0419451  98.3283116  54.0970092
  10.5881778  97.4874026  54.1535283  10.4113418  98.9644515  54.4344873
   9.9852371  89.2575102  55.3270760   9.2475128  88.7452488  55.6581003
  10.2379144  88.8175484  54.5154037   9.4852391 100.1659613  55.0319911
   9.7775365 100.7264670  54.3132276   9.9951011 100.4588174  55.7873070
  10.0863998  82.0351354  55.9212529  10.3922875  81.1748718  55.6338444
  10.8116603  82.6268974  55.7211523   4.3585078  92.3305147  56.4288720
   4.4133688  91.3778984  56.3531197   3.5476280  92.4864586  56.9130019
   5.5076272  96.2585270  47.6667004   5.0695702  95.5421129  47.2072641
   6.2486713  96.4861385  47.1052095   2.2977438  90.9482207  54.1879099
   1.4845303  91.2476378  54.5944291   2.7936432  90.5537896  54.9053581
   4.4486016 100.9439964  56.1213364   4.4062195 101.1700810  55.1921896
   5.3648715 100.7103339  56.2699165   7.8951650  91.4124031  63.0193993
   8.2501037  91.6395505  63.8788459   8.5423781  91.7442408  62.3971248
  13.6249387  94.5342467  53.7243322  13.4867285  94.7244063  52.7964511
  13.2685605  95.2961850  54.1811373   1.7891513  88.5200563  59.8040334
   2.4290892  88.3789322  59.1063297   0.9569043  88.2335076  59.4278936
  13.6518766  96.6018994  58.7354594  14.0855273  96.5094283  59.5837648
  14.3650347  96.5776495  58.0974610   2.5651817  97.8202993  55.9175327
   3.3592415  97.3253313  55.7157902   1.8543509  97.2920856  55.5543032
   7.3846661 100.2021088  60.2687694   7.4383683 100.7712025  61.0365410
   6.5161442 100.3722974  59.9041731  14.5134316  96.6442695  61.2687479
  14.7070206  97.5488506  61.5146754  14.4134934  96.1850114  62.1026064
   6.1670626  86.5300586  63.7677806   5.5198541  87.2290535  63.6742283
   6.9371642  86.9636730  64.1354055   9.5749424  96.7949438  66.8428360
   9.4234931  96.5659989  65.9258443   9.5654104  97.7520039  66.8559705
   6.3434761  94.3681351  61.8274626   7.2726821  94.5192510  61.6543593
   5.9225791  94.4565371  60.9723273   5.1423093  98.3932015  59.5973164
   5.0034178  98.0250799  60.4699102   4.3537689  98.9079654  59.4257121
   5.7371245 103.4941111  50.9398700   5.9123000 103.0229155  51.7544323
   5.0504033 104.1206878  51.1679961   6.6928308  97.7713618  56.9862001
   6.3578140  97.7314388  57.8819651   6.1932253  97.1058334  56.5132412
   0.6672552  93.1781248  62.5114583   0.5292350  92.4461487  63.1126122
   1.5777475  93.0890148  62.2298770   9.6287499  95.1169652  47.2599061
   9.0116670  94.3916480  47.1632114   9.1603988  95.8779012  46.9166135
   3.2954852  92.8901207  61.9998262   4.0054471  92.2494399  61.9584881
   3.2524161  93.1414102  62.9224443  11.2841631  99.8268560  64.9204841
  11.2254177  99.1427780  64.2535424  11.6861149 100.5687550  64.4685467
   2.0083786  89.8766425  63.8193902   1.4721143  89.4257163  64.4715498
   1.4200495  90.0112334  63.0764366   1.4186045  89.3355076  46.3820365
   0.5415512  89.2143877  46.0182612   1.8943798  88.5441155  46.1299254
  11.2859038  97.7908144  63.1518821  10.3985817  97.4534066  63.2745220
  11.8557589  97.0591176  63.3887587   4.8160192 102.4509597  60.1180064
   4.7430363 103.2564568  60.6299369   4.3737585 102.6501562  59.2928086
   4.6049971 101.6881367  53.6282886   3.8217493 102.2303047  53.7221110
   5.3042716 102.2055346  54.0277127   7.9146621  87.4975996  56.2717091
   8.4115321  86.7445958  55.9518162   7.1433603  87.5340313  55.7060301
  15.7676379  93.2016362  57.9135383  15.7566255  94.0841077  57.5429316
  14.8993758  92.8487912  57.7189920   7.2758875 102.3496431  62.2738223
   7.9886847 102.9843895  62.2014124   6.7848904 102.4460297  61.4578225
   8.9976402  96.2547683  53.8455515   8.0632681  96.3749146  53.6760219
   9.1753071  95.3520150  53.5815525   4.4981590  89.6393379  55.9988776
   4.1279378  89.0864419  56.6869681   4.9940683  89.0351513  55.4463776
  12.3848953  92.0965003  54.3805549  12.8509406  92.9292994  54.3065851
  12.8356454  91.6309984  55.0850807   2.3270789 100.0990874  63.0943794
   3.0280248 100.7327357  63.2473188   1.8565904 100.4405606  62.3339433
  10.4525185  98.4408824  51.3791701  10.7285028  98.3265418  52.2885575
   9.5829683  98.0426309  51.3403874  10.3565616  84.4645590  58.4196450
   9.4428696  84.6949816  58.5878657  10.7858718  84.5484034  59.2710483
  10.1272075  92.6535482  60.9196344   9.4743525  92.9011389  60.2648797
  10.5052455  91.8399620  60.5858821   7.0879249 102.6895175  55.0224514
   7.2701643 101.8716831  55.4852267   7.9112235 102.9062867  54.5849404
   7.4221414 101.6163360  52.2839563   7.9509181 101.1055814  51.6709725
   7.6849634 101.3005890  53.1485096   6.1759648  93.3955293  67.4062381
   5.5000285  93.2949422  68.0764756   6.9987282  93.2394506  67.8698378
   4.9182431 104.7022220  61.6419997   5.4700739 104.8653842  62.4069082
   5.2588624 105.2926658  60.9700022   9.7693305  99.5283478  67.4968652
  10.3133209 100.1413436  67.0023606   9.1880150 100.0863056  68.0135665
   8.0550818 102.6504196  58.6283679   7.9301957 101.8493935  58.1194625
   8.7129909 103.1450389  58.1397649  10.1185726 100.4513216  60.2563229
   9.1716062 100.3318567  60.1841556  10.4668499  99.5635714  60.3389491
   2.4785300  86.3407355  64.0801471   3.0019701  86.5869651  64.8427781
   2.2597633  87.1727389  63.6604609   7.1232160 100.2465932  56.4567582
   6.9757122  99.3182639  56.6375152   7.9485653 100.2686023  55.9724657
   0.9894404  88.8983999  52.3148074   1.3290476  89.4269920  51.5926682
   1.4366524  89.2364405  53.0906640  10.7266281 101.0694491  57.5432454
  11.6512829 100.8637352  57.4056906  10.5581585 100.8210892  58.4521796
   3.6837845  87.2821050  61.7651142   3.3434665  86.4828863  62.1671822
   2.9776851  87.5822761  61.1927975   4.3354317  84.3670362  60.2178465
   5.1580386  83.8930840  60.0957355   4.5792380  85.1460846  60.7177151
   2.9762551  87.3958621  50.5141367   3.6970914  87.7739873  50.0105083
   2.3527855  88.1147497  50.6176345   7.1193674  88.1003770  51.4499699
   7.3357288  88.9828407  51.1488527   6.6387741  87.7089983  50.7205341
   1.8592895  91.0589483  58.0270444   1.7137476  91.3729786  58.9194725
   1.3818099  91.6774383  57.4741342   3.7189278  88.0492031  58.0751333
   3.7050847  87.1533124  57.7383631   4.4361706  88.0562695  58.7089619
   5.5715409  88.4829371  60.1204461   5.3133187  89.4046442  60.1188791
   5.0400449  88.0859806  60.8104925  10.5161598 101.5880158  52.8994546
  10.6898475 101.0226581  52.1468398  11.0090489 102.3881053  52.7174036
   3.1226174  86.9306411  53.3438903   3.2442085  86.0023057  53.5429791
   2.8328216  86.9445097  52.4317219   5.9917364  84.6161321  56.4805623
   6.0139061  84.6800655  55.5257603   6.4085423  83.7765830  56.6746129
  16.3700989  94.3516581  54.5184846  16.8132135  93.6023906  54.1203969
  15.4927499  94.3426717  54.1358578  11.5036770 100.9046922  49.9991444
  12.1987675 101.5253615  50.2178759  11.8459920 100.0542274  50.2743822
  13.4028193  98.3546628  51.5278775  13.9279517  98.6933901  50.8028095
  13.3150546  97.4193643  51.3441910   5.0648242 102.2680702  63.6568652
   5.3735368 102.0229848  64.5291351   5.8623724 102.4727340  63.1687522
   5.0868854 104.4218611  55.8874028   4.6473844 103.9294990  56.5806885
   5.8376971 103.8791579  55.6466103   2.5342726  99.9656620  57.9596330
   1.9122735  99.3027325  57.6598558   3.2047593  99.9917752  57.2769978
   2.6067254  88.4438408  67.5528836   2.6555409  89.3200531  67.1706605
   3.1489768  87.9015801  66.9800479  13.0922099  98.9879532  66.8329973
  12.3017643  98.9703671  66.2934472  12.8555454  99.5267825  67.5879010
  13.2119974  95.8371998  64.1462701  13.2617979  95.6722005  65.0878224
  13.1033898  94.9699257  63.7560582   2.0956233  98.5160544  51.4354790
   2.2444353  99.1996008  50.7821463   2.9022677  98.4965634  51.9504246
  10.5023737  91.8202926  65.4622008  11.4033600  91.6809391  65.1706006
  10.5771711  91.9857381  66.4020186   4.8366542  89.1969781  64.3075194
   3.9669851  89.4903347  64.0357783   5.0726022  89.7810226  65.0282458
  14.7138171  98.2568940  64.3904723  14.4222979  98.6198920  65.2268184
  14.1010302  97.5435948  64.2118055  15.9133853  95.8221819  56.9107293
  16.7480745  96.2611623  57.0744854  16.0492982  95.3460473  56.0915539
  12.9625359  93.3801554  62.8584781  13.4379481  93.5729200  62.0503632
  12.0390925  93.4360740  62.6128165   7.5405576  85.4149398  61.8240615
   8.0587520  86.1510425  61.4987103   7.1860709  85.7213391  62.6587374
   7.7918170  81.8349680  57.3441511   8.0719924  81.1672869  57.9701938
   8.5768777  82.0278776  56.8316175   5.5951639 101.0108674  48.9066538
   5.0225606 101.6298861  48.4537010   6.1684432 101.5608036  49.4406460
  11.6627028  90.2567314  61.0913087  12.6144451  90.3565412  61.1125311
  11.4930479  89.4645583  61.6011171   9.6841408  87.3422897  61.2772488
   9.0891340  87.6227910  60.5818976   9.3991105  87.8316798  62.0489229
   8.8148898 101.2945824  50.0375120   9.7479572 101.2291386  50.2407996
   8.7272111 102.1302091  49.5789653  11.4436915 100.6111695  46.9979068
  11.3650547 100.2771558  47.8914826  12.2646582 101.1033463  46.9970540
  14.1415106  93.4773434  60.2055386  14.1091426  92.5389435  60.3915070
  14.7515730  93.5557471  59.4721211   5.9798437  92.3469487  46.2482590
   6.9257542  92.2175695  46.3171008   5.6012682  91.6084149  46.7252018
  14.2909595  90.2684477  60.2513669  13.7748643  89.4842934  60.0643598
  15.1749543  89.9403194  60.4160189  11.9520322  84.0125493  56.2109482
  11.7545143  83.7040581  57.0952814  12.5620027  84.7387132  56.3407412
  19.9591656  94.5389441  59.3461423  20.6895045  94.2774729  59.9069126
  19.3498602  93.8018163  59.3863491  18.0406953  92.6797303  59.9435874
  17.3140117  92.5453268  59.3352366  17.6254240  92.9874132  60.7492592
   5.8637130  96.3987233  67.7083247   6.7840139  96.5765832  67.9023294
   5.8286713  95.4543278  67.5562947   4.1641354  90.2719463  46.1837476
   3.2572810  89.9752576  46.2600189   4.4417335  89.9749281  45.3171762
   5.7803420  84.8156353  52.3381717   4.9704148  84.4703438  52.7136963
   6.4687837  84.5063897  52.9269328   7.7093968  83.8934400  53.9606013
   8.2625007  84.3129853  54.6196037   7.9464055  82.9670148  54.0028969
   3.7327067  89.8821473  69.7408777   3.6323794  90.8315830  69.6720868
   3.5148610  89.5539712  68.8684847   2.9340139  87.1306399  46.3249455
   3.7959303  87.4561297  46.5845272   3.1190483  86.3437894  45.8122521
  11.0872775  86.0034925  53.4684678  10.5071444  86.6619729  53.0862730
  10.8208708  85.1812270  53.0572095   9.5376342  85.4039983  55.6705998
  10.0376120  85.5156517  54.8620317  10.1811950  85.1001036  56.3106806
   3.5958338  93.3118612  68.5573839   3.1125419  94.1118972  68.7637728
   3.6819277  93.3226557  67.6041283   9.8697653  88.1635015  52.5241026
   8.9823508  88.4484666  52.3061221  10.2851642  88.0028779  51.6768303
  13.2212189  88.1881536  56.2395365  13.9972580  88.6777989  56.5119982
  12.4960324  88.6139591  56.6967235  15.6584748  88.9009156  57.2969306
  16.2529239  88.6604892  56.5862614  15.7311332  88.1816286  57.9242842
   9.0140867  97.9279690  46.6189046   9.7176717  98.1329693  47.2346702
   8.2903516  98.4956452  46.8838129   9.8438677  93.6789551  52.7391316
   9.7873878  94.1358103  51.8998949  10.3967020  92.9180236  52.5614159
  13.6543483  89.4679283  53.5641436  13.3980417  89.0675919  54.3949643
  13.0296351  90.1823077  53.4391575  17.9655821  92.2075356  56.0712727
  17.4055379  92.2768546  56.8444289  17.3599324  92.0316341  55.3512223
  10.9227564  98.3662219  48.6687506  11.7573168  97.9343418  48.4864981
  10.7611907  98.1944233  49.5964400  10.5773456  94.8694333  50.0343845
  10.5222260  94.7038604  49.0932289   9.9519512  95.5770365  50.1906035
   7.8919364  97.1743244  69.3597408   8.7610523  97.3483897  68.9984043
   7.4126115  97.9937661  69.2373137   3.8869582  84.3702442  49.6129164
   3.8748252  85.3144281  49.7697435   4.7793004  84.1872587  49.3188625
   2.0605544 104.2940345  61.0386842   2.9632791 104.3263956  61.3553337
   1.8342914 103.3640796  61.0533178   3.8159146 103.0471332  57.6996920
   2.8654777 103.0473194  57.5861293   4.1191632 102.3004067  57.1832955
   7.7021701  80.9645218  53.8675101   6.9354097  80.4103705  54.0131783
   8.1132406  81.0367087  54.7289252  19.5511839 108.8831870  58.7642683
  20.1890249 108.7638618  58.0606023  19.4332682 109.8312714  58.8230635
  16.3601546 108.8359298  58.7004207  16.0220057 108.7200363  57.8124742
  17.2291314 108.4350464  58.6805214  12.2188361 110.6894775  54.6901098
  11.6553226 110.5984712  53.9217386  12.1040756 109.8694679  55.1703591
  16.8421329 109.9894150  64.6590413  16.8309969 109.5946948  63.7870917
  17.0041968 109.2560223  65.2524184   9.7652793 112.1845966  57.5285319
  10.5574085 111.8436791  57.1131618  10.0049443 112.2940942  58.4487472
  17.7987920 114.3565743  50.0015563  17.1475900 114.9419823  49.6149577
  18.5932283 114.8871937  50.0610601  11.7243547 111.4454880  50.4002698
  12.4974423 110.8983867  50.2615573  12.0768946 112.3099129  50.6117159
  13.5628590 112.7731262  63.6069597  13.2718456 113.6776893  63.4916263
  14.1985574 112.8147790  64.3213667  14.4884797 110.1508111  60.1970957
  15.0848369 109.9264133  59.4827920  14.5459768 109.4092856  60.7996404
  14.0609825 107.6047546  48.0321148  14.3135346 107.0829067  47.2704611
  13.1234384 107.4413691  48.1347831  19.1053108 106.6083324  55.8395891
  19.8916197 106.1902747  55.4886308  19.3691812 107.5129416  56.0077539
  19.2763185 112.0456175  50.5384548  18.6409018 112.1190801  51.2505452
  18.9460592 112.6349773  49.8603627  24.5061535 106.5458557  56.7428869
  25.2386707 105.9757774  56.9766699  23.7500891 106.1580158  57.1835375
  13.7806114 109.5075652  50.2345523  13.6642372 108.8320555  50.9026607
  13.8908374 109.0208026  49.4177676  16.1237655 108.9685799  53.9392212
  15.7595862 108.4416420  54.6505133  16.9804771 108.5784268  53.7658697
  22.0286955 100.2580132  61.2023478  21.6970280 101.1275542  60.9784693
  21.4332569  99.9416416  61.8817508  15.7643142 103.9975699  48.9353560
  15.9317544 104.8655935  49.3024031  15.5740311 104.1602980  48.0114850
  18.5218475 112.4592678  60.6019391  18.2219198 113.3617716  60.4935198
  18.1769534 112.1924861  61.4540544  11.9730956 108.9106474  56.6356095
  11.0481453 108.7782688  56.8433787  12.2215369 109.6900694  57.1326037
  21.9215619 104.9775218  58.2816828  21.0132496 104.9090626  57.9875589
  21.8703214 105.4547163  59.1098653  15.7432363 106.4533356  49.9200227
  15.6231988 106.8990407  50.7585707  15.0484951 106.8018674  49.3613765
   9.3339767 108.5539748  57.4699884   9.4632148 108.8074227  58.3839296
   8.6537219 109.1467456  57.1504539  13.5039255 119.2236998  53.5690358
  13.4263284 120.1744823  53.6478839  12.9000898 118.8782870  54.2265285
  15.9956484 106.3964863  66.2251725  15.2189818 106.9558783  66.2154590
  16.6347047 106.8821646  66.7466595  23.7877265 103.1791656  60.0594702
  23.1451645 103.4724189  59.4134496  23.2832194 103.0644576  60.8647899
  21.4417429 106.9254829  50.7480561  22.3535285 107.1582216  50.5728259
  20.9327076 107.5091873  50.1855640  14.2502857 109.2050317  65.7869692
  14.9917541 109.7435361  65.5104516  13.5439842 109.8316605  65.9441244
  19.7258196 111.3479457  64.3841854  20.1341552 110.9061868  63.6396486
  19.0035458 110.7732085  64.6376047  16.0789266 106.2852064  61.7575411
  16.9250462 106.7091477  61.9010060  16.0187904 105.6285688  62.4513974
  20.0487011 111.9080648  58.1394143  19.4195873 112.0726362  57.4370210
  19.6612673 112.3222257  58.9105107  23.9276243 112.8435086  55.4938506
  23.2427281 113.2233987  54.9435540  24.0120092 113.4530412  56.2270454
  19.2288712 103.9456432  63.4156584  18.9849644 104.6998493  62.8790860
  19.5048642 104.3241780  64.2503831  21.1827174 110.4895045  62.0933850
  21.3944070 111.1326805  61.4168231  21.1356923 109.6557361  61.6255780
  18.7853403 103.1012865  58.9970422  17.9237882 103.3994119  59.2887160
  18.8115838 103.3183264  58.0651455  15.6014973 111.6455056  55.4044228
  16.0653318 111.9242759  54.6148850  15.3371771 110.7438500  55.2217318
  12.4939054 111.1926537  58.3423991  13.0640411 111.6213806  57.7041475
  13.0847166 110.9109122  59.0408177  14.5383859 107.7678208  52.2133793
  15.2407902 108.2199252  52.6807719  14.2064487 107.1262027  52.8413686
  12.9864220 106.3589965  66.5885002  12.3562881 107.0406246  66.8220399
  12.8800308 106.2473046  65.6438140   8.2809193 106.0261761  57.5150926
   7.4908247 106.2819289  57.0391037   8.7720440 106.8410099  57.6202967
  22.2973002 113.3667000  60.2656207  23.1190446 112.9647187  59.9838889
  22.2935405 113.2635234  61.2172323  10.2323938 106.3906340  54.4734403
   9.4355102 106.5025034  54.9917899  10.0049530 106.7292992  53.6075294
  16.0629606 112.9151043  62.4216918  16.1274038 113.3771451  63.2575090
  15.3540530 112.2848408  62.5499228   6.5646896 106.2792251  59.9465917
   6.8154934 107.1639261  60.2123493   7.1006444 106.0996853  59.1741009
  30.3878995 109.7105749  56.6141179  29.6342704 109.1413147  56.4585183
  30.5226537 109.6768413  57.5611813  15.7777624 114.5819151  52.2895898
  15.6423298 115.4270687  52.7180746  16.3187436 114.7838428  51.5261832
  12.2644963 100.6610731  68.9510253  11.8711909 100.1076929  69.6257898
  13.0811103 100.9721309  69.3416771   9.2307021 112.0994589  52.8623823
   9.7431541 112.8937839  53.0129388   9.8829734 111.4020879  52.7957425
  11.0401906 115.2160345  54.9446576  11.2168534 116.1378310  54.7567560
  11.8358739 114.9018764  55.3740956  15.1812924 102.0768610  66.5430510
  15.9222638 102.6775763  66.4634972  15.4130847 101.3346248  65.9848552
  10.3254262 107.2624977  64.8208740  10.2107777 106.3610234  65.1215838
   9.4698780 107.5088674  64.4693556  17.4046100 115.2042717  66.4196240
  16.9609954 114.4179096  66.1017145  18.0663313 115.3921868  65.7540131
  12.1633221 116.7338519  60.9456919  12.7140646 116.6055582  60.1733913
  11.3244697 117.0333408  60.5951811  19.5027338 115.4845517  64.4477641
  19.4845813 116.3054398  63.9557911  20.4247258 115.3599592  64.6727783
  15.9600392 112.9989647  65.2901150  16.4928729 112.2377935  65.0600458
  15.4314473 112.7063299  66.0325304  19.1270087  98.1049713  60.8194792
  18.7834356  98.9951354  60.7433902  19.4949050  97.9151370  59.9564377
   7.1955938 110.4283243  53.6383394   8.0331160 110.8380252  53.4217101
   7.3734205 109.4882685  53.6083588  19.0920370 108.0958324  49.3267227
  18.5766993 108.8662928  49.5655614  18.8197678 107.4223460  49.9500288
  16.6767481 102.9408025  54.3852465  15.8209077 102.5514875  54.2058104
  17.0894433 103.0199985  53.5252251  18.2066627 100.4754368  58.7844025
  17.7031423 100.4384503  57.9711830  18.4997234 101.3847111  58.8440681
  14.4509513 100.5593098  57.7910207  15.3162510 100.3635906  57.4316096
  14.5187022 100.3303449  58.7179563  24.0654644 110.8490678  51.2620400
  23.2884087 110.5101838  50.8175562  24.7446125 110.8543302  50.5875365
  18.8806673 105.9685416  51.1527008  18.5756809 106.2831565  52.0037151
  19.8337115 106.0466836  51.1954341  17.3253105 112.1275639  52.8019962
  16.7974466 111.3928399  52.4893199  16.8240608 112.9050316  52.5559930
  22.3045951 110.3224660  57.9187008  21.6469625 111.0123921  58.0067137
  23.1086350 110.7121092  58.2620994  12.0571832 102.7895306  55.1626573
  12.6315584 102.5670487  54.4299766  12.6442815 102.8584000  55.9155175
  21.1151410 108.6769032  55.9690950  21.6283291 109.3099024  56.4712660
  21.7652634 108.0770228  55.6034310  12.3841420 104.8199767  49.1822459
  11.5478732 105.1574453  49.5031733  12.2446189 104.6848746  48.2449596
  14.3594500  99.6636554  53.8901643  13.7058912  99.3485572  53.2658258
  14.3174974  99.0412295  54.6161466  15.4705705 109.9455849  45.8054935
  14.5632767 109.7145103  46.0046084  15.9676737 109.1493469  45.9928916
  18.3773784 118.6553357  48.7251621  17.7035483 118.9585053  49.3336579
  18.7639606 119.4582437  48.3757078  17.5932241 106.1518488  58.2149290
  16.6754802 106.3733435  58.0570978  18.0092384 106.2264798  57.3560998
  18.3767288 107.5509904  53.3451971  19.1239107 108.0631301  53.0359093
  18.6458878 107.2293956  54.2056364  16.6493938 110.0468444  50.3278925
  15.7405158 109.7627477  50.4251395  16.6789022 110.4667523  49.4682232
  21.8813206 113.6575034  54.0970092  21.4275533 112.8165944  54.1535283
  21.2507173 114.2936432  54.4344873  20.8246125 104.5867020  55.3270760
  20.0868882 104.0744406  55.6581003  21.0772899 104.1467401  54.5154037
  20.3246145 115.4951531  55.0319911  20.6169119 116.0556588  54.3132276
  20.8344766 115.7880092  55.7873070  20.9257753  97.3643272  55.9212529
  21.2316630  96.5040635  55.6338444  21.6510358  97.9560892  55.7211523
   7.2182109 107.7673958  54.3094127   7.0206509 107.1743319  53.5845194
   6.6628773 107.4626169  55.0270066  15.1978832 107.6597065  56.4288720
  15.2527442 106.7070901  56.3531197  14.3870035 107.8156504  56.9130019
  16.3470026 111.5877188  47.6667004  15.9089456 110.8713047  47.2072641
  17.0880467 111.8153303  47.1052095  13.1371192 106.2774125  54.1879099
  12.3239058 106.5768295  54.5944291  13.6330187 105.8829813  54.9053581
  15.2879770 116.2731882  56.1213364  15.2455949 116.4992728  55.1921896
  16.2042469 116.0395256  56.2699165  18.7345404 106.7415949  63.0193993
  19.0894792 106.9687422  63.8788459  19.3817535 107.0734326  62.3971248
  24.4643141 109.8634385  53.7243322  24.3261040 110.0535981  52.7964511
  24.1079360 110.6253768  54.1811373  12.6285267 103.8492480  59.8040334
  13.2684646 103.7081239  59.1063297  11.7962798 103.5626994  59.4278936
  24.4912521 111.9310912  58.7354594  24.9249027 111.8386201  59.5837648
  25.2044101 111.9068413  58.0974610  13.4045571 113.1494911  55.9175327
  14.1986170 112.6545231  55.7157902  12.6937263 112.6212774  55.5543032
  18.2240416 115.5313006  60.2687694  18.2777438 116.1003942  61.0365410
  17.3555197 115.7014891  59.9041731   9.7128335 107.2937992  51.9935079
   8.7825923 107.2322448  52.2105041   9.8085807 106.7713945  51.1971721
   9.6313884 103.8192805  54.5813321   9.8920701 104.7338138  54.4722481
  10.4531056 103.3517248  54.7309934  11.1038809 105.2330562  61.7512145
  11.7761862 105.0247925  61.1024794  10.2768595 105.0352648  61.3117378
  25.3528070 111.9734613  61.2687479  25.5463960 112.8780423  61.5146754
  25.2528688 111.5142032  62.1026064  17.0064381 101.8592503  63.7677806
  16.3592296 102.5582453  63.6742283  17.7765396 102.2928647  64.1354055
  20.4143179 112.1241355  66.8428360  20.2628685 111.8951907  65.9258443
  20.4047858 113.0811957  66.8559705  17.1828515 109.6973268  61.8274626
  18.1120575 109.8484428  61.6543593  16.7619545 109.7857289  60.9723273
  15.9816847 113.7223933  59.5973164  15.8427933 113.3542717  60.4699102
  15.1931443 114.2371572  59.4257121  16.5764999 118.8233029  50.9398700
  16.7516755 118.3521072  51.7544323  15.8897787 119.4498795  51.1679961
  17.5322062 113.1005535  56.9862001  17.1971895 113.0606305  57.8819651
  17.0326008 112.4350251  56.5132412  11.5066306 108.5073165  62.5114583
  11.3686104 107.7753404  63.1126122  12.4171230 108.4182065  62.2298770
  20.4681254 110.4461570  47.2599061  19.8510424 109.7208398  47.1632114
  19.9997742 111.2070930  46.9166135  14.1348607 108.2193125  61.9998262
  14.8448225 107.5786317  61.9584881  14.0917915 108.4706020  62.9224443
  22.1235386 115.1560478  64.9204841  22.0647932 114.4719698  64.2535424
  22.5254904 115.8979468  64.4685467  12.8477541 105.2058343  63.8193902
  12.3114898 104.7549081  64.4715498  12.2594249 105.3404251  63.0764366
  11.1426084 121.9722392  57.7138560  11.3822683 122.6040916  58.3917579
  10.2995281 121.6210432  58.0003920  12.2579800 104.6646994  46.3820365
  11.3809266 104.5435795  46.0182612  12.7337553 103.8733072  46.1299254
  22.1252793 113.1200062  63.1518821  21.2379572 112.7825984  63.2745220
  22.6951344 112.3883093  63.3887587   3.7781940 109.4524154  56.4761873
   4.4652980 109.1385884  55.8882888   3.6230069 110.3565518  56.2029124
   8.5816662 104.3414350  60.9046896   8.4974851 103.7340020  60.1697306
   7.7599368 104.8323369  60.9056393  15.6553946 117.7801514  60.1180064
  15.5824118 118.5856486  60.6299369  15.2131339 117.9793480  59.2928086
  15.4443726 117.0173284  53.6282886  14.6611248 117.5594965  53.7221110
  16.1436471 117.5347264  54.0277127  18.7540376 102.8267914  56.2717091
  19.2509075 102.0737876  55.9518162  17.9827357 102.8632230  55.7060301
  26.6070133 108.5308279  57.9135383  26.5960010 109.4132995  57.5429316
  25.7387513 108.1779830  57.7189920  18.1152630 117.6788348  62.2738223
  18.8280602 118.3135813  62.2014124  17.6242658 117.7752214  61.4578225
  19.8370157 111.5839601  53.8455515  18.9026435 111.7041063  53.6760219
  20.0146825 110.6812068  53.5815525  15.3375345 104.9685297  55.9988776
  14.9673132 104.4156337  56.6869681  15.8334437 104.3643430  55.4463776
  23.2242708 107.4256920  54.3805549  23.6903160 108.2584912  54.3065851
  23.6750208 106.9601902  55.0850807  13.1664543 115.4282792  63.0943794
  13.8674003 116.0619275  63.2473188  12.6959658 115.7697523  62.3339433
  21.2918939 113.7700742  51.3791701  21.5678783 113.6557336  52.2885575
  20.4223438 113.3718226  51.3403874  21.1959371  99.7937507  58.4196450
  20.2822451 100.0241734  58.5878657  21.6252472  99.8775951  59.2710483
  20.9665829 107.9827399  60.9196344  20.3137279 108.2303307  60.2648797
  21.3446209 107.1691537  60.5858821  17.9273003 118.0187092  55.0224514
  18.1095398 117.2008748  55.4852267  18.7505989 118.2354785  54.5849404
  18.2615169 116.9455278  52.2839563  18.7902935 116.4347732  51.6709725
  18.5243388 116.6297808  53.1485096  17.0153402 108.7247210  67.4062381
  16.3394039 108.6241340  68.0764756  17.8381036 108.5686424  67.8698378
   8.7632261 114.9619147  60.0274896   9.3485698 114.2162835  60.1602801
   8.5657100 115.2723104  60.9111560  11.6170917 117.9970394  55.0437339
  10.9481292 118.4816522  54.5601379  11.4783786 118.2439615  55.9580717
   3.3549916 107.5324747  58.7479340   3.3934016 106.9988338  59.5416458
   2.8490209 107.0059953  58.1290317  15.7576185 120.0314138  61.6419997
  16.3094493 120.1945759  62.4069082  16.0982379 120.6218576  60.9700022
  10.7340678 102.3789288  62.2441882  10.7982005 103.2404118  61.8319280
  10.6707799 101.7663289  61.5114240  10.2092951 104.4512420  65.8914916
  10.8364990 104.0689497  66.5052441   9.3520870 104.2326622  66.2570609
  20.6087059 114.8575395  67.4968652  21.1526963 115.4705354  67.0023606
  20.0273904 115.4154974  68.0135665   6.9858494 106.2588849  51.8233271
   7.2811935 105.3499528  51.7700325   6.0846529 106.2376589  51.5014273
  18.8944572 117.9796113  58.6283679  18.7695712 117.1785853  58.1194625
  19.5523663 118.4742307  58.1397649  10.5152741 104.3344846  57.8060820
   9.7939326 104.9480813  57.6668293  11.3045996 104.8702611  57.7277466
  20.9579481 115.7805133  60.2563229  20.0109816 115.6610485  60.1841556
  21.3062254 114.8927631  60.3389491  13.3179054 101.6699272  64.0801471
  13.8413456 101.9161569  64.8427781  13.0991387 102.5019307  63.6604609
   8.7146335 103.9402947  51.9472596   8.3859041 103.0600326  51.7647702
   9.0685706 103.8850616  52.8348985  17.9625914 115.5757850  56.4567582
  17.8150876 114.6474557  56.6375152  18.7879408 115.5977940  55.9724657
  11.8288158 104.2275917  52.3148074  12.1684231 104.7561838  51.5926682
  12.2760279 104.5656323  53.0906640  21.5660036 116.3986408  57.5432454
  22.4906583 116.1929270  57.4056906  21.3975339 116.1502809  58.4521796
  14.5231599 102.6112967  61.7651142  14.1828420 101.8120780  62.1671822
  13.8170605 102.9114678  61.1927975  15.1748071  99.6962280  60.2178465
  15.9974140  99.2222758  60.0957355  15.4186135 100.4752764  60.7177151
  13.8156306 102.7250538  50.5141367  14.5364668 103.1031791  50.0105083
  13.1921610 103.4439415  50.6176345  17.9587428 103.4295687  51.4499699
  18.1751043 104.3120325  51.1488527  17.4781496 103.0381901  50.7205341
  12.6986650 106.3881400  58.0270444  12.5531230 106.7021704  58.9194725
  12.2211853 107.0066301  57.4741342  14.5583033 103.3783948  58.0751333
  14.5444601 102.4825042  57.7383631  15.2755461 103.3854612  58.7089619
  16.4109163 103.8121289  60.1204461  16.1526941 104.7338359  60.1188791
  15.8794204 103.4151723  60.8104925  21.3555352 116.9172076  52.8994546
  21.5292230 116.3518498  52.1468398  21.8484243 117.7172971  52.7174036
   7.1732312 108.9286745  60.9658105   6.6285780 109.7046553  61.0978379
   8.0511662 109.2757549  60.8077226  13.9619929 102.2598329  53.3438903
  14.0835840 101.3314975  53.5429791  13.6721971 102.2737015  52.4317219
  16.8311119  99.9453239  56.4805623  16.8532816 100.0092572  55.5257603
  17.2479178  99.1057748  56.6746129  27.2094743 109.6808499  54.5184846
  27.6525889 108.9315824  54.1203969  26.3321254 109.6718635  54.1358578
  22.3430525 116.2338840  49.9991444  23.0381429 116.8545533  50.2178759
  22.6853675 115.3834191  50.2743822   7.9598334 108.0556641  63.8588262
   7.2180070 108.2039276  64.4452892   7.6391078 108.3164907  62.9955011
  24.2421948 113.6838546  51.5278775  24.7673272 114.0225818  50.8028095
  24.1544300 112.7485561  51.3441910  15.9041996 117.5972619  63.6568652
  16.2129123 117.3521766  64.5291351  16.7017478 117.8019258  63.1687522
  15.9262608 119.7510529  55.8874028  15.4867599 119.2586908  56.5806885
  16.6770725 119.2083497  55.6466103   8.4054947 115.9422070  55.8898656
   9.2312967 115.6425842  55.5097300   8.0548999 115.1729692  56.3388445
  13.3736481 115.2948538  57.9596330  12.7516490 114.6319243  57.6598558
  14.0441348 115.3209670  57.2769978   6.6063553 113.8608396  56.8487590
   5.7695461 113.4330571  56.6671591   6.5787198 114.0540840  57.7858381
  13.4461008 103.7730326  67.5528836  13.4949164 104.6492449  67.1706605
  13.9883522 103.2307719  66.9800479  23.9315854 114.3171449  66.8329973
  23.1411398 114.2995588  66.2934472  23.6949208 114.8559743  67.5879010
  24.0513729 111.1663916  64.1462701  24.1011734 111.0013923  65.0878224
  23.9427652 110.2991175  63.7560582  12.9349988 113.8452461  51.4354790
  13.0838108 114.5287926  50.7821463  13.7416431 113.8257551  51.9504246
  21.3417491 107.1494844  65.4622008  22.2427354 107.0101309  65.1706006
  21.4165466 107.3149299  66.4020186  15.6760297 104.5261698  64.3075194
  14.8063606 104.8195265  64.0357783  15.9119777 105.1102143  65.0282458
  25.5531926 113.5860857  64.3904723  25.2616734 113.9490838  65.2268184
  24.9404057 112.8727866  64.2118055  26.7527608 111.1513737  56.9107293
  27.5874499 111.5903541  57.0744854  26.8886737 110.6752390  56.0915539
  23.8019114 108.7093472  62.8584781  24.2773236 108.9021118  62.0503632
  22.8784679 108.7652658  62.6128165  10.6902621 109.8717639  52.4415859
  10.4448662 108.9679969  52.6396069  10.8598535 109.8734789  51.4995337
  18.3799330 100.7441315  61.8240615  18.8981274 101.4802342  61.4987103
  18.0254463 101.0505309  62.6587374   9.9598268 105.6045997  49.9402021
   9.2667513 105.6790352  49.2842057   9.7150020 104.8406340  50.4623538
  18.6311925  97.1641598  57.3441511  18.9113678  96.4964787  57.9701938
  19.4162531  97.3570694  56.8316175  16.4345393 116.3400592  48.9066538
  15.8619360 116.9590779  48.4537010  17.0078187 116.8899954  49.4406460
  22.5020783 105.5859232  61.0913087  23.4538206 105.6857330  61.1125311
  22.3324233 104.7937500  61.6011171  20.5235162 102.6714815  61.2772488
  19.9285094 102.9519828  60.5818976  20.2384859 103.1608716  62.0489229
  19.6542653 116.6237742  50.0375120  20.5873326 116.5583304  50.2407996
  19.5665866 117.4594009  49.5789653  22.2830670 115.9403612  46.9979068
  22.2044301 115.6063476  47.8914826  23.1040336 116.4325380  46.9970540
  24.9808861 108.8065352  60.2055386  24.9485181 107.8681352  60.3915070
  25.5909484 108.8849388  59.4721211  16.8192192 107.6761405  46.2482590
  17.7651296 107.5467613  46.3171008  16.4406437 106.9376067  46.7252018
  25.1303349 105.5976395  60.2513669  24.6142398 104.8134852  60.0643598
  26.0143298 105.2695112  60.4160189  22.7914076  99.3417411  56.2109482
  22.5938897  99.0332499  57.0952814  23.4013782 100.0679050  56.3407412
  30.7985411 109.8681358  59.3461423  31.5288799 109.6066647  59.9069126
  30.1892356 109.1310080  59.3863491  28.8800708 108.0089221  59.9435874
  28.1533871 107.8745186  59.3352366  28.4647995 108.3166050  60.7492592
  16.7030884 111.7279151  67.7083247  17.6233894 111.9057750  67.9023294
  16.6680467 110.7835196  67.5562947  15.0035109 105.6011381  46.1837476
  14.0966564 105.3044494  46.2600189  15.2811090 105.3041199  45.3171762
   5.9213049 106.9217744  56.6336522   5.6015833 106.0683053  56.3410896
   5.3746477 107.1366323  57.3894489   9.6992957 109.6380185  60.3506028
   9.9178966 110.5697293  60.3694062  10.1118730 109.2788160  61.1360832
  16.6197174 100.1448271  52.3381717  15.8097903  99.7995356  52.7136963
  17.3081591  99.8355814  52.9269328  18.5487723  99.2226318  53.9606013
  19.1018761  99.6421771  54.6196037  18.7857809  98.2962066  54.0028969
  14.5720822 105.2113391  69.7408777  14.4717549 106.1607748  69.6720868
  14.3542364 104.8831630  68.8684847  13.7733893 102.4598316  46.3249455
  14.6353057 102.7853215  46.5845272  13.9584237 101.6729812  45.8122521
   5.7901309 110.5420656  58.6029643   5.0964781 110.1274609  58.0899598
   6.5374300 110.5841192  58.0063062  21.9266530 101.3326843  53.4684678
  21.3465199 101.9911647  53.0862730  21.6602463 100.5104187  53.0572095
  20.3770096 100.7331900  55.6705998  20.8769875 100.8448435  54.8620317
  21.0205704 100.4292953  56.3106806  14.4352092 108.6410530  68.5573839
  13.9519174 109.4410890  68.7637728  14.5213031 108.6518475  67.6041283
   7.7038052 110.4738910  56.4795658   7.6808740 110.5726597  55.5277541
   8.0138688 111.3204060  56.8012825  10.3625430 112.5315065  60.5942273
  11.3168683 112.4999007  60.5272204  10.1637953 112.0705688  61.4092499
  10.9524812 111.1016181  63.1613070  11.7717701 111.5960259  63.1847908
  11.2261619 110.1848149  63.1330638  20.7091408 103.4926933  52.5241026
  19.8217263 103.7776584  52.3061221  21.1245397 103.3320696  51.6768303
  24.0605944 103.5173454  56.2395365  24.8366334 104.0069906  56.5119982
  23.3354078 103.9431508  56.6967235  26.4978503 104.2301073  57.2969306
  27.0922993 103.9896809  56.5862614  26.5705086 103.5108204  57.9242842
   8.7175658 118.0734684  57.6112471   8.5830126 117.3135085  57.0450469
   8.3007721 118.7975584  57.1441260  19.8534621 113.2571608  46.6189046
  20.5570471 113.4621610  47.2346702  19.1297270 113.8248370  46.8838129
  20.6832432 109.0081469  52.7391316  20.6267633 109.4650020  51.8998949
  21.2360774 108.2472154  52.5614159  24.4937237 104.7971201  53.5641436
  24.2374172 104.3967837  54.3949643  23.8690106 105.5114995  53.4391575
  28.8049575 107.5367274  56.0712727  28.2449133 107.6060463  56.8444289
  28.1993079 107.3608259  55.3512223  11.8744784 118.9704001  57.8230913
  11.7577168 119.9149434  57.7209604  11.0537230 118.6677563  58.2116713
  21.7621319 113.6954137  48.6687506  22.5966923 113.2635335  48.4864981
  21.6005662 113.5236151  49.5964400  21.4167211 110.1986250  50.0343845
  21.3616015 110.0330522  49.0932289  20.7913266 110.9062283  50.1906035
   6.2059726 105.4354315  63.8605268   6.8518589 104.9253269  64.3492493
   5.9976877 106.1722996  64.4348693  18.7313118 112.5035162  69.3597408
  19.6004278 112.6775814  68.9984043  18.2519870 113.3229579  69.2373137
  14.7263336  99.6994359  49.6129164  14.7142006 100.6436199  49.7697435
  15.6186758  99.5164505  49.3188625  12.8999298 119.6232263  61.0386842
  13.8026545 119.6555873  61.3553337  12.6736668 118.6932714  61.0533178
  14.6552900 118.3763250  57.6996920  13.7048531 118.3765111  57.5861293
  14.9585386 117.6295984  57.1832955  18.5415456  96.2937136  53.8675101
  17.7747852  95.7395623  54.0131783  18.9526161  96.3659005  54.7289252
  10.5457217 102.5821932  67.9580282  11.4088678 102.2258737  68.1683606
   9.9722628 102.2435827  68.6455686  30.3905594 124.2123788  58.7642683
  31.0284004 124.0930535  58.0606023  30.2726437 125.1604632  58.8230635
  27.1995300 124.1651216  58.7004207  26.8613812 124.0492281  57.8124742
  28.0685068 123.7642381  58.6805214  23.0582116 126.0186693  54.6901098
  22.4946981 125.9276629  53.9217386  22.9434511 125.1986597  55.1703591
  27.6815083 125.3186068  64.6590413  27.6703724 124.9238866  63.7870917
  27.8435723 124.5852140  65.2524184  20.6046548 127.5137884  57.5285319
  21.3967840 127.1728709  57.1131618  20.8443198 127.6232859  58.4487472
  22.5637302 126.7746797  50.4002698  23.3368178 126.2275784  50.2615573
  22.9162701 127.6391047  50.6117159  25.3278551 125.4800028  60.1970957
  25.9242123 125.2556051  59.4827920  25.3853523 124.7384774  60.7996404
  24.9003579 122.9339464  48.0321148  25.1529100 122.4120985  47.2704611
  23.9628139 122.7705609  48.1347831  29.9446862 121.9375242  55.8395891
  30.7309952 121.5194665  55.4886308  30.2085567 122.8421334  56.0077539
  30.1156940 127.3748092  50.5384548  29.4802773 127.4482719  51.2505452
  29.7854346 127.9641691  49.8603627  35.3455289 121.8750475  56.7428869
  36.0780461 121.3049692  56.9766699  34.5894645 121.4872076  57.1835375
  24.6199868 124.8367569  50.2345523  24.5036126 124.1612473  50.9026607
  24.7302128 124.3499943  49.4177676  26.9631409 124.2977717  53.9392212
  26.5989616 123.7708338  54.6505133  27.8198525 123.9076186  53.7658697
  32.8680710 115.5872049  61.2023478  32.5364035 116.4567460  60.9784693
  32.2726323 115.2708333  61.8817508  26.6036896 119.3267616  48.9353560
  26.7711298 120.1947853  49.3024031  26.4134065 119.4894898  48.0114850
  29.3612229 127.7884595  60.6019391  29.0612952 128.6909634  60.4935198
  29.0163289 127.5216778  61.4540544  22.8124711 124.2398392  56.6356095
  21.8875207 124.1074606  56.8433787  23.0609124 125.0192611  57.1326037
  32.7609373 120.3067135  58.2816828  31.8526250 120.2382544  57.9875589
  32.7096969 120.7839080  59.1098653  26.5826117 121.7825274  49.9200227
  26.4625742 122.2282325  50.7585707  25.8878705 122.1310591  49.3613765
  20.1733522 123.8831666  57.4699884  20.3025903 124.1366145  58.3839296
  19.4930973 124.4759374  57.1504539  26.8350239 121.7256781  66.2251725
  26.0583573 122.2850701  66.2154590  27.4740802 122.2113564  66.7466595
  34.6271019 118.5083574  60.0594702  33.9845400 118.8016107  59.4134496
  34.1225948 118.3936494  60.8647899  32.2811183 122.2546747  50.7480561
  33.1929039 122.4874134  50.5728259  31.7720830 122.8383791  50.1855640
  25.0896611 124.5342234  65.7869692  25.8311296 125.0727278  65.5104516
  24.3833597 125.1608523  65.9441244  30.5651951 126.6771375  64.3841854
  30.9735307 126.2353785  63.6396486  29.8429212 126.1024002  64.6376047
  26.9183021 121.6143982  61.7575411  27.7644216 122.0383395  61.9010060
  26.8581659 120.9577606  62.4513974  30.8880765 127.2372565  58.1394143
  30.2589628 127.4018280  57.4370210  30.5006428 127.6514175  58.9105107
  34.7669997 128.1727003  55.4938506  34.0821036 128.5525905  54.9435540
  34.8513847 128.7822330  56.2270454  30.0682466 119.2748350  63.4156584
  29.8243398 120.0290410  62.8790860  30.3442397 119.6533698  64.2503831
  32.0220929 125.8186962  62.0933850  32.2337824 126.4618722  61.4168231
  31.9750677 124.9849279  61.6255780  29.6247158 118.4304783  58.9970422
  28.7631637 118.7286037  59.2887160  29.6509593 118.6475182  58.0651455
  26.4408727 126.9746974  55.4044228  26.9047073 127.2534676  54.6148850
  26.1765525 126.0730418  55.2217318  23.3332808 126.5218455  58.3423991
  23.9034165 126.9505723  57.7041475  23.9240920 126.2401040  59.0408177
  25.3777613 123.0970126  52.2133793  26.0801657 123.5491170  52.6807719
  25.0458242 122.4553945  52.8413686  23.8257975 121.6881882  66.5885002
  23.1956635 122.3698163  66.8220399  23.7194063 121.5764964  65.6438140
  19.1202947 121.3553679  57.5150926  18.3302001 121.6111207  57.0391037
  19.6114195 122.1702016  57.6202967  33.1366757 128.6958918  60.2656207
  33.9584201 128.2939105  59.9838889  33.1329160 128.5927152  61.2172323
  21.0717693 121.7198258  54.4734403  20.2748856 121.8316952  54.9917899
  20.8443285 122.0584910  53.6075294  26.9023360 128.2442961  62.4216918
  26.9667793 128.7063368  63.2575090  26.1934284 127.6140326  62.5499228
  17.4040650 121.6084169  59.9465917  17.6548689 122.4931179  60.2123493
  17.9400199 121.4288771  59.1741009  41.2272750 125.0397666  56.6141179
  40.4736458 124.4705064  56.4585183  41.3620291 125.0060331  57.5611813
  23.1038718 115.9902648  68.9510253  22.7105663 115.4368847  69.6257898
  23.9204858 116.3013227  69.3416771  26.0206679 117.4060527  66.5430510
  26.7616392 118.0067681  66.4634972  26.2524601 116.6638165  65.9848552
  21.1648017 122.5916895  64.8208740  21.0501532 121.6902152  65.1215838
  20.3092534 122.8380591  64.4693556  26.7994147 128.3281564  65.2901150
  27.3322483 127.5669853  65.0600458  26.2708228 128.0355216  66.0325304
  29.9663842 113.4341630  60.8194792  29.6228111 114.3243272  60.7433902
  30.3342804 113.2443288  59.9564377  18.0349692 125.7575161  53.6383394
  18.8724914 126.1672169  53.4217101  18.2127960 124.8174603  53.6083588
  29.9314124 123.4250241  49.3267227  29.4160748 124.1954846  49.5655614
  29.6591433 122.7515378  49.9500288  27.5161235 118.2699942  54.3852465
  26.6602832 117.8806793  54.2058104  27.9288187 118.3491903  53.5252251
  29.0460382 115.8046286  58.7844025  28.5425178 115.7676421  57.9711830
  29.3390989 116.7139028  58.8440681  25.2903268 115.8885015  57.7910207
  26.1556265 115.6927824  57.4316096  25.3580777 115.6595367  58.7179563
  34.9048398 126.1782596  51.2620400  34.1277841 125.8393756  50.8175562
  35.5839879 126.1835219  50.5875365  29.7200427 121.2977334  51.1527008
  29.4150563 121.6123483  52.0037151  30.6730870 121.3758753  51.1954341
  28.1646859 127.4567557  52.8019962  27.6368221 126.7220316  52.4893199
  27.6634362 128.2342233  52.5559930  33.1439705 125.6516577  57.9187008
  32.4863380 126.3415839  58.0067137  33.9480105 126.0413009  58.2620994
  22.8965587 118.1187223  55.1626573  23.4709339 117.8962405  54.4299766
  23.4836569 118.1875918  55.9155175  31.9545164 124.0060950  55.9690950
  32.4677046 124.6390942  56.4712660  32.6046388 123.4062146  55.6034310
  23.2235174 120.1491684  49.1822459  22.3872486 120.4866371  49.5031733
  23.0839944 120.0140664  48.2449596  25.1988255 114.9928472  53.8901643
  24.5452667 114.6777489  53.2658258  25.1568729 114.3704213  54.6161466
  26.3099459 125.2747767  45.8054935  25.4026521 125.0437021  46.0046084
  26.8070491 124.4785386  45.9928916  28.4325995 121.4810406  58.2149290
  27.5148556 121.7025353  58.0570978  28.8486139 121.5556716  57.3560998
  29.2161043 122.8801821  53.3451971  29.9632862 123.3923219  53.0359093
  29.4852632 122.5585874  54.2056364  27.4887693 125.3760362  50.3278925
  26.5798912 125.0919395  50.4251395  27.5182777 125.7959441  49.4682232
  32.7206960 128.9866952  54.0970092  32.2669287 128.1457861  54.1535283
  32.0900927 129.6228350  54.4344873  31.6639880 119.9158938  55.3270760
  30.9262637 119.4036324  55.6581003  31.9166653 119.4759319  54.5154037
  31.1639900 130.8243448  55.0319911  31.4562874 131.3848505  54.3132276
  31.6738520 131.1172009  55.7873070  31.7651507 112.6935190  55.9212529
  32.0710384 111.8332553  55.6338444  32.4904112 113.2852810  55.7211523
  18.0575863 123.0965876  54.3094127  17.8600263 122.5035237  53.5845194
  17.5022527 122.7918086  55.0270066  26.0372587 122.9888983  56.4288720
  26.0921197 122.0362819  56.3531197  25.2263789 123.1448422  56.9130019
  27.1863781 126.9169106  47.6667004  26.7483211 126.2004965  47.2072641
  27.9274222 127.1445221  47.1052095  23.9764947 121.6066042  54.1879099
  23.1632812 121.9060213  54.5944291  24.4723941 121.2121731  54.9053581
  29.5739159 122.0707867  63.0193993  29.9288546 122.2979340  63.8788459
  30.2211290 122.4026244  62.3971248  35.3036896 125.1926303  53.7243322
  35.1654794 125.3827899  52.7964511  34.9473114 125.9545686  54.1811373
  23.4679022 119.1784398  59.8040334  24.1078401 119.0373157  59.1063297
  22.6356552 118.8918911  59.4278936  35.3306275 127.2602830  58.7354594
  35.7642782 127.1678119  59.5837648  36.0437856 127.2360330  58.0974610
  24.2439326 128.4786828  55.9175327  25.0379924 127.9837148  55.7157902
  23.5331018 127.9504691  55.5543032  20.5522089 122.6229910  51.9935079
  19.6219677 122.5614366  52.2105041  20.6479561 122.1005863  51.1971721
  20.4707638 119.1484723  54.5813321  20.7314455 120.0630056  54.4722481
  21.2924810 118.6809165  54.7309934  21.9432563 120.5622480  61.7512145
  22.6155617 120.3539842  61.1024794  21.1162350 120.3644566  61.3117378
  36.1921825 127.3026530  61.2687479  36.3857715 128.2072341  61.5146754
  36.0922443 126.8433949  62.1026064  27.8458135 117.1884421  63.7677806
  27.1986050 117.8874371  63.6742283  28.6159151 117.6220565  64.1354055
  31.2536933 127.4533273  66.8428360  31.1022440 127.2243825  65.9258443
  31.2441613 128.4103875  66.8559705  28.0222270 125.0265186  61.8274626
  28.9514330 125.1776345  61.6543593  27.6013300 125.1149207  60.9723273
  28.3715817 128.4297453  56.9862001  28.0365649 128.3898223  57.8819651
  27.8719762 127.7642169  56.5132412  22.3460061 123.8365083  62.5114583
  22.2079859 123.1045322  63.1126122  23.2564984 123.7473983  62.2298770
  31.3075008 125.7753487  47.2599061  30.6904179 125.0500316  47.1632114
  30.8391497 126.5362848  46.9166135  24.9742361 123.5485042  61.9998262
  25.6841980 122.9078235  61.9584881  24.9311669 123.7997937  62.9224443
  32.9629140 130.4852396  64.9204841  32.9041686 129.8011616  64.2535424
  33.3648658 131.2271386  64.4685467  23.6871295 120.5350260  63.8193902
  23.1508652 120.0840999  64.4715498  23.0988004 120.6696169  63.0764366
  23.0973554 119.9938912  46.3820365  22.2203021 119.8727712  46.0182612
  23.5731307 119.2024990  46.1299254  32.9646547 128.4491980  63.1518821
  32.0773326 128.1117901  63.2745220  33.5345098 127.7175011  63.3887587
  19.4210417 119.6706268  60.9046896  19.3368605 119.0631937  60.1697306
  18.5993123 120.1615286  60.9056393  29.5934130 118.1559831  56.2717091
  30.0902830 117.4029794  55.9518162  28.8221112 118.1924148  55.7060301
  37.4463888 123.8600197  57.9135383  37.4353764 124.7424912  57.5429316
  36.5781267 123.5071748  57.7189920  30.6763911 126.9131519  53.8455515
  29.7420190 127.0332981  53.6760219  30.8540580 126.0103985  53.5815525
  26.1769099 120.2977214  55.9988776  25.8066887 119.7448255  56.6869681
  26.6728192 119.6935348  55.4463776  34.0636462 122.7548838  54.3805549
  34.5296915 123.5876830  54.3065851  34.5143963 122.2893820  55.0850807
  32.1312694 129.0992659  51.3791701  32.4072537 128.9849254  52.2885575
  31.2617192 128.7010144  51.3403874  32.0353125 115.1229425  58.4196450
  31.1216205 115.3533652  58.5878657  32.4646227 115.2067869  59.2710483
  31.8059584 123.3119317  60.9196344  31.1531034 123.5595224  60.2648797
  32.1839964 122.4983455  60.5858821  27.8547157 124.0539128  67.4062381
  27.1787794 123.9533257  68.0764756  28.6774791 123.8978342  67.8698378
  14.1943671 122.8616665  58.7479340  14.2327770 122.3280255  59.5416458
  13.6883963 122.3351870  58.1290317  21.5734433 117.7081205  62.2441882
  21.6375759 118.5696036  61.8319280  21.5101553 117.0955207  61.5114240
  21.0486705 119.7804338  65.8914916  21.6758744 119.3981415  66.5052441
  20.1914624 119.5618540  66.2570609  31.4480814 130.1867313  67.4968652
  31.9920718 130.7997271  67.0023606  30.8667659 130.7446891  68.0135665
  17.8252248 121.5880767  51.8233271  18.1205689 120.6791445  51.7700325
  16.9240284 121.5668506  51.5014273  21.3546495 119.6636763  57.8060820
  20.6333081 120.2772731  57.6668293  22.1439751 120.1994528  57.7277466
  31.7973235 131.1097051  60.2563229  30.8503571 130.9902402  60.1841556
  32.1456008 130.2219549  60.3389491  24.1572809 116.9991190  64.0801471
  24.6807210 117.2453486  64.8427781  23.9385142 117.8311225  63.6604609
  19.5540090 119.2694865  51.9472596  19.2252796 118.3892243  51.7647702
  19.9079460 119.2142533  52.8348985  22.6681913 119.5567834  52.3148074
  23.0077985 120.0853756  51.5926682  23.1154033 119.8948240  53.0906640
  32.4053790 131.7278326  57.5432454  33.3300338 131.5221187  57.4056906
  32.2369094 131.4794727  58.4521796  25.3625354 117.9404885  61.7651142
  25.0222174 117.1412698  62.1671822  24.6564360 118.2406596  61.1927975
  26.0141825 115.0254197  60.2178465  26.8367895 114.5514676  60.0957355
  26.2579889 115.8044681  60.7177151  24.6550060 118.0542456  50.5141367
  25.3758422 118.4323709  50.0105083  24.0315364 118.7731333  50.6176345
  28.7981183 118.7587605  51.4499699  29.0144797 119.6412243  51.1488527
  28.3175250 118.3673818  50.7205341  23.5380404 121.7173318  58.0270444
  23.3924985 122.0313621  58.9194725  23.0605608 122.3358218  57.4741342
  25.3976787 118.7075866  58.0751333  25.3838356 117.8116959  57.7383631
  26.1149215 118.7146530  58.7089619  27.2502918 119.1413206  60.1204461
  26.9920696 120.0630277  60.1188791  26.7187958 118.7443641  60.8104925
  18.0126066 124.2578663  60.9658105  17.4679534 125.0338470  61.0978379
  18.8905416 124.6049467  60.8077226  24.8013683 117.5890246  53.3438903
  24.9229594 116.6606893  53.5429791  24.5115725 117.6028932  52.4317219
  27.6704873 115.2745157  56.4805623  27.6926570 115.3384490  55.5257603
  28.0872932 114.4349665  56.6746129  38.0488498 125.0100416  54.5184846
  38.4919644 124.2607742  54.1203969  37.1715008 125.0010553  54.1358578
  33.1824279 131.5630758  49.9991444  33.8775184 132.1837451  50.2178759
  33.5247429 130.7126109  50.2743822  18.7992088 123.3848559  63.8588262
  18.0573824 123.5331194  64.4452892  18.4784833 123.6456824  62.9955011
  35.0815702 129.0130463  51.5278775  35.6067026 129.3517736  50.8028095
  34.9938055 128.0777479  51.3441910  24.2854763 119.1022244  67.5528836
  24.3342918 119.9784367  67.1706605  24.8277277 118.5599637  66.9800479
  34.7709608 129.6463367  66.8329973  33.9805152 129.6287506  66.2934472
  34.5342963 130.1851661  67.5879010  34.8907483 126.4955833  64.1462701
  34.9405488 126.3305841  65.0878224  34.7821407 125.6283092  63.7560582
  32.1811246 122.4786761  65.4622008  33.0821108 122.3393226  65.1706006
  32.2559220 122.6441216  66.4020186  26.5154051 119.8553616  64.3075194
  25.6457360 120.1487182  64.0357783  26.7513531 120.4394061  65.0282458
  36.3925680 128.9152775  64.3904723  36.1010488 129.2782755  65.2268184
  35.7797811 128.2019783  64.2118055  37.5921362 126.4805655  56.9107293
  38.4268254 126.9195459  57.0744854  37.7280491 126.0044308  56.0915539
  34.6412868 124.0385390  62.8584781  35.1166990 124.2313036  62.0503632
  33.7178434 124.0944575  62.6128165  21.5296375 125.2009557  52.4415859
  21.2842417 124.2971887  52.6396069  21.6992290 125.2026707  51.4995337
  29.2193085 116.0733233  61.8240615  29.7375029 116.8094260  61.4987103
  28.8648218 116.3797226  62.6587374  20.7992023 120.9337914  49.9402021
  20.1061267 121.0082269  49.2842057  20.5543774 120.1698258  50.4623538
  29.4705679 112.4933516  57.3441511  29.7507433 111.8256705  57.9701938
  30.2556286 112.6862611  56.8316175  33.3414537 120.9151150  61.0913087
  34.2931960 121.0149247  61.1125311  33.1717988 120.1229418  61.6011171
  31.3628917 118.0006733  61.2772488  30.7678849 118.2811746  60.5818976
  31.0778614 118.4900634  62.0489229  33.1224424 131.2695530  46.9979068
  33.0438056 130.9355394  47.8914826  33.9434091 131.7617298  46.9970540
  35.8202615 124.1357269  60.2055386  35.7878935 123.1973270  60.3915070
  36.4303239 124.2141306  59.4721211  27.6585946 123.0053322  46.2482590
  28.6045051 122.8759530  46.3171008  27.2800191 122.2667984  46.7252018
  35.9697104 120.9268313  60.2513669  35.4536152 120.1426769  60.0643598
  36.8537052 120.5987029  60.4160189  33.6307831 114.6709328  56.2109482
  33.4332652 114.3624416  57.0952814  34.2407536 115.3970967  56.3407412
  41.6379165 125.1973276  59.3461423  42.3682554 124.9358564  59.9069126
  41.0286111 124.4601998  59.3863491  39.7194462 123.3381139  59.9435874
  38.9927626 123.2037104  59.3352366  39.3041749 123.6457967  60.7492592
  27.5424639 127.0571068  67.7083247  28.4627648 127.2349667  67.9023294
  27.5074222 126.1127114  67.5562947  25.8428863 120.9303299  46.1837476
  24.9360319 120.6336411  46.2600189  26.1204844 120.6333117  45.3171762
  16.7606804 122.2509662  56.6336522  16.4409588 121.3974970  56.3410896
  16.2140232 122.4658240  57.3894489  20.5386711 124.9672103  60.3506028
  20.7572721 125.8989211  60.3694062  20.9512485 124.6080077  61.1360832
  27.4590929 115.4740188  52.3381717  26.6491657 115.1287273  52.7136963
  28.1475346 115.1647732  52.9269328  29.3881477 114.5518235  53.9606013
  29.9412516 114.9713689  54.6196037  29.6251564 113.6253983  54.0028969
  25.4114576 120.5405309  69.7408777  25.3111303 121.4899666  69.6720868
  25.1936118 120.2123548  68.8684847  24.6127648 117.7890234  46.3249455
  25.4746812 118.1145132  46.5845272  24.7977992 117.0021730  45.8122521
  16.6295064 125.8712574  58.6029643  15.9358535 125.4566526  58.0899598
  17.3768055 125.9133110  58.0063062  32.7660284 116.6618760  53.4684678
  32.1858953 117.3203564  53.0862730  32.4996217 115.8396105  53.0572095
  31.2163851 116.0623818  55.6705998  31.7163629 116.1740353  54.8620317
  31.8599459 115.7584871  56.3106806  25.2745847 123.9702448  68.5573839
  24.7912928 124.7702808  68.7637728  25.3606786 123.9810393  67.6041283
  18.5431806 125.8030827  56.4795658  18.5202494 125.9018515  55.5277541
  18.8532443 126.6495978  56.8012825  21.7918566 126.4308098  63.1613070
  22.6111455 126.9252177  63.1847908  22.0655374 125.5140067  63.1330638
  31.5485162 118.8218851  52.5241026  30.6611017 119.1068501  52.3061221
  31.9639151 118.6612614  51.6768303  34.8999698 118.8465372  56.2395365
  35.6760089 119.3361824  56.5119982  34.1747833 119.2723426  56.6967235
  37.3372257 119.5592991  57.2969306  37.9316748 119.3188727  56.5862614
  37.4098841 118.8400121  57.9242842  30.6928376 128.5863525  46.6189046
  31.3964226 128.7913528  47.2346702  29.9691025 129.1540287  46.8838129
  31.5226186 124.3373387  52.7391316  31.4661387 124.7941938  51.8998949
  32.0754529 123.5764071  52.5614159  35.3330992 120.1263119  53.5641436
  35.0767926 119.7259754  54.3949643  34.7083860 120.8406912  53.4391575
  39.6443330 122.8659192  56.0712727  39.0842888 122.9352381  56.8444289
  39.0386833 122.6900176  55.3512223  32.6015073 129.0246055  48.6687506
  33.4360677 128.5927253  48.4864981  32.4399416 128.8528068  49.5964400
  32.2560965 125.5278168  50.0343845  32.2009769 125.3622439  49.0932289
  31.6307021 126.2354201  50.1906035  17.0453480 120.7646232  63.8605268
  17.6912344 120.2545186  64.3492493  16.8370631 121.5014914  64.4348693
  29.5706873 127.8327080  69.3597408  30.4398032 128.0067732  68.9984043
  29.0913624 128.6521497  69.2373137  25.5657091 115.0286277  49.6129164
  25.5535761 115.9728117  49.7697435  26.4580513 114.8456422  49.3188625
  29.3809210 111.6229054  53.8675101  28.6141606 111.0687540  54.0131783
  29.7919915 111.6950922  54.7289252  21.3850971 117.9113849  67.9580282
  22.2482433 117.5550654  68.1683606  20.8116382 117.5727744  68.6455686
  43.7074464 130.9163967  61.2023478  43.3757789 131.7859378  60.9784693
  43.1120078 130.6000251  61.8817508  45.4664774 133.8375491  60.0594702
  44.8239154 134.1308025  59.4134496  44.9619703 133.7228412  60.8647899
  40.4640912 133.7596701  58.9970422  39.6025391 134.0577954  59.2887160
  40.4903347 133.9767100  58.0651455  33.9432472 131.3194566  68.9510253
  33.5499418 130.7660765  69.6257898  34.7598612 131.6305144  69.3416771
  36.8600433 132.7352445  66.5430510  37.6010146 133.3359598  66.4634972
  37.0918356 131.9930083  65.9848552  40.8057596 128.7633548  60.8194792
  40.4621865 129.6535190  60.7433902  41.1736559 128.5735206  59.9564377
  38.3554990 133.5991860  54.3852465  37.4996586 133.2098710  54.2058104
  38.7681942 133.6783821  53.5252251  39.8854136 131.1338203  58.7844025
  39.3818932 131.0968338  57.9711830  40.1784743 132.0430946  58.8440681
  36.1297022 131.2176933  57.7910207  36.9950019 131.0219742  57.4316096
  36.1974531 130.9887285  58.7179563  36.0382009 130.3220390  53.8901643
  35.3846421 130.0069407  53.2658258  35.9962483 129.6996130  54.6161466
  42.5033634 135.2450855  55.3270760  41.7656391 134.7328241  55.6581003
  42.7560408 134.8051237  54.5154037  42.6045262 128.0227107  55.9212529
  42.9104139 127.1624471  55.6338444  43.3297867 128.6144727  55.7211523
  38.6851890 132.5176339  63.7677806  38.0379805 133.2166288  63.6742283
  39.4552905 132.9512483  64.1354055  40.4327885 133.4851749  56.2717091
  40.9296584 132.7321711  55.9518162  39.6614866 133.5216066  55.7060301
  42.8746880 130.4521343  58.4196450  41.9609959 130.6825569  58.5878657
  43.3039981 130.5359787  59.2710483  36.8535580 130.3546115  60.2178465
  37.6761649 129.8806593  60.0957355  37.0973644 131.1336599  60.7177151
  38.5098628 130.6037075  56.4805623  38.5320325 130.6676408  55.5257603
  38.9266687 129.7641583  56.6746129  40.0586839 131.4025151  61.8240615
  40.5768783 132.1386178  61.4987103  39.7041972 131.7089144  62.6587374
  40.3099434 127.8225433  57.3441511  40.5901187 127.1548622  57.9701938
  41.0950040 128.0154529  56.8316175  42.2022671 133.3298651  61.2772488
  41.6072603 133.6103663  60.5818976  41.9172368 133.8192551  62.0489229
  46.8090858 136.2560230  60.2513669  46.2929907 135.4718687  60.0643598
  47.6930807 135.9278947  60.4160189  44.4701585 130.0001246  56.2109482
  44.2726406 129.6916334  57.0952814  45.0801291 130.7262885  56.3407412
  38.2984683 130.8032106  52.3381717  37.4885412 130.4579191  52.7136963
  38.9869100 130.4939650  52.9269328  40.2275232 129.8810153  53.9606013
  40.7806270 130.3005606  54.6196037  40.4645318 128.9545901  54.0028969
  43.6054039 131.9910678  53.4684678  43.0252708 132.6495482  53.0862730
  43.3389971 131.1688023  53.0572095  42.0557605 131.3915736  55.6705998
  42.5557384 131.5032270  54.8620317  42.6993213 131.0876789  56.3106806
  42.3878917 134.1510768  52.5241026  41.5004772 134.4360419  52.3061221
  42.8032906 133.9904532  51.6768303  45.7393453 134.1757289  56.2395365
  46.5153843 134.6653742  56.5119982  45.0141587 134.6015344  56.6967235
  48.1766012 134.8884909  57.2969306  48.7710502 134.6480645  56.5862614
  48.2492595 134.1692039  57.9242842  46.1724746 135.4555036  53.5641436
  45.9161681 135.0551672  54.3949643  45.5477615 136.1698830  53.4391575
  36.4050845 130.3578195  49.6129164  36.3929515 131.3020035  49.7697435
  37.2974267 130.1748340  49.3188625  40.2202965 126.9520971  53.8675101
  39.4535361 126.3979458  54.0131783  40.6313670 127.0242840  54.7289252
   2.8274027  52.8936845  43.4674176   3.5599199  52.3236061  43.7012005
   2.0713383  52.5058445  43.9080682   2.1089757  49.5269943  46.7840009
   1.4664138  49.8202476  46.1379803   1.6044686  49.4122864  47.5893205
   2.2488735  59.1913373  42.2183813   1.5639773  59.5712274  41.6680846
   2.3332584  59.8008699  42.9515761   0.6185495  59.7145287  46.9901514
   1.4402938  59.3125475  46.7084196   0.6147898  59.6113521  47.9417630
   8.7091488  56.0584036  43.3386485   7.9555196  55.4891434  43.1830490
   8.8439029  56.0246700  44.2857120   2.3867136  57.1968966  37.9865707
   1.6096579  56.8580125  37.5420869   3.0658617  57.2021589  37.3120672
   2.7855633  56.2112672  40.4488629   2.6473532  56.4014268  39.5209818
   2.4291852  56.9732055  40.9056680   2.8125013  58.2789199  45.4599900
   3.2461520  58.1864488  46.3082954   3.5256594  58.2546700  44.8219916
   3.6740562  58.3212900  47.9932786   3.8676453  59.2258710  48.2392061
   3.5741181  57.8620319  48.8271371   4.9282626  54.8786567  44.6380689
   4.9172502  55.7611282  44.2674623   4.0600005  54.5258117  44.4435226
   1.5455200  53.7735208  41.1050855   2.0115652  54.6063199  41.0311158
   1.9962701  53.3080189  41.8096114   5.5307236  56.0286786  41.2430152
   5.9738382  55.2794111  40.8449276   4.6533746  56.0196922  40.8603884
   0.6643017  62.5817127  36.7236751   1.3593922  63.2023820  36.9424065
   1.0066167  61.7312479  36.9989129   2.5634440  60.0316833  38.2524082
   3.0885764  60.3704106  37.5273402   2.4756793  59.0963848  38.0687216
   2.2528346  60.6649737  53.5575280   1.4623890  60.6473875  53.0179779
   2.0161701  61.2038030  54.3124316   2.3726221  57.5142203  50.8708008
   2.4224226  57.3492210  51.8123531   2.2640144  56.6469462  50.4805889
   3.8744418  59.9339144  51.1150030   3.5829226  60.2969125  51.9513491
   3.2616549  59.2206153  50.9363362   5.0740100  57.4992024  43.6352600
   5.9086992  57.9381828  43.7990160   5.2099229  57.0230677  42.8160846
   2.1231606  55.0571759  49.5830088   2.5985728  55.2499405  48.7748939
   1.1997172  55.1130945  49.3373471   0.8233275  51.9337519  47.8158393
   1.7750698  52.0335617  47.8370617   0.6536726  51.1415788  48.3256478
   0.6043162  62.2881900  33.7224374   0.5256793  61.9541763  34.6160132
   1.4252829  62.7803667  33.7215847   3.3021353  55.1543639  46.9300693
   3.2697673  54.2159640  47.1160377   3.9121977  55.2327676  46.1966518
   3.4515841  51.9454682  46.9758976   2.9354890  51.1613139  46.7888905
   4.3355790  51.6173399  47.1405496   1.1126568  45.6895698  42.9354789
   0.9151390  45.3810786  43.8198121   1.7226274  46.4157337  43.0652719
   9.1197903  56.2159646  46.0706730   9.8501291  55.9544934  46.6314433
   8.5104848  55.4788368  46.1108798   7.2013200  54.3567508  46.6681181
   6.4746364  54.2223473  46.0597672   6.7860487  54.6644337  47.4737899
   2.3818436  49.8651741  42.9640672   3.1578826  50.3548194  43.2365289
   1.6566570  50.2909795  43.4212541   4.8190995  50.5779360  44.0214612
   5.4135486  50.3375096  43.3107921   4.8917579  49.8586491  44.6488149
   2.8149730  51.1449488  40.2886742   2.5586664  50.7446124  41.1194950
   2.1902598  51.8593282  40.1636881   7.1262068  53.8845561  42.7958034
   6.5661626  53.9538751  43.5689596   6.5205571  53.7086546  42.0757530
   8.7118086  70.5602075  45.4887989   9.3496496  70.4408823  44.7851329
   8.5938929  71.5082919  45.5475942   5.5207792  70.5129503  45.4249514
   5.1826304  70.3970568  44.5370049   6.3897561  70.1120668  45.4050520
   1.3794608  72.3664980  41.4146405   0.8159473  72.2754917  40.6462693
   1.2647003  71.5464884  41.8948898   6.0027575  71.6664355  51.3835720
   5.9916216  71.2717153  50.5116223   6.1648215  70.9330428  51.9769491
   6.9594167  76.0335947  36.7260870   6.3082147  76.6190028  36.3394884
   7.7538530  76.5642142  36.7855907   0.8849794  73.1225085  37.1248004
   1.6580670  72.5754072  36.9860880   1.2375193  73.9869334  37.3362466
   2.7234836  74.4501467  50.3314904   2.4324702  75.3547098  50.2161570
   3.3591821  74.4917995  51.0458973   3.6491043  71.8278315  46.9216263
   4.2454616  71.6034338  46.2073226   3.7066015  71.0863061  47.5241711
   3.2216072  69.2817751  34.7566454   3.4741592  68.7599272  33.9949917
   2.2840631  69.1183896  34.8593138   8.2659355  68.2853529  42.5641197
   9.0522444  67.8672952  42.2131614   8.5298059  69.1899621  42.7322846
   8.4369432  73.7226379  37.2629854   7.8015265  73.7961006  37.9750759
   8.1066838  74.3119978  36.5848933  13.6667782  68.2228762  43.4674176
  14.3992954  67.6527979  43.7012005  12.9107137  67.8350363  43.9080682
   2.9412360  71.1845857  36.9590829   2.8248619  70.5090760  37.6271913
   3.0514620  70.6978231  36.1422982   5.2843901  70.6456004  40.6637518
   4.9202109  70.1186625  41.3750440   6.1411017  70.2554473  40.4904004
  11.1893202  61.9350336  47.9268785  10.8576527  62.8045747  47.7030000
  10.5938815  61.6186620  48.6062815   4.9249388  65.6745904  35.6598867
   5.0923791  66.5426140  36.0269338   4.7346557  65.8373185  34.7360156
   7.6824722  74.1362882  47.3264697   7.3825445  75.0387921  47.2180505
   7.3375781  73.8695066  48.1785850  11.0821865  66.6545423  45.0062135
  10.1738743  66.5860831  44.7120896  11.0309461  67.1317368  45.8343960
   4.9038609  68.1303561  36.6445534   4.7838234  68.5760612  37.4831014
   4.2091198  68.4788879  36.0859072   2.6645501  80.9007203  40.2935665
   2.5869531  81.8515028  40.3724146   2.0607145  80.5553075  40.9510591
   5.1562731  68.0735068  52.9497032   4.3796065  68.6328988  52.9399897
   5.7953294  68.5591851  53.4711902  12.9483512  64.8561861  46.7840009
  12.3057892  65.1494394  46.1379803  12.4438440  64.7414781  47.5893205
  10.6023675  68.6025034  37.4725868  11.5141532  68.8352421  37.2973565
  10.0933322  69.1862078  36.9100946   3.4109103  70.8820522  52.5114999
   4.1523788  71.4205566  52.2349822   2.7046089  71.5086810  52.6686551
   8.8864443  73.0249662  51.1087160   9.2947799  72.5832073  50.3641793
   8.1641705  72.4502290  51.3621353   5.2395513  67.9622269  48.4820717
   6.0856708  68.3861682  48.6255366   5.1794151  67.3055893  49.1759280
   9.2093258  73.5850853  44.8639449   8.5802120  73.7496567  44.1615517
   8.8218920  73.9992462  45.6350413  13.0882490  74.5205291  42.2183813
  12.4033528  74.9004192  41.6680846  13.1726339  75.1300617  42.9515761
   8.3894958  65.6226637  50.1401891   8.1455890  66.3768698  49.6036167
   8.6654889  66.0011985  50.9749138  10.3433421  72.1665250  48.8179157
  10.5550316  72.8097009  48.1413538  10.2963169  71.3327566  48.3501087
   7.9459650  64.7783070  45.7215729   7.0844129  65.0764324  46.0132466
   7.9722085  64.9953469  44.7896761   4.7621220  73.3225261  42.1289534
   5.2259565  73.6012964  41.3394157   4.4978018  72.4208705  41.9462625
   1.6545301  72.8696742  45.0669298   2.2246658  73.2984011  44.4286782
   2.2453413  72.5879327  45.7653483   3.6990106  69.4448413  38.9379099
   4.4014149  69.8969457  39.4053026   3.3670734  68.8032232  39.5658993
   2.1470467  68.0360170  53.3130309   1.5169128  68.7176451  53.5465706
   2.0406555  67.9243251  52.3683447  11.4579249  75.0437205  46.9901514
  12.2796693  74.6417392  46.7084196  11.4541652  74.9405439  47.9417630
   5.2235853  74.5921248  49.1462224   5.2880285  75.0541655  49.9820396
   4.5146777  73.9618613  49.2744534  19.5485242  71.3875953  43.3386485
  18.7948951  70.8183352  43.1830490  19.6832783  71.3538618  44.2857120
   4.9383870  76.2589356  39.0141205   4.8029545  77.1040891  39.4426053
   5.4793683  76.4608633  38.2507139   1.4251210  62.3380936  55.6755560
   1.0318155  61.7847134  56.3503204   2.2417350  62.6491514  56.0662077
   4.3419171  63.7538815  53.2675816   5.0828884  64.3545968  53.1880279
   4.5737094  63.0116452  52.7093859   6.5652347  76.8812922  53.1441547
   6.1216201  76.0949301  52.8262451   7.2269560  77.0692073  52.4785438
   1.3239468  78.4108724  47.6702225   1.8746893  78.2825787  46.8979219
   0.4850944  78.7103613  47.3197118   8.6633585  77.1615722  51.1722948
   8.6452060  77.9824603  50.6803217   9.5853505  77.0369797  51.3973089
   5.1206639  74.6759852  52.0146456   5.6534976  73.9148140  51.7845764
   4.5920720  74.3833503  52.7570611   8.2876334  59.7819918  47.5440098
   7.9440603  60.6721559  47.4679209   8.6555296  59.5921575  46.6809683
   8.2526617  69.7728529  36.0512533   7.7373240  70.5433133  36.2900921
   7.9803925  69.0993665  36.6745595   5.8373728  64.6178230  41.1097772
   4.9815324  64.2285080  40.9303410   6.2500679  64.6970190  40.2497557
   7.3672874  62.1524573  45.5089331   6.8637670  62.1154708  44.6957137
   7.6603481  63.0617315  45.5685988   3.6115760  62.2363302  44.5155513
   4.4768757  62.0406111  44.1561403   3.6793269  62.0073654  45.4424870
  13.2260891  72.5260883  37.9865707  12.4490333  72.1872043  37.5420869
  13.9052372  72.5313507  37.3120672   8.0412920  67.6455621  37.8772314
   7.7363055  67.9601770  38.7282458   8.9943362  67.7237041  37.9199647
   6.4859352  73.8045844  39.5265268   5.9580713  73.0698604  39.2138506
   5.9846854  74.5820520  39.2805237  11.4652198  71.9994865  44.6432315
  10.8075872  72.6894126  44.7312443  12.2692597  72.3891297  44.9866301
   1.2178079  64.4665510  41.8871880   1.7921831  64.2440692  41.1545073
   1.8049062  64.5354205  42.6400481  10.2757656  70.3539237  42.6936256
  10.7889538  70.9869229  43.1957966  10.9258880  69.7540433  42.3279617
   1.5447666  66.4969971  35.9067765   0.7084979  66.8344658  36.2277040
   1.4052436  66.3618951  34.9694902   3.5200747  61.3406759  40.6146949
   2.8665159  61.0255776  39.9903564   3.4781221  60.7182500  41.3406772
   4.6311952  71.6226054  32.5300241   3.7239014  71.3915308  32.7291390
   5.1282984  70.8263674  32.7174223   7.5380031  80.3323562  35.4496928
   6.8641729  80.6355258  36.0581885   7.9245853  81.1352642  35.1002385
   6.7538487  67.8288693  44.9394597   5.8361049  68.0503640  44.7816285
   7.1698631  67.9035003  44.0806304   7.5373535  69.2280109  40.0697277
   8.2845354  69.7401506  39.7604399   7.8065125  68.9064161  40.9301671
   5.8100185  71.7238649  37.0524232   4.9011404  71.4397682  37.1496701
   5.8395269  72.1437728  36.1927538  11.0419453  75.3345239  40.8215399
  10.5881780  74.4936149  40.8780590  10.4113419  75.9706637  41.1590179
   9.9852372  66.2637225  42.0516067   9.2475129  65.7514611  42.3826309
  10.2379146  65.8237606  41.2399343   9.4852392  77.1721735  41.7565217
   9.7775366  77.7326793  41.0377583   9.9951012  77.4650296  42.5118376
  10.0864000  59.0413477  42.6457836  10.3922876  58.1810840  42.3583751
  10.8116604  59.6331097  42.4456830   4.3585079  69.3367270  43.1534027
   4.4133689  68.3841106  43.0776503   3.5476281  69.4926709  43.6375325
   5.5076273  73.2647393  34.3912310   5.0695703  72.5483252  33.9317947
   6.2486714  73.4923508  33.8297402   2.2977439  67.9544330  40.9124406
   1.4845305  68.2538500  41.3189598   2.7936433  67.5600018  41.6298888
   4.4486017  77.9502087  42.8458670   4.4062196  78.1762933  41.9167202
   5.3648716  77.7165461  42.9944472   7.8951651  68.4186154  49.7439300
   8.2501039  68.6457627  50.6033765   8.5423782  68.7504531  49.1216555
  13.6249388  71.5404590  40.4488629  13.4867286  71.7306186  39.5209818
  13.2685607  72.3023973  40.9056680   1.7891514  65.5262685  46.5285641
   2.4290893  65.3851444  45.8308604   0.9569044  65.2397199  46.1524243
  13.6518767  73.6081117  45.4599900  14.0855274  73.5156406  46.3082954
  14.3650348  73.5838617  44.8219916   2.5651818  74.8265116  42.6420633
   3.3592416  74.3315436  42.4403208   1.8543510  74.2982979  42.2788339
   7.3846662  77.2083211  46.9933001   7.4383685  77.7774147  47.7610717
   6.5161444  77.3785096  46.6287038  14.5134317  73.6504818  47.9932786
  14.7070207  74.5550628  48.2392061  14.4134935  73.1912237  48.8271371
   6.1670628  63.5362708  50.4923113   5.5198543  64.2352658  50.3987589
   6.9371643  63.9698852  50.8599361   9.5749426  73.8011560  53.5673666
   9.4234932  73.5722112  52.6503750   9.5654105  74.7582162  53.5805011
   6.3434762  71.3743473  48.5519933   7.2726822  71.5254633  48.3788900
   5.9225792  71.4627494  47.6968579   5.1423094  75.3994138  46.3218470
   5.0034180  75.0312922  47.1944408   4.3537690  75.9141777  46.1502428
   5.7371246  80.5003234  37.6644007   5.9123001  80.0291277  38.4789629
   5.0504034  81.1269000  37.8925268   6.6928309  74.7775740  43.7107308
   6.3578142  74.7376510  44.6064958   6.1932255  74.1120456  43.2377718
   0.6672553  70.1843370  49.2359889   0.5292351  69.4523609  49.8371428
   1.5777476  70.0952270  48.9544077   9.6287501  72.1231775  33.9844368
   9.0116671  71.3978603  33.8877420   9.1603989  72.8841135  33.6411442
   3.2954854  69.8963330  48.7243569   4.0054472  69.2556522  48.6830187
   3.2524162  70.1476224  49.6469750  11.2841632  76.8330683  51.6450148
  11.2254178  76.1489903  50.9780731  11.6861151  77.5749673  51.1930774
   2.0083788  66.8828547  50.5439208   1.4721145  66.4319286  51.1960805
   1.4200496  67.0174456  49.8009673   1.4186047  66.3417199  33.1065672
   0.5415513  66.2206000  32.7427919   1.8943800  65.5503277  32.8544561
  11.2859040  74.7970267  49.8764128  10.3985818  74.4596189  49.9990527
  11.8557591  74.0653298  50.1132893   4.8160193  79.4571719  46.8425371
   4.7430364  80.2626691  47.3544676   4.3737586  79.6563685  46.0173392
   4.6049973  78.6943489  40.3528193   3.8217494  79.2365169  40.4466417
   5.3042718  79.2117469  40.7522434   7.9146623  64.5038119  42.9962398
   8.4115322  63.7508081  42.6763468   7.1433604  64.5402435  42.4305607
  15.7676380  70.2078484  44.6380689  15.7566256  71.0903200  44.2674623
  14.8993760  69.8550035  44.4435226   7.2758876  79.3558553  48.9983530
   7.9886849  79.9906018  48.9259431   6.7848905  79.4522419  48.1823531
   8.9976403  73.2609806  40.5700821   8.0632682  73.3811268  40.4005526
   9.1753072  72.3582273  40.3060831   4.4981591  66.6455502  42.7234082
   4.1279379  66.0926542  43.4114988   4.9940684  66.0413635  42.1709083
  12.3848955  69.1027125  41.1050855  12.8509407  69.9355117  41.0311158
  12.8356455  68.6372107  41.8096114   2.3270790  77.1052997  49.8189100
   3.0280250  77.7389480  49.9718495   1.8565905  77.4467728  49.0584740
  10.4525186  75.4470947  38.1037007  10.7285030  75.3327541  39.0130882
   9.5829685  75.0488431  38.0649181  10.3565617  61.4707712  45.1441757
   9.4428697  61.7011939  45.3123964  10.7858719  61.5546156  45.9955789
  10.1272076  69.6597604  47.6441651   9.4743526  69.9073512  46.9894104
  10.5052456  68.8461742  47.3104128   7.0879250  79.6957297  41.7469821
   7.2701644  78.8778953  42.2097573   7.9112236  79.9124990  41.3094711
   7.4221415  78.6225482  39.0084870   7.9509182  78.1117937  38.3955032
   7.6849635  78.3068013  39.8730403   6.1759649  70.4017415  54.1307688
   5.5000286  70.3011545  54.8010063   6.9987283  70.2456629  54.5943685
   4.9182432  81.7084343  48.3665304   5.4700740  81.8715964  49.1314389
   5.2588625  82.2988780  47.6945329   9.7693306  76.5345600  54.2213958
  10.3133210  77.1475558  53.7268913   9.1880151  77.0925179  54.7380971
   8.0550819  79.6566318  45.3528986   7.9301959  78.8556058  44.8439932
   8.7129910  80.1512512  44.8642956  10.1185728  77.4575338  46.9808536
   9.1716063  77.3380689  46.9086863  10.4668501  76.5697836  47.0634798
   2.4785301  63.3469477  50.8046778   3.0019703  63.5931774  51.5673087
   2.2597634  64.1789512  50.3849915   7.1232161  77.2528055  43.1812888
   6.9757123  76.3244762  43.3620458   7.9485654  77.2748145  42.6969964
   0.9894405  65.9046122  39.0393381   1.3290478  66.4332043  38.3171989
   1.4366526  66.2426528  39.8151947  10.7266283  78.0756613  44.2677761
  11.6512830  77.8699475  44.1302212  10.5581586  77.8273014  45.1767103
   3.6837846  64.2883172  48.4896449   3.3434666  63.4890985  48.8917128
   2.9776852  64.5884883  47.9173282   4.3354318  61.3732485  46.9423772
   5.1580387  60.8992963  46.8202662   4.5792381  62.1522968  47.4422458
   2.9762552  64.4020743  37.2386673   3.6970915  64.7801996  36.7350390
   2.3527856  65.1209620  37.3421651   7.1193675  65.1065892  38.1745006
   7.3357290  65.9890530  37.8733834   6.6387742  64.7152106  37.4450648
   1.8592897  68.0651605  44.7515750   1.7137477  68.3791908  45.6440032
   1.3818100  68.6836506  44.1986649   3.7189279  65.0554153  44.7996640
   3.7050848  64.1595247  44.4628938   4.4361708  65.0624817  45.4334926
   5.5715410  65.4891494  46.8449767   5.3133188  66.4108564  46.8434098
   5.0400451  65.0921928  47.5350231  10.5161599  78.5942281  39.6239853
  10.6898476  78.0288703  38.8713705  11.0090490  79.3943176  39.4419343
   3.1226175  63.9368534  40.0684210   3.2442087  63.0085180  40.2675097
   2.8328218  63.9507220  39.1562525   5.9917366  61.6223444  43.2050930
   6.0139063  61.6862777  42.2502909   6.4085425  60.7827953  43.3991436
  16.3700990  71.3578704  41.2430152  16.8132136  70.6086029  40.8449276
  15.4927500  71.3488840  40.8603884  11.5036771  77.9109045  36.7236751
  12.1987676  78.5315738  36.9424065  11.8459922  77.0604396  36.9989129
  13.4028195  75.3608751  38.2524082  13.9279519  75.6996023  37.5273402
  13.3150547  74.4255766  38.0687216   5.0648243  79.2742824  50.3813958
   5.3735370  79.0291971  51.2536658   5.8623725  79.4789463  49.8932828
   5.0868855  81.4280734  42.6119335   4.6473846  80.9357113  43.3052192
   5.8376972  80.8853702  42.3711410   2.5342727  76.9718743  44.6841636
   1.9122737  76.3089448  44.3843864   3.2047594  76.9979875  44.0015284
   2.6067255  65.4500531  54.2774143   2.6555410  66.3262654  53.8951912
   3.1489769  64.9077924  53.7045786  13.0922101  75.9941654  53.5575280
  12.3017644  75.9765793  53.0179779  12.8555455  76.5329948  54.3124316
  13.2119976  72.8434121  50.8708008  13.2617981  72.6784128  51.8123531
  13.1033899  71.9761380  50.4805889   2.0956234  75.5222666  38.1600097
   2.2444355  76.2058131  37.5066770   2.9022678  75.5027756  38.6749553
  10.5023738  68.8265049  52.1867315  11.4033601  68.6871514  51.8951313
  10.5771713  68.9919503  53.1265492   4.8366543  66.2031903  51.0320501
   3.9669853  66.4965469  50.7603090   5.0726024  66.7872348  51.7527765
  14.7138172  75.2631062  51.1150030  14.4222981  75.6261043  51.9513491
  14.1010304  74.5498070  50.9363362  15.9133855  72.8283942  43.6352600
  16.7480746  73.2673746  43.7990160  16.0492984  72.3522595  42.8160846
  12.9625361  70.3863677  49.5830088  13.4379482  70.5791323  48.7748939
  12.0390926  70.4422863  49.3373471   7.5405577  62.4211520  48.5485922
   8.0587521  63.1572547  48.2232410   7.1860710  62.7275514  49.3832681
   7.7918171  58.8411803  44.0686818   8.0719925  58.1734992  44.6947245
   8.5768778  59.0340898  43.5561482   5.5951640  78.0170797  35.6311844
   5.0225607  78.6360984  35.1782316   6.1684434  78.5670158  36.1651766
  11.6627030  67.2629437  47.8158393  12.6144453  67.3627535  47.8370617
  11.4930480  66.4707705  48.3256478   9.6841409  64.3485020  48.0017794
   9.0891341  64.6290033  47.3064283   9.3991106  64.8378921  48.7734535
   8.8148900  78.3007947  36.7620427   9.7479573  78.2353509  36.9653302
   8.7272112  79.1364214  36.3034959  11.4436916  77.6173817  33.7224374
  11.3650548  77.2833681  34.6160132  12.2646583  78.1095585  33.7215847
  14.1415107  70.4835557  46.9300693  14.1091428  69.5451557  47.1160377
  14.7515731  70.5619593  46.1966518   5.9798438  69.3531610  32.9727897
   6.9257543  69.2237818  33.0416315   5.6012683  68.6146271  33.4497325
  14.2909596  67.2746600  46.9758976  13.7748645  66.4905057  46.7888905
  15.1749544  66.9465317  47.1405496  11.9520323  61.0187616  42.9354789
  11.7545144  60.7102704  43.8198121  12.5620028  61.7449254  43.0652719
  19.9591657  71.5451563  46.0706730  20.6895046  71.2836852  46.6314433
  19.3498603  70.8080285  46.1108798  18.0406954  69.6859426  46.6681181
  17.3140118  69.5515391  46.0597672  17.6254241  69.9936255  47.4737899
   5.8637131  73.4049356  54.4328554   6.7840140  73.5827955  54.6268600
   5.8286714  72.4605401  54.2808253   4.1641355  67.2781586  32.9082782
   3.2572811  66.9814699  32.9845496   4.4417336  66.9811404  32.0417068
   5.7803421  61.8218476  39.0627023   4.9704150  61.4765561  39.4382270
   6.4687838  61.5126019  39.6514635   7.7093969  60.8996522  40.6851320
   8.2625008  61.3191976  41.3441343   7.9464056  59.9732271  40.7274276
   3.7327069  66.8883596  56.4654084   3.6323796  67.8377953  56.3966175
   3.5148611  66.5601835  55.5930154   2.9340140  64.1368521  33.0494761
   3.7959304  64.4623419  33.3090579   3.1190484  63.3500017  32.5367827
  11.0872777  63.0097048  40.1929984  10.5071446  63.6681852  39.8108037
  10.8208709  62.1874392  39.7817402   9.5376343  62.4102105  42.3951305
  10.0376121  62.5218640  41.5865624  10.1811951  62.1063158  43.0352113
   3.5958339  70.3180735  55.2819146   3.1125420  71.1181095  55.4883035
   3.6819278  70.3288680  54.3286590   9.8697655  65.1697138  39.2486333
   8.9823510  65.4546789  39.0306527  10.2851644  65.0090901  38.4013610
  13.2212191  65.1943659  42.9640672  13.9972581  65.6840111  43.2365289
  12.4960325  65.6201713  43.4212541  15.6584749  65.9071278  44.0214612
  16.2529240  65.6667014  43.3107921  15.7311333  65.1878409  44.6488149
   9.0140868  74.9341813  33.3434353   9.7176718  75.1391815  33.9592008
   8.2903517  75.5018575  33.6083436   9.8438678  70.6851674  39.4636623
   9.7873880  71.1420225  38.6244255  10.3967021  69.9242359  39.2859466
  13.6543484  66.4741406  40.2886742  13.3980418  66.0738041  41.1194950
  13.0296352  67.1885200  40.1636881  17.9655822  69.2137479  42.7958034
  17.4055380  69.2830668  43.5689596  17.3599325  69.0378464  42.0757530
  10.9227565  75.3724342  35.3932813  11.7573169  74.9405540  35.2110287
  10.7611908  75.2006356  36.3209707  10.5773458  71.8756455  36.7589152
  10.5222261  71.7100727  35.8177596   9.9519513  72.5832488  36.9151342
   7.8919365  74.1805367  56.0842715   8.7610524  74.3546019  55.7229350
   7.4126116  74.9999784  55.9618444   3.8869583  61.3764564  36.3374470
   3.8748253  62.3206404  36.4942741   4.7793005  61.1934710  36.0433932
   2.0605545  81.3002468  47.7632148   2.9632792  81.3326078  48.0798643
   1.8342915  80.3702919  47.7778484   3.8159147  80.0533455  44.4242227
   2.8654778  80.0535316  44.3106599   4.1191633  79.3066189  43.9078262
   7.7021703  57.9707341  40.5920407   6.9354098  57.4165827  40.7377090
   8.1132408  58.0429210  41.4534559  19.5511841  85.8893993  45.4887989
  20.1890251  85.7700740  44.7851329  19.4332683  86.8374837  45.5475942
  16.3601547  85.8421421  45.4249514  16.0220058  85.7262486  44.5370049
  17.2291315  85.4412586  45.4050520  12.2188363  87.6956897  41.4146405
  11.6553228  87.6046834  40.6462693  12.1040758  86.8756802  41.8948898
  16.8421330  86.9956273  51.3835720  16.8309971  86.6009071  50.5116223
  17.0041969  86.2622345  51.9769491   9.7652794  89.1908089  44.2530625
  10.5574086  88.8498914  43.8376925  10.0049445  89.3003064  45.1732779
  17.7987921  91.3627865  36.7260870  17.1475901  91.9481946  36.3394884
  18.5932284  91.8934060  36.7855907  11.7243548  88.4517002  37.1248004
  12.4974424  87.9045989  36.9860880  12.0768947  89.3161252  37.3362466
  13.5628591  89.7793385  50.3314904  13.2718457  90.6839015  50.2161570
  14.1985575  89.8209912  51.0458973  14.4884798  87.1570233  46.9216263
  15.0848370  86.9326256  46.2073226  14.5459769  86.4154979  47.5241711
  14.0609826  84.6109668  34.7566454  14.3135347  84.0891190  33.9949917
  13.1234385  84.4475814  34.8593138  19.1053109  83.6145447  42.5641197
  19.8916198  83.1964870  42.2131614  19.3691813  84.5191539  42.7322846
  19.2763186  89.0518297  37.2629854  18.6409019  89.1252924  37.9750759
  18.9460593  89.6411896  36.5848933  24.5061536  83.5520680  43.4674176
  25.2386708  82.9819897  43.7012005  23.7500892  83.1642280  43.9080682
  13.7806115  86.5137774  36.9590829  13.6642373  85.8382678  37.6271913
  13.8908375  86.0270148  36.1422982  16.1237656  85.9747922  40.6637518
  15.7595863  85.4478542  41.3750440  16.9804772  85.5846391  40.4904004
  22.0286957  77.2642254  47.9268785  21.6970281  78.1337665  47.7030000
  21.4332570  76.9478538  48.6062815  15.7643143  81.0037821  35.6598867
  15.9317545  81.8718058  36.0269338  15.5740312  81.1665103  34.7360156
  18.5218476  89.4654800  47.3264697  18.2219199  90.3679839  47.2180505
  18.1769536  89.1986983  48.1785850  11.9730958  85.9168597  43.3601402
  11.0481454  85.7844811  43.5679093  12.2215371  86.6962816  43.8571344
  21.9215620  81.9837340  45.0062135  21.0132497  81.9152749  44.7120896
  21.8703216  82.4609285  45.8343960  15.7432364  83.4595479  36.6445534
  15.6231989  83.9052529  37.4831014  15.0484952  83.8080796  36.0859072
   9.3339769  85.5601870  44.1945191   9.4632150  85.8136349  45.1084602
   8.6537220  86.1529578  43.8749846  13.5039256  96.2299120  40.2935665
  13.4263286  97.1806946  40.3724146  12.9000899  95.8844993  40.9510591
  15.9956486  83.4026986  52.9497032  15.2189820  83.9620906  52.9399897
  16.6347049  83.8883769  53.4711902  23.7877266  80.1853779  46.7840009
  23.1451646  80.4786312  46.1379803  23.2832195  80.0706699  47.5893205
  21.4417430  83.9316952  37.4725868  22.3535286  84.1644339  37.2973565
  20.9327077  84.5153996  36.9100946  14.2502858  86.2112439  52.5114999
  14.9917542  86.7497483  52.2349822  13.5439843  86.8378728  52.6686551
  19.7258198  88.3541580  51.1087160  20.1341554  87.9123990  50.3641793
  19.0035459  87.7794207  51.3621353  16.0789268  83.2914186  48.4820717
  16.9250463  83.7153600  48.6255366  16.0187905  82.6347811  49.1759280
  20.0487012  88.9142770  44.8639449  19.4195875  89.0788484  44.1615517
  19.6612674  89.3284380  45.6350413  23.9276244  89.8497208  42.2183813
  23.2427282  90.2296110  41.6680846  24.0120093  90.4592535  42.9515761
  19.2288713  80.9518555  50.1401891  18.9849645  81.7060615  49.6036167
  19.5048643  81.3303902  50.9749138  21.1827176  87.4957167  48.8179157
  21.3944071  88.1388927  48.1413538  21.1356924  86.6619484  48.3501087
  18.7853405  80.1074988  45.7215729  17.9237884  80.4056241  46.0132466
  18.8115839  80.3245387  44.7896761  15.6014974  88.6517178  42.1289534
  16.0653320  88.9304881  41.3394157  15.3371772  87.7500623  41.9462625
  12.4939055  88.1988660  45.0669298  13.0640412  88.6275928  44.4286782
  13.0847167  87.9171245  45.7653483  14.5383860  84.7740331  38.9379099
  15.2407903  85.2261374  39.4053026  14.2064489  84.1324150  39.5658993
  12.9864222  83.3652087  53.3130309  12.3562882  84.0468368  53.5465706
  12.8800310  83.2535169  52.3683447   8.2809194  83.0323883  44.2396233
   7.4908248  83.2881412  43.7636344   8.7720441  83.8472221  44.3448274
  22.2973004  90.3729123  46.9901514  23.1190447  89.9709310  46.7084196
  22.2935407  90.2697357  47.9417630  10.2323939  83.3968463  41.1979710
   9.4355103  83.5087157  41.7163205  10.0049532  83.7355115  40.3320600
  16.0629607  89.9213166  49.1462224  16.1274040  90.3833573  49.9820396
  15.3540531  89.2910531  49.2744534   6.5646897  83.2854374  46.6711224
   6.8154936  84.1701384  46.9368800   7.1006445  83.1058975  45.8986316
  30.3878997  86.7167871  43.3386485  29.6342705  86.1475269  43.1830490
  30.5226538  86.6830536  44.2857120  15.7777625  91.5881273  39.0141205
  15.6423300  92.4332809  39.4426053  16.3187437  91.7900551  38.2507139
  12.2644964  77.6672853  55.6755560  11.8711910  77.1139052  56.3503204
  13.0811105  77.9783432  56.0662077   9.2307022  89.1056711  39.5869130
   9.7431543  89.8999962  39.7374694   9.8829735  88.4083002  39.5202731
  11.0401907  92.2222468  41.6691883  11.2168535  93.1440432  41.4812867
  11.8358740  91.9080887  42.0986263  15.1812925  79.0830732  53.2675816
  15.9222639  79.6837885  53.1880279  15.4130848  78.3408370  52.7093859
  10.3254263  84.2687100  51.5454046  10.2107779  83.3672357  51.8461145
   9.4698781  84.5150796  51.1938863  17.4046101  92.2104840  53.1441547
  16.9609955  91.4241218  52.8262451  18.0663315  92.3983990  52.4785438
  12.1633222  93.7400642  47.6702225  12.7140647  93.6117705  46.8979219
  11.3244698  94.0395531  47.3197118  19.5027339  92.4907640  51.1722948
  19.4845815  93.3116521  50.6803217  20.4247259  92.3661715  51.3973089
  15.9600393  90.0051769  52.0146456  16.4928730  89.2440058  51.7845764
  15.4314474  89.7125421  52.7570611  19.1270088  75.1111835  47.5440098
  18.7834358  76.0013477  47.4679209  19.4949051  74.9213493  46.6809683
   7.1955939  87.4345366  40.3628700   8.0331161  87.8442374  40.1462408
   7.3734207  86.4944808  40.3328894  19.0920371  85.1020446  36.0512533
  18.5766995  85.8725051  36.2900921  18.8197680  84.4285583  36.6745595
  16.6767482  79.9470147  41.1097772  15.8209078  79.5576998  40.9303410
  17.0894434  80.0262108  40.2497557  18.2066629  77.4816490  45.5089331
  17.7031424  77.4446626  44.6957137  18.4997236  78.3909233  45.5685988
  14.4509515  77.5655220  44.5155513  15.3162511  77.3698029  44.1561403
  14.5187024  77.3365572  45.4424870  24.0654645  87.8552801  37.9865707
  23.2884088  87.5163961  37.5420869  24.7446126  87.8605424  37.3120672
  18.8806674  82.9747538  37.8772314  18.5756810  83.2893688  38.7282458
  19.8337116  83.0528958  37.9199647  17.3253106  89.1337762  39.5265268
  16.7974468  88.3990521  39.2138506  16.8240609  89.9112438  39.2805237
  22.3045952  87.3286782  44.6432315  21.6469627  88.0186044  44.7312443
  23.1086351  87.7183214  44.9866301  12.0571834  79.7957428  41.8871880
  12.6315586  79.5732610  41.1545073  12.6442816  79.8646123  42.6400481
  21.1151411  85.6831155  42.6936256  21.6283293  86.3161147  43.1957966
  21.7652635  85.0832350  42.3279617  12.3841421  81.8261889  35.9067765
  11.5478733  82.1636576  36.2277040  12.2446190  81.6910869  34.9694902
  14.3594501  76.6698677  40.6146949  13.7058914  76.3547694  39.9903564
  14.3174976  76.0474417  41.3406772  15.4705706  86.9517972  32.5300241
  14.5632768  86.7207226  32.7291390  15.9676738  86.1555591  32.7174223
  18.3773785  95.6615479  35.4496928  17.7035484  95.9647176  36.0581885
  18.7639607  96.4644560  35.1002385  17.5932242  83.1580611  44.9394597
  16.6754803  83.3795558  44.7816285  18.0092385  83.2326921  44.0806304
  18.3767290  84.5572026  40.0697277  19.1239108  85.0693423  39.7604399
  18.6458879  84.2356079  40.9301671  16.6493940  87.0530567  37.0524232
  15.7405159  86.7689600  37.1496701  16.6789024  87.4729646  36.1927538
  21.8813207  90.6637156  40.8215399  21.4275534  89.8228066  40.8780590
  21.2507174  91.2998555  41.1590179  20.8246127  81.5929142  42.0516067
  20.0868883  81.0806529  42.3826309  21.0772900  81.1529524  41.2399343
  20.3246146  92.5013653  41.7565217  20.6169121  93.0618710  41.0377583
  20.8344767  92.7942214  42.5118376  20.9257754  74.3705394  42.6457836
  21.2316631  73.5102758  42.3583751  21.6510359  74.9623015  42.4456830
   7.2182110  84.7736081  41.0339434   7.0206510  84.1805442  40.3090500
   6.6628774  84.4688291  41.7515373  15.1978834  84.6659188  43.1534027
  15.2527444  83.7133024  43.0776503  14.3870036  84.8218627  43.6375325
  16.3470028  88.5939311  34.3912310  15.9089457  87.8775170  33.9317947
  17.0880468  88.8215425  33.8297402  13.1371194  83.2836247  40.9124406
  12.3239059  83.5830418  41.3189598  13.6330188  82.8891936  41.6298888
  15.2879772  93.2794004  42.8458670  15.2455950  93.5054851  41.9167202
  16.2042470  93.0457379  42.9944472  18.7345405  83.7478072  49.7439300
  19.0894793  83.9749545  50.6033765  19.3817537  84.0796449  49.1216555
  24.4643142  86.8696508  40.4488629  24.3261041  87.0598104  39.5209818
  24.1079361  87.6315890  40.9056680  12.6285268  80.8554603  46.5285641
  13.2684648  80.7143362  45.8308604  11.7962799  80.5689116  46.1524243
  24.4912522  88.9373035  45.4599900  24.9249029  88.8448324  46.3082954
  25.2044103  88.9130535  44.8219916  13.4045572  90.1557033  42.6420633
  14.1986171  89.6607353  42.4403208  12.6937265  89.6274896  42.2788339
  18.2240417  92.5375129  46.9933001  18.2777439  93.1066065  47.7610717
  17.3555198  92.7077014  46.6287038   9.7128336  84.3000115  38.7180386
   8.7825924  84.2384570  38.9350348   9.8085808  83.7776068  37.9217027
   9.6313885  80.8254928  41.3058628   9.8920702  81.7400261  41.1967788
  10.4531057  80.3579370  41.4555240  11.1038810  82.2392685  48.4757452
  11.7761864  82.0310047  47.8270101  10.2768597  82.0414771  48.0362684
  25.3528071  88.9796735  47.9932786  25.5463962  89.8842546  48.2392061
  25.2528690  88.5204154  48.8271371  17.0064382  78.8654626  50.4923113
  16.3592297  79.5644576  50.3987589  17.7765398  79.2990770  50.8599361
  20.4143180  89.1303478  53.5673666  20.2628687  88.9014030  52.6503750
  20.4047860  90.0874079  53.5805011  17.1828517  86.7035391  48.5519933
  18.1120577  86.8546550  48.3788900  16.7619547  86.7919412  47.6968579
  15.9816848  90.7286055  46.3218470  15.8427934  90.3604840  47.1944408
  15.1931445  91.2433695  46.1502428  16.5765000  95.8295152  37.6644007
  16.7516756  95.3583195  38.4789629  15.8897788  96.4560918  37.8925268
  17.5322063  90.1067658  43.7107308  17.1971896  90.0668428  44.6064958
  17.0326009  89.4412374  43.2377718  11.5066307  85.5135288  49.2359889
  11.3686105  84.7815527  49.8371428  12.4171231  85.4244188  48.9544077
  20.4681255  87.4523692  33.9844368  19.8510426  86.7270520  33.8877420
  19.9997744  88.2133053  33.6411442  14.1348608  85.2255247  48.7243569
  14.8448227  84.5848439  48.6830187  14.0917916  85.4768142  49.6469750
  22.1235387  92.1622601  51.6450148  22.0647933  91.4781821  50.9780731
  22.5254905  92.9041591  51.1930774  12.8477542  82.2120465  50.5439208
  12.3114899  81.7611204  51.1960805  12.2594251  82.3466374  49.8009673
  11.1426086  98.9784514  44.4383867  11.3822684  99.6103039  45.1162886
  10.2995282  98.6272554  44.7249226  12.2579801  81.6709117  33.1065672
  11.3809267  81.5497917  32.7427919  12.7337554  80.8795195  32.8544561
  22.1252794  90.1262185  49.8764128  21.2379573  89.7888106  49.9990527
  22.6951345  89.3945216  50.1132893   3.7781941  86.4586276  43.2007179
   4.4652981  86.1448006  42.6128194   3.6230070  87.3627641  42.9274431
   8.5816663  81.3476473  47.6292203   8.4974852  80.7402142  46.8942613
   7.7599370  81.8385491  47.6301699  15.6553947  94.7863637  46.8425371
  15.5824119  95.5918608  47.3544676  15.2131341  94.9855603  46.0173392
  15.4443727  94.0235407  40.3528193  14.6611249  94.5657087  40.4466417
  16.1436472  94.5409387  40.7522434  18.7540377  79.8330036  42.9962398
  19.2509077  79.0799999  42.6763468  17.9827359  79.8694353  42.4305607
  26.6070135  85.5370402  44.6380689  26.5960011  86.4195117  44.2674623
  25.7387514  85.1841953  44.4435226  18.1152631  94.6850471  48.9983530
  18.8280603  95.3197936  48.9259431  17.6242660  94.7814337  48.1823531
  19.8370158  88.5901724  40.5700821  18.9026437  88.7103186  40.4005526
  20.0146826  87.6874190  40.3060831  15.3375346  81.9747419  42.7234082
  14.9673133  81.4218460  43.4114988  15.8334438  81.3705553  42.1709083
  23.2242709  84.4319043  41.1050855  23.6903161  85.2647034  41.0311158
  23.6750210  83.9664024  41.8096114  13.1664544  92.4344914  49.8189100
  13.8674004  93.0681397  49.9718495  12.6959659  92.7759646  49.0584740
  21.2918940  90.7762864  38.1037007  21.5678784  90.6619459  39.0130882
  20.4223439  90.3780349  38.0649181  21.1959372  76.7999630  45.1441757
  20.2822452  77.0303857  45.3123964  21.6252473  76.8838074  45.9955789
  20.9665830  84.9889522  47.6441651  20.3137281  85.2365429  46.9894104
  21.3446210  84.1753660  47.3104128  17.9273004  95.0249215  41.7469821
  18.1095399  94.2070871  42.2097573  18.7505990  95.2416907  41.3094711
  18.2615170  93.9517400  39.0084870  18.7902936  93.4409855  38.3955032
  18.5243389  93.6359930  39.8730403  17.0153403  85.7309333  54.1307688
  16.3394041  85.6303462  54.8010063  17.8381037  85.5748547  54.5943685
   8.7632263  91.9681269  46.7520203   9.3485699  91.2224957  46.8848107
   8.5657101  92.2785226  47.6356867  11.6170918  95.0032517  41.7682646
  10.9481293  95.4878644  41.2846686  11.4783787  95.2501737  42.6826024
   3.3549917  84.5386870  45.4724646   3.3934017  84.0050460  46.2661764
   2.8490210  84.0122075  44.8535623  15.7576186  97.0376260  48.3665304
  16.3094494  97.2007882  49.1314389  16.0982380  97.6280698  47.6945329
  10.7340680  79.3851410  48.9687189  10.7982006  80.2466241  48.5564586
  10.6707800  78.7725412  48.2359547  10.2092952  81.4574543  52.6160223
  10.8364991  81.0751620  53.2297747   9.3520871  81.2388745  52.9815915
  20.6087061  91.8637518  54.2213958  21.1526965  92.4767476  53.7268913
  20.0273906  92.4217096  54.7380971   6.9858495  83.2650972  38.5478578
   7.2811936  82.3561650  38.4945631   6.0846531  83.2438711  38.2259580
  18.8944574  94.9858236  45.3528986  18.7695713  94.1847976  44.8439932
  19.5523665  95.4804429  44.8642956  10.5152742  81.3406968  44.5306126
   9.7939328  81.9542936  44.3913600  11.3045998  81.8764733  44.4522772
  20.9579482  92.7867256  46.9808536  20.0109818  92.6672607  46.9086863
  21.3062255  91.8989754  47.0634798  13.3179055  78.6761395  50.8046778
  13.8413457  78.9223691  51.5673087  13.0991389  79.5081430  50.3849915
   8.7146336  80.9465069  38.6717903   8.3859043  80.0662448  38.4893009
   9.0685707  80.8912738  39.5594292  17.9625915  92.5819972  43.1812888
  17.8150878  91.6536680  43.3620458  18.7879409  92.6040063  42.6969964
  11.8288160  81.2338039  39.0393381  12.1684232  81.7623961  38.3171989
  12.2760280  81.5718445  39.8151947  21.5660037  93.4048531  44.2677761
  22.4906585  93.1991392  44.1302212  21.3975341  93.1564932  45.1767103
  14.5231600  79.6175090  48.4896449  14.1828421  78.8182903  48.8917128
  13.8170607  79.9176801  47.9173282  15.1748072  76.7024402  46.9423772
  15.9974142  76.2284881  46.8202662  15.4186136  77.4814886  47.4422458
  13.8156307  79.7312661  37.2386673  14.5364669  80.1093914  36.7350390
  13.1921611  80.4501538  37.3421651  17.9587430  80.4357810  38.1745006
  18.1751044  81.3182448  37.8733834  17.4781497  80.0444023  37.4450648
  12.6986651  83.3943523  44.7515750  12.5531232  83.7083826  45.6440032
  12.2211855  84.0128423  44.1986649  14.5583034  80.3846071  44.7996640
  14.5444603  79.4887164  44.4628938  15.2755462  80.3916735  45.4334926
  16.4109165  80.8183411  46.8449767  16.1526942  81.7400482  46.8434098
  15.8794205  80.4213846  47.5350231  21.3555353  93.9234198  39.6239853
  21.5292231  93.3580621  38.8713705  21.8484245  94.7235093  39.4419343
   7.1732313  85.9348867  47.6903411   6.6285781  86.7108675  47.8223686
   8.0511663  86.2819672  47.5322533  13.9619930  79.2660451  40.0684210
  14.0835841  78.3377097  40.2675097  13.6721972  79.2799137  39.1562525
  16.8311120  76.9515362  43.2050930  16.8532817  77.0154695  42.2502909
  17.2479179  76.1119870  43.3991436  27.2094745  86.6870621  41.2430152
  27.6525891  85.9377947  40.8449276  26.3321255  86.6780758  40.8603884
  22.3430526  93.2400963  36.7236751  23.0381430  93.8607655  36.9424065
  22.6853676  92.3896314  36.9989129   7.9598335  85.0618764  50.5833568
   7.2180071  85.2101399  51.1698199   7.6391079  85.3227029  49.7200318
  24.2421949  90.6900668  38.2524082  24.7673273  91.0287941  37.5273402
  24.1544302  89.7547684  38.0687216  15.9041998  94.6034742  50.3813958
  16.2129124  94.3583889  51.2536658  16.7017480  94.8081380  49.8932828
  15.9262610  96.7572652  42.6119335  15.4867600  96.2649030  43.3052192
  16.6770727  96.2145619  42.3711410   8.4054949  92.9484192  42.6143963
   9.2312969  92.6487964  42.2342606   8.0549001  92.1791815  43.0633752
  13.3736482  92.3010661  44.6841636  12.7516491  91.6381366  44.3843864
  14.0441349  92.3271793  44.0015284   6.6063554  90.8670519  43.5732896
   5.7695462  90.4392693  43.3916898   6.5787199  91.0602962  44.5103688
  13.4461009  80.7792449  54.2774143  13.4949165  81.6554571  53.8951912
  13.9883524  80.2369842  53.7045786  23.9315855  91.3233572  53.5575280
  23.1411399  91.3057711  53.0179779  23.6949210  91.8621866  54.3124316
  24.0513730  88.1726038  50.8708008  24.1011735  88.0076046  51.8123531
  23.9427653  87.3053297  50.4805889  12.9349989  90.8514584  38.1600097
  13.0838109  91.5350048  37.5066770  13.7416432  90.8319674  38.6749553
  21.3417493  84.1556966  52.1867315  22.2427355  84.0163431  51.8951313
  21.4165467  84.3211421  53.1265492  15.6760298  81.5323821  51.0320501
  14.8063607  81.8257387  50.7603090  15.9119778  82.1164266  51.7527765
  25.5531927  90.5922980  51.1150030  25.2616735  90.9552960  51.9513491
  24.9404058  89.8789988  50.9363362  26.7527609  88.1575860  43.6352600
  27.5874501  88.5965664  43.7990160  26.8886738  87.6814513  42.8160846
  23.8019115  85.7155594  49.5830088  24.2773237  85.9083241  48.7748939
  22.8784681  85.7714780  49.3373471  10.6902622  86.8779762  39.1661166
  10.4448664  85.9742092  39.3641376  10.8598536  86.8796912  38.2240644
  18.3799332  77.7503438  48.5485922  18.8981276  78.4864465  48.2232410
  18.0254464  78.0567431  49.3832681   9.9598269  82.6108119  36.6647327
   9.2667514  82.6852474  36.0087363   9.7150021  81.8468463  37.1868844
  18.6311926  74.1703721  44.0686818  18.9113680  73.5026910  44.6947245
  19.4162533  74.3632816  43.5561482  16.4345394  93.3462714  35.6311844
  15.8619361  93.9652902  35.1782316  17.0078188  93.8962076  36.1651766
  22.5020784  82.5921355  47.8158393  23.4538207  82.6919452  47.8370617
  22.3324235  81.7999623  48.3256478  20.5235164  79.6776938  48.0017794
  19.9285096  79.9581950  47.3064283  20.2384860  80.1670839  48.7734535
  19.6542654  93.6299865  36.7620427  20.5873327  93.5645426  36.9653302
  19.5665867  94.4656131  36.3034959  22.2830671  92.9465735  33.7224374
  22.2044302  92.6125599  34.6160132  23.1040338  93.4387503  33.7215847
  24.9808862  85.8127474  46.9300693  24.9485182  84.8743475  47.1160377
  25.5909486  85.8911511  46.1966518  16.8192193  84.6823527  32.9727897
  17.7651298  84.5529735  33.0416315  16.4406438  83.9438189  33.4497325
  25.1303350  82.6038518  46.9758976  24.6142399  81.8196974  46.7888905
  26.0143299  82.2757234  47.1405496  22.7914077  76.3479533  42.9354789
  22.5938899  76.0394621  43.8198121  23.4013783  77.0741172  43.0652719
  30.7985412  86.8743481  46.0706730  31.5288800  86.6128769  46.6314433
  30.1892357  86.1372203  46.1108798  28.8800709  85.0151344  46.6681181
  28.1533873  84.8807309  46.0597672  28.4647996  85.3228172  47.4737899
  16.7030885  88.7341273  54.4328554  17.6233895  88.9119872  54.6268600
  16.6680468  87.7897319  54.2808253  15.0035110  82.6073504  32.9082782
  14.0966565  82.3106616  32.9845496  15.2811091  82.3103322  32.0417068
   5.9213050  83.9279867  43.3581829   5.6015835  83.0745175  43.0656203
   5.3746479  84.1428445  44.1139796   9.6992958  86.6442308  47.0751335
   9.9178968  87.5759416  47.0939369  10.1118732  86.2850282  47.8606139
  16.6197176  77.1510393  39.0627023  15.8097904  76.8057478  39.4382270
  17.3081593  76.8417937  39.6514635  18.5487724  76.2288440  40.6851320
  19.1018763  76.6483894  41.3441343  18.7857810  75.3024188  40.7274276
  14.5720823  82.2175514  56.4654084  14.4717550  83.1669871  56.3966175
  14.3542365  81.8893753  55.5930154  13.7733895  79.4660439  33.0494761
  14.6353059  79.7915337  33.3090579  13.9584239  78.6791935  32.5367827
   5.7901310  87.5482778  45.3274950   5.0964782  87.1336731  44.8144905
   6.5374301  87.5903315  44.7308369  21.9266531  78.3388965  40.1929984
  21.3465200  78.9973769  39.8108037  21.6602464  77.5166310  39.7817402
  20.3770097  77.7394023  42.3951305  20.8769876  77.8510558  41.5865624
  21.0205705  77.4355076  43.0352113  14.4352093  85.6472653  55.2819146
  13.9519175  86.4473013  55.4883035  14.5213032  85.6580597  54.3286590
   7.7038053  87.4801032  43.2040965   7.6808741  87.5788720  42.2522848
   8.0138689  88.3266183  43.5258131  10.3625431  89.5377187  47.3187579
  11.3168684  89.5061130  47.2517511  10.1637954  89.0767811  48.1337805
  10.9524813  88.1078303  49.8858377  11.7717702  88.6022382  49.9093214
  11.2261621  87.1910271  49.8575945  20.7091409  80.4989056  39.2486333
  19.8217264  80.7838706  39.0306527  21.1245398  80.3382819  38.4013610
  24.0605945  80.5235577  42.9640672  24.8366335  81.0132029  43.2365289
  23.3354079  80.9493631  43.4212541  26.4978504  81.2363196  44.0214612
  27.0922995  80.9958932  43.3107921  26.5705088  80.5170326  44.6488149
   8.7175660  95.0796807  44.3357777   8.5830127  94.3197208  43.7695775
   8.3007722  95.8037707  43.8686566  19.8534623  90.2633730  33.3434353
  20.5570473  90.4683733  33.9592008  19.1297271  90.8310492  33.6083436
  20.6832433  86.0143592  39.4636623  20.6267634  86.4712143  38.6244255
  21.2360775  85.2534276  39.2859466  24.4937239  81.8033323  40.2886742
  24.2374173  81.4029959  41.1194950  23.8690107  82.5177117  40.1636881
  28.8049577  84.5429397  42.7958034  28.2449135  84.6122586  43.5689596
  28.1993080  84.3670381  42.0757530  11.8744785  95.9766124  44.5476220
  11.7577170  96.9211556  44.4454910  11.0537232  95.6739685  44.9362019
  21.7621320  90.7016260  35.3932813  22.5966924  90.2697458  35.2110287
  21.6005663  90.5298273  36.3209707  21.4167212  87.2048373  36.7589152
  21.3616016  87.0392644  35.8177596  20.7913267  87.9124406  36.9151342
   6.2059727  82.4416437  50.5850574   6.8518591  81.9315391  51.0737799
   5.9976878  83.1785119  51.1593999  18.7313119  89.5097285  56.0842715
  19.6004279  89.6837937  55.7229350  18.2519871  90.3291702  55.9618444
  14.7263338  76.7056482  36.3374470  14.7142007  77.6498322  36.4942741
  15.6186759  76.5226627  36.0433932  12.8999300  96.6294386  47.7632148
  13.8026546  96.6617996  48.0798643  12.6736670  95.6994837  47.7778484
  14.6552902  95.3825372  44.4242227  13.7048533  95.3827234  44.3106599
  14.9585388  94.6358107  43.9078262  18.5415457  73.2999258  40.5920407
  17.7747853  72.7457745  40.7377090  18.9526162  73.3721127  41.4534559
  10.5457218  79.5884054  54.6825588  11.4088680  79.2320859  54.8928913
   9.9722629  79.2497949  55.3700993  30.3905595 101.2185911  45.4887989
  31.0284005 101.0992658  44.7851329  30.2726438 102.1666755  45.5475942
  27.1995301 101.1713339  45.4249514  26.8613813 101.0554403  44.5370049
  28.0685070 100.7704504  45.4050520  23.0582117 103.0248815  41.4146405
  22.4946982 102.9338752  40.6462693  22.9434512 102.2048720  41.8948898
  27.6815084 102.3248190  51.3835720  27.6703725 101.9300989  50.5116223
  27.8435724 101.5914263  51.9769491  20.6046549 104.5200007  44.2530625
  21.3967841 104.1790831  43.8376925  20.8443199 104.6294982  45.1732779
  28.6381676 106.6919783  36.7260870  27.9869656 107.2773863  36.3394884
  29.4326039 107.2225978  36.7855907  22.5637303 103.7808920  37.1248004
  23.3368179 103.2337907  36.9860880  22.9162702 104.6453169  37.3362466
  24.4022345 105.1085302  50.3314904  24.1112211 106.0130933  50.2161570
  25.0379330 105.1501830  51.0458973  25.3278552 102.4862151  46.9216263
  25.9242125 102.2618173  46.2073226  25.3853524 101.7446896  47.5241711
  24.9003581  99.9401586  34.7566454  25.1529101  99.4183107  33.9949917
  23.9628140  99.7767732  34.8593138  29.9446864  98.9437364  42.5641197
  30.7309953  98.5256788  42.2131614  30.2085568  99.8483457  42.7322846
  30.1156941 104.3810215  37.2629854  29.4802774 104.4544841  37.9750759
  29.7854347 104.9703814  36.5848933  35.3455291  98.8812598  43.4674176
  36.0780463  98.3111814  43.7012005  34.5894646  98.4934198  43.9080682
  24.6199869 101.8429692  36.9590829  24.5036128 101.1674595  37.6271913
  24.7302129 101.3562066  36.1422982  26.9631410 101.3039839  40.6637518
  26.5989618 100.7770460  41.3750440  27.8198526 100.9138308  40.4904004
  32.8680711  92.5934172  47.9268785  32.5364036  93.4629583  47.7030000
  32.2726324  92.2770456  48.6062815  26.6036897  96.3329739  35.6598867
  26.7711300  97.2009975  36.0269338  26.4134066  96.4957021  34.7360156
  29.3612231 104.7946718  47.3264697  29.0612954 105.6971757  47.2180505
  29.0163290 104.5278901  48.1785850  22.8124712 101.2460515  43.3601402
  21.8875209 101.1136729  43.5679093  23.0609125 102.0254734  43.8571344
  32.7609374  97.3129258  45.0062135  31.8526252  97.2444666  44.7120896
  32.7096970  97.7901203  45.8343960  26.5826118  98.7887396  36.6445534
  26.4625743  99.2344447  37.4831014  25.8878707  99.1372714  36.0859072
  20.1733523 100.8893788  44.1945191  20.3025904 101.1428267  45.1084602
  19.4930974 101.4821496  43.8749846  24.3433010 111.5591038  40.2935665
  24.2657040 112.5098863  40.3724146  23.7394654 111.2136911  40.9510591
  26.8350240  98.7318904  52.9497032  26.0583574  99.2912824  52.9399897
  27.4740803  99.2175687  53.4711902  34.6271021  95.5145696  46.7840009
  33.9845401  95.8078230  46.1379803  34.1225949  95.3998617  47.5893205
  32.2811184  99.2608870  37.4725868  33.1929041  99.4936256  37.2973565
  31.7720831  99.8445914  36.9100946  25.0896612 101.5404357  52.5114999
  25.8311297 102.0789401  52.2349822  24.3833598 102.1670646  52.6686551
  30.5651952 103.6833497  51.1087160  30.9735308 103.2415908  50.3641793
  29.8429214 103.1086125  51.3621353  26.9183022  98.6206104  48.4820717
  27.7644217  99.0445518  48.6255366  26.8581660  97.9639728  49.1759280
  30.8880767 104.2434688  44.8639449  30.2589629 104.4080402  44.1615517
  30.5006429 104.6576298  45.6350413  34.7669999 105.1789126  42.2183813
  34.0821037 105.5588027  41.6680846  34.8513848 105.7884453  42.9515761
  30.0682467  96.2810473  50.1401891  29.8243399  97.0352533  49.6036167
  30.3442398  96.6595820  50.9749138  32.0220930 102.8249085  48.8179157
  32.2337825 103.4680845  48.1413538  31.9750678 101.9911401  48.3501087
  29.6247159  95.4366906  45.7215729  28.7631638  95.7348159  46.0132466
  29.6509594  95.6537304  44.7896761  26.4408729 103.9809096  42.1289534
  26.9047074 104.2596799  41.3394157  26.1765527 103.0792541  41.9462625
  23.3332810 103.5280578  45.0669298  23.9034167 103.9567846  44.4286782
  23.9240922 103.2463162  45.7653483  25.3777615 100.1032248  38.9379099
  26.0801658 100.5553292  39.4053026  25.0458243  99.4616067  39.5658993
  23.8257976  98.6944005  53.3130309  23.1956637  99.3760286  53.5465706
  23.7194064  98.5827087  52.3683447  19.1202949  98.3615801  44.2396233
  18.3302003  98.6173330  43.7636344  19.6114196  99.1764139  44.3448274
  33.1366758 105.7021040  46.9901514  33.9584202 105.3001228  46.7084196
  33.1329161 105.5989274  47.9417630  21.0717694  98.7260380  41.1979710
  20.2748857  98.8379075  41.7163205  20.8443286  99.0647033  40.3320600
  26.9023362 105.2505084  49.1462224  26.9667794 105.7125491  49.9820396
  26.1934285 104.6202449  49.2744534  17.4040652  98.6146292  46.6711224
  17.6548690  99.4993301  46.9368800  17.9400200  98.4350893  45.8986316
  41.2272751 102.0459789  43.3386485  40.4736460 101.4767187  43.1830490
  41.3620292 102.0122453  44.2857120  26.6171379 106.9173191  39.0141205
  26.4817054 107.7624727  39.4426053  27.1581192 107.1192469  38.2507139
  23.1038719  92.9964771  55.6755560  22.7105664  92.4430969  56.3503204
  23.9204859  93.3075349  56.0662077  20.0700777 104.4348629  39.5869130
  20.5825297 105.2291879  39.7374694  20.7223489 103.7374920  39.5202731
  21.8795661 107.5514385  41.6691883  22.0562290 108.4732350  41.4812867
  22.6752495 107.2372805  42.0986263  26.0206680  94.4122650  53.2675816
  26.7616393  95.0129803  53.1880279  26.2524603  93.6700288  52.7093859
  21.1648018  99.5979017  51.5454046  21.0501533  98.6964275  51.8461145
  20.3092536  99.8442714  51.1938863  28.2439856 107.5396758  53.1441547
  27.8003710 106.7533136  52.8262451  28.9057069 107.7275908  52.4785438
  23.0026977 109.0692559  47.6702225  23.5534402 108.9409623  46.8979219
  22.1638453 109.3687448  47.3197118  30.3421094 107.8199558  51.1722948
  30.3239569 108.6408439  50.6803217  31.2641014 107.6953633  51.3973089
  26.7994148 105.3343687  52.0146456  27.3322485 104.5731975  51.7845764
  26.2708229 105.0417339  52.7570611  29.9663843  90.4403753  47.5440098
  29.6228112  91.3305395  47.4679209  30.3342805  90.2505411  46.6809683
  18.0349693 102.7637283  40.3628700  18.8724915 103.1734292  40.1462408
  18.2127961 101.8236726  40.3328894  29.9314126 100.4312364  36.0512533
  29.4160749 101.2016969  36.2900921  29.6591434  99.7577500  36.6745595
  27.5161237  95.2762065  41.1097772  26.6602833  94.8868915  40.9303410
  27.9288188  95.3554026  40.2497557  29.0460383  92.8108408  45.5089331
  28.5425179  92.7738543  44.6957137  29.3390990  93.7201151  45.5685988
  25.2903269  92.8947138  44.5155513  26.1556266  92.6989947  44.1561403
  25.3580778  92.6657490  45.4424870  34.9048400 103.1844719  37.9865707
  34.1277842 102.8455878  37.5420869  35.5839881 103.1897342  37.3120672
  29.7200429  98.3039456  37.8772314  29.4150564  98.6185605  38.7282458
  30.6730871  98.3820876  37.9199647  28.1646861 104.4629679  39.5265268
  27.6368222 103.7282439  39.2138506  27.6634363 105.2404356  39.2805237
  33.1439707 102.6578700  44.6432315  32.4863381 103.3477961  44.7312443
  33.9480106 103.0475132  44.9866301  22.8965588  95.1249346  41.8871880
  23.4709340  94.9024527  41.1545073  23.4836571  95.1938040  42.6400481
  31.9545165 101.0123073  42.6936256  32.4677047 101.6453065  43.1957966
  32.6046389 100.4124268  42.3279617  23.2235175  97.1553807  35.9067765
  22.3872488  97.4928493  36.2277040  23.0839945  97.0202787  34.9694902
  25.1988256  91.9990595  40.6146949  24.5452668  91.6839612  39.9903564
  25.1568730  91.3766335  41.3406772  26.3099461 102.2809890  32.5300241
  25.4026522 102.0499143  32.7291390  26.8070493 101.4847509  32.7174223
  29.2167540 110.9907397  35.4496928  28.5429238 111.2939094  36.0581885
  29.6033362 111.7936477  35.1002385  28.4325996  98.4872528  44.9394597
  27.5148558  98.7087475  44.7816285  28.8486140  98.5618839  44.0806304
  29.2161044  99.8863944  40.0697277  29.9632863 100.3985341  39.7604399
  29.4852634  99.5647997  40.9301671  27.4887694 102.3822485  37.0524232
  26.5798913 102.0981517  37.1496701  27.5182778 102.8021563  36.1927538
  32.7206962 105.9929074  40.8215399  32.2669289 105.1519984  40.8780590
  32.0900928 106.6290472  41.1590179  31.6639881  96.9221060  42.0516067
  30.9262638  96.4098446  42.3826309  31.9166655  96.4821442  41.2399343
  31.1639901 107.8305571  41.7565217  31.4562875 108.3910628  41.0377583
  31.6738521 108.1234132  42.5118376  31.7651508  89.6997312  42.6457836
  32.0710385  88.8394676  42.3583751  32.4904113  90.2914932  42.4456830
  18.0575865 100.1027999  41.0339434  17.8600264  99.5097359  40.3090500
  17.5022529  99.7980209  41.7515373  26.0372588  99.9951105  43.1534027
  26.0921198  99.0424942  43.0776503  25.2263790 100.1510544  43.6375325
  27.1863782 103.9231228  34.3912310  26.7483212 103.2067087  33.9317947
  27.9274223 104.1507343  33.8297402  23.9764948  98.6128165  40.9124406
  23.1632814  98.9122336  41.3189598  24.4723942  98.2183854  41.6298888
  26.1273526 108.6085922  42.8458670  26.0849705 108.8346768  41.9167202
  27.0436225 108.3749296  42.9944472  29.5739160  99.0769989  49.7439300
  29.9288548  99.3041463  50.6033765  30.2211291  99.4088366  49.1216555
  35.3036897 102.1988425  40.4488629  35.1654795 102.3890021  39.5209818
  34.9473116 102.9607808  40.9056680  23.4679023  96.1846520  46.5285641
  24.1078402  96.0435280  45.8308604  22.6356553  95.8981034  46.1524243
  35.3306276 104.2664952  45.4599900  35.7642783 104.1740241  46.3082954
  36.0437857 104.2422453  44.8219916  24.2439327 105.4848951  42.6420633
  25.0379925 104.9899271  42.4403208  23.5331019 104.9566814  42.2788339
  29.0634171 107.8667046  46.9933001  29.1171194 108.4357983  47.7610717
  28.1948953 108.0368931  46.6287038  20.5522090  99.6292033  38.7180386
  19.6219678  99.5676488  38.9350348  20.6479562  99.1067985  37.9217027
  20.4707639  96.1546845  41.3058628  20.7314457  97.0692179  41.1967788
  21.2924812  95.6871288  41.4555240  21.9432565  97.5684603  48.4757452
  22.6155618  97.3601965  47.8270101  21.1162351  97.3706689  48.0362684
  36.1921826 104.3088653  47.9932786  36.3857716 105.2134463  48.2392061
  36.0922444 103.8496072  48.8271371  27.8458137  94.1946544  50.4923113
  27.1986052  94.8936493  50.3987589  28.6159152  94.6282687  50.8599361
  31.2536935 104.4595396  53.5673666  31.1022441 104.2305947  52.6503750
  31.2441614 105.4165997  53.5805011  28.0222271 102.0327308  48.5519933
  28.9514331 102.1838468  48.3788900  27.6013301 102.1211329  47.6968579
  26.8210603 106.0577973  46.3218470  26.6821689 105.6896757  47.1944408
  26.0325199 106.5725612  46.1502428  27.4158755 111.1587069  37.6644007
  27.5910510 110.6875113  38.4789629  26.7291543 111.7852836  37.8925268
  28.3715818 105.4359576  43.7107308  28.0365651 105.3960346  44.6064958
  27.8719764 104.7704292  43.2377718  22.3460062 100.8427206  49.2359889
  22.2079860 100.1107444  49.8371428  23.2564985 100.7536106  48.9544077
  31.3075010 102.7815610  33.9844368  30.6904180 102.0562438  33.8877420
  30.8391498 103.5424970  33.6411442  24.9742363 100.5547165  48.7243569
  25.6841981  99.9140357  48.6830187  24.9311671 100.8060060  49.6469750
  32.9629141 107.4914518  51.6450148  32.9041687 106.8073738  50.9780731
  33.3648660 108.2333508  51.1930774  23.6871297  97.5412383  50.5439208
  23.1508654  97.0903121  51.1960805  23.0988005  97.6758292  49.8009673
  21.9819840 114.3076432  44.4383867  22.2216438 114.9394956  45.1162886
  21.1389037 113.9564472  44.7249226  23.0973556  97.0001034  33.1065672
  22.2203022  96.8789835  32.7427919  23.5731309  96.2087113  32.8544561
  32.9646549 105.4554102  49.8764128  32.0773327 105.1180024  49.9990527
  33.5345100 104.7237133  50.1132893  14.6175696 101.7878194  43.2007179
  15.3046735 101.4739924  42.6128194  14.4623824 102.6919559  42.9274431
  19.4210418  96.6768391  47.6292203  19.3368607  96.0694060  46.8942613
  18.5993124  97.1677409  47.6301699  26.4947702 110.1155555  46.8425371
  26.4217873 110.9210526  47.3544676  26.0525095 110.3147520  46.0173392
  26.2837482 109.3527325  40.3528193  25.5005003 109.8949005  40.4466417
  26.9830227 109.8701304  40.7522434  29.5934132  95.1621954  42.9962398
  30.0902831  94.4091916  42.6763468  28.8221113  95.1986271  42.4305607
  37.4463889 100.8662320  44.6380689  37.4353765 101.7487035  44.2674623
  36.5781269 100.5133870  44.4435226  28.9546385 110.0142389  48.9983530
  29.6674358 110.6489853  48.9259431  28.4636414 110.1106255  48.1823531
  30.6763912 103.9193641  40.5700821  29.7420191 104.0395104  40.4005526
  30.8540581 103.0166108  40.3060831  26.1769100  97.3039337  42.7234082
  25.8066888  96.7510377  43.4114988  26.6728193  96.6997471  42.1709083
  34.0636464  99.7610961  41.1050855  34.5296916 100.5938952  41.0311158
  34.5143964  99.2955942  41.8096114  24.0058299 107.7636832  49.8189100
  24.7067758 108.3973315  49.9718495  23.5353414 108.1051564  49.0584740
  32.1312695 106.1054782  38.1037007  32.4072539 105.9911376  39.0130882
  31.2617194 105.7072267  38.0649181  32.0353126  92.1291548  45.1441757
  31.1216206  92.3595774  45.3123964  32.4646228  92.2129992  45.9955789
  31.8059585 100.3181440  47.6441651  31.1531035 100.5657347  46.9894104
  32.1839965  99.5045578  47.3104128  28.7666759 110.3541133  41.7469821
  28.9489153 109.5362789  42.2097573  29.5899745 110.5708825  41.3094711
  29.1008924 109.2809318  39.0084870  29.6296691 108.7701772  38.3955032
  29.3637144 108.9651848  39.8730403  27.8547158 101.0601251  54.1307688
  27.1787795 100.9595380  54.8010063  28.6774792 100.9040464  54.5943685
  19.6026017 107.2973187  46.7520203  20.1879454 106.5516875  46.8848107
  19.4050856 107.6077144  47.6356867  22.4564672 110.3324435  41.7682646
  21.7875048 110.8170562  41.2846686  22.3177542 110.5793655  42.6826024
  14.1943672  99.8678787  45.4724646  14.2327771  99.3342378  46.2661764
  13.6883965  99.3413993  44.8535623  26.5969941 112.3668178  48.3665304
  27.1488249 112.5299800  49.1314389  26.9376134 112.9572616  47.6945329
  21.5734434  94.7143328  48.9687189  21.6375761  95.5758159  48.5564586
  21.5101554  94.1017329  48.2359547  21.0486707  96.7866460  52.6160223
  21.6758745  96.4043538  53.2297747  20.1914625  96.5680662  52.9815915
  31.4480815 107.1929436  54.2213958  31.9920719 107.8059394  53.7268913
  30.8667660 107.7509014  54.7380971  17.8252249  98.5942889  38.5478578
  18.1205690  97.6853568  38.4945631  16.9240285  98.5730629  38.2259580
  29.7338328 110.3150154  45.3528986  29.6089468 109.5139893  44.8439932
  30.3917419 110.8096347  44.8642956  21.3546496  96.6698886  44.5306126
  20.6333082  97.2834854  44.3913600  22.1439752  97.2056651  44.4522772
  31.7973237 108.1159174  46.9808536  30.8503572 107.9964525  46.9086863
  32.1456010 107.2281672  47.0634798  24.1572810  94.0053313  50.8046778
  24.6807212  94.2515609  51.5673087  23.9385143  94.8373347  50.3849915
  19.5540091  96.2756987  38.6717903  19.2252797  95.3954366  38.4893009
  19.9079462  96.2204656  39.5594292  28.8019670 107.9111890  43.1812888
  28.6544632 106.9828597  43.3620458  29.6273163 107.9331981  42.6969964
  22.6681914  96.5629957  39.0393381  23.0077987  97.0915878  38.3171989
  23.1154035  96.9010363  39.8151947  32.4053792 108.7340449  44.2677761
  33.3300339 108.5283310  44.1302212  32.2369095 108.4856850  45.1767103
  25.3625355  94.9467008  48.4896449  25.0222175  94.1474821  48.8917128
  24.6564361  95.2468719  47.9173282  26.0141827  92.0316320  46.9423772
  26.8367896  91.5576798  46.8202662  26.2579890  92.8106804  47.4422458
  24.6550061  95.0604579  37.2386673  25.3758424  95.4385831  36.7350390
  24.0315365  95.7793455  37.3421651  28.7981184  95.7649728  38.1745006
  29.0144799  96.6474365  37.8733834  28.3175251  95.3735941  37.4450648
  23.5380406  98.7235441  44.7515750  23.3924986  99.0375744  45.6440032
  23.0605609  99.3420341  44.1986649  25.3976788  95.7137989  44.7996640
  25.3838357  94.8179082  44.4628938  26.1149217  95.7208652  45.4334926
  27.2502919  96.1475329  46.8449767  26.9920697  97.0692400  46.8434098
  26.7187959  95.7505763  47.5350231  32.1949108 109.2526116  39.6239853
  32.3685985 108.6872539  38.8713705  32.6877999 110.0527011  39.4419343
  18.0126068 101.2640785  47.6903411  17.4679536 102.0400593  47.8223686
  18.8905418 101.6111590  47.5322533  24.8013684  94.5952369  40.0684210
  24.9229596  93.6669015  40.2675097  24.5115727  94.6091055  39.1562525
  27.6704875  92.2807279  43.2050930  27.6926572  92.3446613  42.2502909
  28.0872934  91.4411788  43.3991436  38.0488499 102.0162539  41.2430152
  38.4919645 101.2669864  40.8449276  37.1715009 102.0072675  40.8603884
  33.1824280 108.5692880  36.7236751  33.8775185 109.1899573  36.9424065
  33.5247430 107.7188232  36.9989129  18.7992090 100.3910681  50.5833568
  18.0573826 100.5393317  51.1698199  18.4784834 100.6518947  49.7200318
  35.0815703 106.0192586  38.2524082  35.6067028 106.3579859  37.5273402
  34.9938056 105.0839601  38.0687216  26.7435752 109.9326660  50.3813958
  27.0522879 109.6875806  51.2536658  27.5411234 110.1373298  49.8932828
  26.7656364 112.0864569  42.6119335  26.3261355 111.5940948  43.3052192
  27.5164481 111.5437537  42.3711410  19.2448703 108.2776110  42.6143963
  20.0706723 107.9779882  42.2342606  18.8942755 107.5083733  43.0633752
  24.2130236 107.6302578  44.6841636  23.5910246 106.9673283  44.3843864
  24.8835103 107.6563710  44.0015284  17.4457308 106.1962437  43.5732896
  16.6089217 105.7684611  43.3916898  17.4180954 106.3894880  44.5103688
  24.2854764  96.1084366  54.2774143  24.3342919  96.9846489  53.8951912
  24.8277278  95.5661759  53.7045786  34.7709610 106.6525490  53.5575280
  33.9805153 106.6349628  53.0179779  34.5342964 107.1913783  54.3124316
  34.8907485 103.5017956  50.8708008  34.9405490 103.3367963  51.8123531
  34.7821408 102.6345215  50.4805889  23.7743743 106.1806502  38.1600097
  23.9231864 106.8641966  37.5066770  24.5810187 106.1611592  38.6749553
  32.1811247  99.4848884  52.1867315  33.0821110  99.3455349  51.8951313
  32.2559221  99.6503339  53.1265492  26.5154052  96.8615739  51.0320501
  25.6457362  97.1549305  50.7603090  26.7513533  97.4456184  51.7527765
  36.3925681 105.9214897  51.1150030  36.1010490 106.2844878  51.9513491
  35.7797813 105.2081906  50.9363362  37.5921364 103.4867777  43.6352600
  38.4268255 103.9257581  43.7990160  37.7280493 103.0106430  42.8160846
  34.6412870 101.0447512  49.5830088  35.1166991 101.2375158  48.7748939
  33.7178435 101.1006698  49.3373471  21.5296376 102.2071679  39.1661166
  21.2842418 101.3034009  39.3641376  21.6992291 102.2088830  38.2240644
  29.2193086  93.0795356  48.5485922  29.7375030  93.8156383  48.2232410
  28.8648219  93.3859349  49.3832681  20.7992024  97.9400037  36.6647327
  20.1061269  98.0144392  36.0087363  20.5543776  97.1760381  37.1868844
  29.4705680  89.4995638  44.0686818  29.7507434  88.8318827  44.6947245
  30.2556287  89.6924734  43.5561482  27.2739149 108.6754632  35.6311844
  26.7013116 109.2944819  35.1782316  27.8471942 109.2253994  36.1651766
  33.3414539  97.9213272  47.8158393  34.2931962  98.0211370  47.8370617
  33.1717989  97.1291541  48.3256478  31.3628918  95.0068855  48.0017794
  30.7678850  95.2873868  47.3064283  31.0778615  95.4962756  48.7734535
  30.4936409 108.9591782  36.7620427  31.4267082 108.8937344  36.9653302
  30.4059621 109.7948049  36.3034959  33.1224425 108.2757653  33.7224374
  33.0438057 107.9417516  34.6160132  33.9434092 108.7679421  33.7215847
  35.8202616 101.1419392  46.9300693  35.7878937 100.2035393  47.1160377
  36.4303240 101.2203429  46.1966518  27.6585947 100.0115445  32.9727897
  28.6045052  99.8821653  33.0416315  27.2800192  99.2730107  33.4497325
  35.9697105  97.9330435  46.9758976  35.4536154  97.1488892  46.7888905
  36.8537053  97.6049152  47.1405496  33.6307832  91.6771451  42.9354789
  33.4332653  91.3686539  43.8198121  34.2407537  92.4033090  43.0652719
  41.6379166 102.2035399  46.0706730  42.3682555 101.9420687  46.6314433
  41.0286112 101.4664121  46.1108798  39.7194463 100.3443261  46.6681181
  38.9927627 100.2099226  46.0597672  39.3041750 100.6520090  47.4737899
  27.5424640 104.0633191  54.4328554  28.4627649 104.2411790  54.6268600
  27.5074223 103.1189236  54.2808253  25.8428864  97.9365421  32.9082782
  24.9360320  97.6398534  32.9845496  26.1204845  97.6395239  32.0417068
  16.7606805  99.2571785  43.3581829  16.4409589  98.4037093  43.0656203
  16.2140233  99.4720363  44.1139796  20.5386712 101.9734226  47.0751335
  20.7572722 102.9051333  47.0939369  20.9512486 101.6142200  47.8606139
  27.4590930  92.4802311  39.0627023  26.6491659  92.1349396  39.4382270
  28.1475347  92.1709855  39.6514635  29.3881478  91.5580358  40.6851320
  29.9412517  91.9775811  41.3441343  29.6251565  90.6316106  40.7274276
  25.4114578  97.5467431  56.4654084  25.3111305  98.4961788  56.3966175
  25.1936120  97.2185670  55.5930154  24.6127649  94.7952356  33.0494761
  25.4746813  95.1207255  33.3090579  24.7977993  94.0083852  32.5367827
  16.6295065 102.8774696  45.3274950  15.9358536 102.4628649  44.8144905
  17.3768056 102.9195233  44.7308369  32.7660286  93.6680883  40.1929984
  32.1858955  94.3265687  39.8108037  32.4996218  92.8458228  39.7817402
  31.2163852  93.0685941  42.3951305  31.7163630  93.1802475  41.5865624
  31.8599460  92.7646993  43.0352113  25.2745848 100.9764570  55.2819146
  24.7912929 101.7764930  55.4883035  25.3606787 100.9872515  54.3286590
  18.5431807 102.8092950  43.2040965  18.5202495 102.9080637  42.2522848
  18.8532444 103.6558101  43.5258131  21.2019185 104.8669105  47.3187579
  22.1562439 104.8353047  47.2517511  21.0031709 104.4059729  48.1337805
  21.7918567 103.4370221  49.8858377  22.6111456 103.9314300  49.9093214
  22.0655375 102.5202189  49.8575945  31.5485164  95.8280973  39.2486333
  30.6611019  96.1130624  39.0306527  31.9639153  95.6674737  38.4013610
  34.8999700  95.8527494  42.9640672  35.6760090  96.3423947  43.2365289
  34.1747834  96.2785549  43.4212541  37.3372258  96.5655114  44.0214612
  37.9316749  96.3250849  43.3107921  37.4098842  95.8462244  44.6488149
  19.5569414 110.4088724  44.3357777  19.4223882 109.6489125  43.7695775
  19.1401476 111.1329624  43.8686566  30.6928377 105.5925648  33.3434353
  31.3964227 105.7975650  33.9592008  29.9691026 106.1602410  33.6083436
  31.5226187 101.3435509  39.4636623  31.4661389 101.8004061  38.6244255
  32.0754530 100.5826194  39.2859466  35.3330993  97.1325241  40.2886742
  35.0767927  96.7321877  41.1194950  34.7083861  97.8469035  40.1636881
  39.6443331  99.8721314  42.7958034  39.0842889  99.9414504  43.5689596
  39.0386834  99.6962299  42.0757530  22.7138540 111.3058041  44.5476220
  22.5970924 112.2503474  44.4454910  21.8930986 111.0031603  44.9362019
  32.6015074 106.0308177  35.3932813  33.4360678 105.5989376  35.2110287
  32.4399417 105.8590191  36.3209707  32.2560967 102.5340291  36.7589152
  32.2009770 102.3684562  35.8177596  31.6307022 103.2416323  36.9151342
  17.0453482  97.7708355  50.5850574  17.6912345  97.2607309  51.0737799
  16.8370633  98.5077037  51.1593999  29.5706874 104.8389202  56.0842715
  30.4398033 105.0129855  55.7229350  29.0913625 105.6583619  55.9618444
  25.5657092  92.0348400  36.3374470  25.5535762  92.9790239  36.4942741
  26.4580514  91.8518545  36.0433932  23.7393054 111.9586303  47.7632148
  24.6420301 111.9909914  48.0798643  23.5130424 111.0286754  47.7778484
  25.4946656 110.7117290  44.4242227  24.5442287 110.7119152  44.3106599
  25.7979142 109.9650024  43.9078262  29.3809212  88.6291176  40.5920407
  28.6141607  88.0749663  40.7377090  29.7919917  88.7013045  41.4534559
  21.3850973  94.9175972  54.6825588  22.2482434  94.5612777  54.8928913
  20.8116383  94.5789867  55.3700993  41.2299350 116.5477828  45.4887989
  41.8677759 116.4284576  44.7851329  41.1120192 117.4958672  45.5475942
  38.0389056 116.5005256  45.4249514  37.7007567 116.3846321  44.5370049
  38.9078824 116.0996422  45.4050520  33.8975872 118.3540733  41.4146405
  33.3340737 118.2630670  40.6462693  33.7828267 117.5340637  41.8948898
  38.5208839 117.6540108  51.3835720  38.5097480 117.2592906  50.5116223
  38.6829478 116.9206181  51.9769491  31.4440303 119.8491924  44.2530625
  32.2361595 119.5082749  43.8376925  31.6836954 119.9586899  45.1732779
  39.4775430 122.0211701  36.7260870  38.8263410 122.6065781  36.3394884
  40.2719793 122.5517895  36.7855907  33.4031057 119.1100838  37.1248004
  34.1761933 118.5629825  36.9860880  33.7556456 119.9745087  37.3362466
  35.2416100 120.4377220  50.3314904  34.9505966 121.3422851  50.2161570
  35.8773084 120.4793748  51.0458973  36.1672307 117.8154068  46.9216263
  36.7635879 117.5910091  46.2073226  36.2247278 117.0738814  47.5241711
  35.7397335 115.2693504  34.7566454  35.9922856 114.7475025  33.9949917
  34.8021894 115.1059649  34.8593138  40.7840618 114.2729282  42.5641197
  41.5703707 113.8548705  42.2131614  41.0479322 115.1775374  42.7322846
  40.9550695 119.7102132  37.2629854  40.3196528 119.7836759  37.9750759
  40.6248102 120.2995731  36.5848933  46.1849045 114.2104515  43.4674176
  46.9174217 113.6403732  43.7012005  45.4288401 113.8226116  43.9080682
  35.4593624 117.1721610  36.9590829  35.3429882 116.4966513  37.6271913
  35.5695884 116.6853984  36.1422982  37.8025165 116.6331757  40.6637518
  37.4383372 116.1062378  41.3750440  38.6592281 116.2430226  40.4904004
  43.7074465 107.9226089  47.9268785  43.3757790 108.7921500  47.7030000
  43.1120079 107.6062373  48.6062815  37.4430652 111.6621657  35.6598867
  37.6105054 112.5301893  36.0269338  37.2527821 111.8248938  34.7360156
  40.2005985 120.1238635  47.3264697  39.9006708 121.0263674  47.2180505
  39.8557045 119.8570819  48.1785850  33.6518467 116.5752432  43.3601402
  32.7268963 116.4428646  43.5679093  33.9002880 117.3546652  43.8571344
  43.6003129 112.6421176  45.0062135  42.6920006 112.5736584  44.7120896
  43.5490725 113.1193121  45.8343960  37.4219873 114.1179314  36.6445534
  37.3019498 114.5636365  37.4831014  36.7272461 114.4664632  36.0859072
  31.0127278 116.2185706  44.1945191  31.1419659 116.4720185  45.1084602
  30.3324729 116.8113414  43.8749846  35.1826765 126.8882956  40.2935665
  35.1050795 127.8390781  40.3724146  34.5788408 126.5428828  40.9510591
  37.6743995 114.0610821  52.9497032  36.8977329 114.6204741  52.9399897
  38.3134558 114.5467604  53.4711902  45.4664775 110.8437614  46.7840009
  44.8239155 111.1370147  46.1379803  44.9619704 110.7290534  47.5893205
  43.1204939 114.5900787  37.4725868  44.0322795 114.8228174  37.2973565
  42.6114586 115.1737831  36.9100946  35.9290367 116.8696275  52.5114999
  36.6705051 117.4081319  52.2349822  35.2227352 117.4962563  52.6686551
  41.4045707 119.0125415  51.1087160  41.8129063 118.5707826  50.3641793
  40.6822968 118.4378043  51.3621353  37.7576777 113.9498022  48.4820717
  38.6037972 114.3737435  48.6255366  37.6975414 113.2931646  49.1759280
  41.7274521 119.5726606  44.8639449  41.0983384 119.7372320  44.1615517
  41.3400183 119.9868215  45.6350413  45.6063753 120.5081044  42.2183813
  44.9214791 120.8879945  41.6680846  45.6907602 121.1176370  42.9515761
  40.9076222 111.6102390  50.1401891  40.6637154 112.3644451  49.6036167
  41.1836152 111.9887738  50.9749138  42.8614685 118.1541003  48.8179157
  43.0731580 118.7972762  48.1413538  42.8144433 117.3203319  48.3501087
  40.4640914 110.7658823  45.7215729  39.6025393 111.0640077  46.0132466
  40.4903348 110.9829222  44.7896761  37.2802483 119.3101014  42.1289534
  37.7440829 119.5888717  41.3394157  37.0159281 118.4084458  41.9462625
  34.1726564 118.8572495  45.0669298  34.7427921 119.2859764  44.4286782
  34.7634676 118.5755080  45.7653483  36.2171369 115.4324166  38.9379099
  36.9195412 115.8845210  39.4053026  35.8851998 114.7907985  39.5658993
  34.6651731 114.0235923  53.3130309  34.0350391 114.7052204  53.5465706
  34.5587819 113.9119004  52.3683447  29.9596703 113.6907719  44.2396233
  29.1695757 113.9465247  43.7636344  30.4507950 114.5056057  44.3448274
  43.9760513 121.0312958  46.9901514  44.7977956 120.6293145  46.7084196
  43.9722916 120.9281192  47.9417630  31.9111448 114.0552298  41.1979710
  31.1142612 114.1670992  41.7163205  31.6837041 114.3938950  40.3320600
  37.7417116 120.5797001  49.1462224  37.8061549 121.0417409  49.9820396
  37.0328040 119.9494366  49.2744534  28.2434406 113.9438209  46.6711224
  28.4942444 114.8285219  46.9368800  28.7793954 113.7642811  45.8986316
  52.0666506 117.3751706  43.3386485  51.3130214 116.8059105  43.1830490
  52.2014047 117.3414371  44.2857120  37.4565134 122.2465109  39.0141205
  37.3210809 123.0916644  39.4426053  37.9974946 122.4484386  38.2507139
  33.9432473 108.3256689  55.6755560  33.5499419 107.7722887  56.3503204
  34.7598614 108.6367267  56.0662077  30.9094531 119.7640547  39.5869130
  31.4219052 120.5583797  39.7374694  31.5617244 119.0666837  39.5202731
  32.7189416 122.8806303  41.6691883  32.8956044 123.8024268  41.4812867
  33.5146249 122.5664722  42.0986263  36.8600434 109.7414568  53.2675816
  37.6010148 110.3421721  53.1880279  37.0918357 108.9992205  52.7093859
  32.0041772 114.9270935  51.5454046  31.8895288 114.0256192  51.8461145
  31.1486290 115.1734632  51.1938863  39.0833610 122.8688675  53.1441547
  38.6397464 122.0825054  52.8262451  39.7450824 123.0567826  52.4785438
  33.8420731 124.3984477  47.6702225  34.3928156 124.2701540  46.8979219
  33.0032207 124.6979366  47.3197118  41.1814848 123.1491475  51.1722948
  41.1633324 123.9700356  50.6803217  42.1034768 123.0245550  51.3973089
  37.6387902 120.6635605  52.0146456  38.1716239 119.9023893  51.7845764
  37.1101983 120.3709256  52.7570611  40.8057597 105.7695671  47.5440098
  40.4621867 106.6597312  47.4679209  41.1736560 105.5797328  46.6809683
  28.8743448 118.0929201  40.3628700  29.7118670 118.5026209  40.1462408
  29.0521716 117.1528643  40.3328894  40.7707880 115.7604282  36.0512533
  40.2554503 116.5308886  36.2900921  40.4985188 115.0869418  36.6745595
  38.3554991 110.6053983  41.1097772  37.4996587 110.2160833  40.9303410
  38.7681943 110.6845943  40.2497557  39.8854138 108.1400326  45.5089331
  39.3818933 108.1030461  44.6957137  40.1784745 109.0493069  45.5685988
  36.1297024 108.2239056  44.5155513  36.9950020 108.0281864  44.1561403
  36.1974533 107.9949407  45.4424870  45.7442154 118.5136636  37.9865707
  44.9671597 118.1747796  37.5420869  46.4233635 118.5189260  37.3120672
  40.5594183 113.6331374  37.8772314  40.2544319 113.9477523  38.7282458
  41.5124625 113.7112794  37.9199647  39.0040615 119.7921597  39.5265268
  38.4761977 119.0574357  39.2138506  38.5028118 120.5696274  39.2805237
  43.9833461 117.9870618  44.6432315  43.3257136 118.6769879  44.7312443
  44.7873860 118.3767050  44.9866301  33.7359343 110.4541263  41.8871880
  34.3103095 110.2316445  41.1545073  34.3230325 110.5229958  42.6400481
  42.7938920 116.3414990  42.6936256  43.3070802 116.9744982  43.1957966
  43.4440144 115.7416186  42.3279617  34.0628930 112.4845724  35.9067765
  33.2266242 112.8220411  36.2277040  33.9233699 112.3494704  34.9694902
  36.0382010 107.3282512  40.6146949  35.3846423 107.0131530  39.9903564
  35.9962485 106.7058253  41.3406772  37.1493215 117.6101807  32.5300241
  36.2420277 117.3791061  32.7291390  37.6464247 116.8139427  32.7174223
  40.0561294 126.3199315  35.4496928  39.3822993 126.6231011  36.0581885
  40.4427116 127.1228395  35.1002385  39.2719751 113.8164446  44.9394597
  38.3542312 114.0379393  44.7816285  39.6879894 113.8910756  44.0806304
  40.0554799 115.2155862  40.0697277  40.8026617 115.7277259  39.7604399
  40.3246388 114.8939914  40.9301671  38.3281449 117.7114402  37.0524232
  37.4192668 117.4273435  37.1496701  38.3576532 118.1313481  36.1927538
  43.5600716 121.3220992  40.8215399  43.1063043 120.4811902  40.8780590
  42.9294683 121.9582390  41.1590179  42.5033636 112.2512978  42.0516067
  41.7656392 111.7390364  42.3826309  42.7560409 111.8113359  41.2399343
  42.0033655 123.1597488  41.7565217  42.2956630 123.7202546  41.0377583
  42.5132276 123.4526049  42.5118376  42.6045263 105.0289230  42.6457836
  42.9104140 104.1686593  42.3583751  43.3297868 105.6206850  42.4456830
  28.8969619 115.4319916  41.0339434  28.6994019 114.8389277  40.3090500
  28.3416283 115.1272127  41.7515373  36.8766343 115.3243023  43.1534027
  36.9314953 114.3716859  43.0776503  36.0657545 115.4802462  43.6375325
  38.0257536 119.2523146  34.3912310  37.5876966 118.5359005  33.9317947
  38.7667977 119.4799261  33.8297402  34.8158703 113.9420083  40.9124406
  34.0026568 114.2414253  41.3189598  35.3117697 113.5475771  41.6298888
  36.9667281 123.9377840  42.8458670  36.9243459 124.1638686  41.9167202
  37.8829979 123.7041214  42.9944472  40.4132914 114.4061907  49.7439300
  40.7682302 114.6333380  50.6033765  41.0605046 114.7380284  49.1216555
  46.1430651 117.5280343  40.4488629  46.0048550 117.7181939  39.5209818
  45.7866870 118.2899726  40.9056680  34.3072777 111.5138438  46.5285641
  34.9472157 111.3727197  45.8308604  33.4750308 111.2272952  46.1524243
  46.1700031 119.5956870  45.4599900  46.6036538 119.5032159  46.3082954
  46.8831612 119.5714370  44.8219916  35.0833081 120.8140869  42.6420633
  35.8773680 120.3191189  42.4403208  34.3724774 120.2858732  42.2788339
  39.9027926 123.1958964  46.9933001  39.9564948 123.7649900  47.7610717
  39.0342707 123.3660849  46.6287038  31.3915845 114.9583950  38.7180386
  30.4613433 114.8968406  38.9350348  31.4873317 114.4359903  37.9217027
  31.3101394 111.4838763  41.3058628  31.5708211 112.3984096  41.1967788
  32.1318566 111.0163206  41.4555240  32.7826319 112.8976520  48.4757452
  33.4549373 112.6893882  47.8270101  31.9556106 112.6998606  48.0362684
  47.0315580 119.6380571  47.9932786  47.2251471 120.5426381  48.2392061
  46.9316199 119.1787990  48.8271371  38.6851891 109.5238461  50.4923113
  38.0379806 110.2228411  50.3987589  39.4552907 109.9574605  50.8599361
  42.0930689 119.7887313  53.5673666  41.9416196 119.5597865  52.6503750
  42.0835369 120.7457915  53.5805011  38.8616026 117.3619226  48.5519933
  39.7908086 117.5130386  48.3788900  38.4407056 117.4503247  47.6968579
  37.6604357 121.3869891  46.3218470  37.5215443 121.0188675  47.1944408
  36.8718954 121.9017530  46.1502428  38.2552509 126.4878987  37.6644007
  38.4304265 126.0167030  38.4789629  37.5685297 127.1144753  37.8925268
  39.2109572 120.7651493  43.7107308  38.8759405 120.7252263  44.6064958
  38.7113518 120.0996209  43.2377718  33.1853816 116.1719123  49.2359889
  33.0473614 115.4399362  49.8371428  34.0958740 116.0828023  48.9544077
  42.1468764 118.1107528  33.9844368  41.5297935 117.3854356  33.8877420
  41.6785253 118.8716888  33.6411442  35.8136117 115.8839083  48.7243569
  36.5235736 115.2432275  48.6830187  35.7705425 116.1351977  49.6469750
  43.8022896 122.8206436  51.6450148  43.7435442 122.1365656  50.9780731
  44.2042414 123.5625426  51.1930774  34.5265051 112.8704301  50.5439208
  33.9902408 112.4195039  51.1960805  33.9381760 113.0050209  49.8009673
  32.8213595 129.6368350  44.4383867  33.0610193 130.2686874  45.1162886
  31.9782791 129.2856390  44.7249226  33.9367310 112.3292952  33.1065672
  33.0596776 112.2081753  32.7427919  34.4125063 111.5379030  32.8544561
  43.8040303 120.7846020  49.8764128  42.9167082 120.4471942  49.9990527
  44.3738854 120.0529051  50.1132893  25.4569450 117.1170112  43.2007179
  26.1440490 116.8031842  42.6128194  25.3017579 118.0211476  42.9274431
  30.2604172 112.0060308  47.6292203  30.1762361 111.3985978  46.8942613
  29.4386879 112.4969327  47.6301699  37.3341456 125.4447472  46.8425371
  37.2611628 126.2502444  47.3544676  36.8918850 125.6439438  46.0173392
  37.1231236 124.6819242  40.3528193  36.3398758 125.2240922  40.4466417
  37.8223981 125.1993222  40.7522434  40.4327886 110.4913872  42.9962398
  40.9296586 109.7383834  42.6763468  39.6614868 110.5278188  42.4305607
  48.2857644 116.1954237  44.6380689  48.2747520 117.0778953  44.2674623
  47.4175023 115.8425788  44.4435226  39.7940140 125.3434306  48.9983530
  40.5068112 125.9781771  48.9259431  39.3030169 125.4398172  48.1823531
  41.5157667 119.2485559  40.5700821  40.5813946 119.3687021  40.4005526
  41.6934335 118.3458026  40.3060831  37.0162855 112.6331255  42.7234082
  36.6460642 112.0802295  43.4114988  37.5121947 112.0289388  42.1709083
  44.9030218 115.0902878  41.1050855  45.3690670 115.9230870  41.0311158
  45.3537719 114.6247860  41.8096114  34.8452053 123.0928750  49.8189100
  35.5461513 123.7265233  49.9718495  34.3747168 123.4343481  49.0584740
  42.9706449 121.4346700  38.1037007  43.2466293 121.3203294  39.0130882
  42.1010948 121.0364184  38.0649181  42.8746881 107.4583465  45.1441757
  41.9609961 107.6887692  45.3123964  43.3039982 107.5421909  45.9955789
  42.6453339 115.6473357  47.6441651  41.9924790 115.8949265  46.9894104
  43.0233719 114.8337495  47.3104128  39.6060513 125.6833050  41.7469821
  39.7882908 124.8654706  42.2097573  40.4293499 125.9000743  41.3094711
  39.9402679 124.6101236  39.0084870  40.4690445 124.0993690  38.3955032
  40.2030898 124.2943766  39.8730403  38.6940912 116.3893168  54.1307688
  38.0181549 116.2887298  54.8010063  39.5168546 116.2332382  54.5943685
  30.4419772 122.6265105  46.7520203  31.0273208 121.8808793  46.8848107
  30.2444610 122.9369062  47.6356867  33.2958427 125.6616352  41.7682646
  32.6268802 126.1462480  41.2846686  33.1571296 125.9085573  42.6826024
  25.0337426 115.1970705  45.4724646  25.0721526 114.6634296  46.2661764
  24.5277719 114.6705911  44.8535623  37.4363695 127.6960096  48.3665304
  37.9882003 127.8591717  49.1314389  37.7769889 128.2864534  47.6945329
  32.4128189 110.0435246  48.9687189  32.4769515 110.9050076  48.5564586
  32.3495309 109.4309247  48.2359547  31.8880461 112.1158378  52.6160223
  32.5152500 111.7335455  53.2297747  31.0308380 111.8972580  52.9815915
  42.2874570 122.5221353  54.2213958  42.8314474 123.1351311  53.7268913
  41.7061415 123.0800932  54.7380971  28.6646004 113.9234807  38.5478578
  28.9599445 113.0145486  38.4945631  27.7634040 113.9022547  38.2259580
  40.5732083 125.6442071  45.3528986  40.4483222 124.8431811  44.8439932
  41.2311174 126.1388265  44.8642956  32.1940251 111.9990804  44.5306126
  31.4726837 112.6126771  44.3913600  32.9833507 112.5348569  44.4522772
  42.6366991 123.4451091  46.9808536  41.6897327 123.3256443  46.9086863
  42.9849764 122.5573589  47.0634798  34.9966564 109.3345230  50.8046778
  35.5200966 109.5807527  51.5673087  34.7778898 110.1665265  50.3849915
  30.3933845 111.6048905  38.6717903  30.0646552 110.7246284  38.4893009
  30.7473216 111.5496574  39.5594292  39.6413424 123.2403808  43.1812888
  39.4938387 122.3120515  43.3620458  40.4666918 123.2623898  42.6969964
  33.5075669 111.8921875  39.0393381  33.8471741 112.4207796  38.3171989
  33.9547789 112.2302281  39.8151947  43.2447546 124.0632366  44.2677761
  44.1694094 123.8575228  44.1302212  43.0762850 123.8148767  45.1767103
  36.2019109 110.2758925  48.4896449  35.8615930 109.4766738  48.8917128
  35.4958116 110.5760636  47.9173282  36.8535581 107.3608238  46.9423772
  37.6761651 106.8868716  46.8202662  37.0973645 108.1398722  47.4422458
  35.4943816 110.3896496  37.2386673  36.2152178 110.7677749  36.7350390
  34.8709120 111.1085373  37.3421651  39.6374939 111.0941645  38.1745006
  39.8538553 111.9766283  37.8733834  39.1569006 110.7027859  37.4450648
  34.3774160 114.0527358  44.7515750  34.2318741 114.3667661  45.6440032
  33.8999364 114.6712259  44.1986649  36.2370543 111.0429906  44.7996640
  36.2232112 110.1471000  44.4628938  36.9542971 111.0500570  45.4334926
  38.0896674 111.4767247  46.8449767  37.8314451 112.3984317  46.8434098
  37.5581714 111.0797681  47.5350231  43.0342862 124.5818034  39.6239853
  43.2079740 124.0164456  38.8713705  43.5271754 125.3818929  39.4419343
  28.8519822 116.5932703  47.6903411  28.3073290 117.3692511  47.8223686
  29.7299172 116.9403507  47.5322533  35.6407439 109.9244287  40.0684210
  35.7623350 108.9960933  40.2675097  35.3509481 109.9382973  39.1562525
  38.5098629 107.6099197  43.2050930  38.5320326 107.6738530  42.2502909
  38.9266688 106.7703706  43.3991436  48.8882254 117.3454457  41.2430152
  49.3313400 116.5961782  40.8449276  48.0108764 117.3364593  40.8603884
  44.0218035 123.8984798  36.7236751  44.7168939 124.5191491  36.9424065
  44.3641185 123.0480149  36.9989129  29.6385844 115.7202599  50.5833568
  28.8967580 115.8685234  51.1698199  29.3178588 115.9810865  49.7200318
  45.9209458 121.3484504  38.2524082  46.4460782 121.6871776  37.5273402
  45.8331811 120.4131519  38.0687216  37.5829507 125.2618577  50.3813958
  37.8916633 125.0167724  51.2536658  38.3804989 125.4665216  49.8932828
  37.6050119 127.4156487  42.6119335  37.1655109 126.9232866  43.3052192
  38.3558236 126.8729455  42.3711410  30.0842458 123.6068028  42.6143963
  30.9100478 123.3071800  42.2342606  29.7336510 122.8375650  43.0633752
  35.0523991 122.9594496  44.6841636  34.4304000 122.2965201  44.3843864
  35.7228858 122.9855628  44.0015284  28.2851063 121.5254354  43.5732896
  27.4482971 121.0976529  43.3916898  28.2574708 121.7186798  44.5103688
  35.1248518 111.4376284  54.2774143  35.1736674 112.3138407  53.8951912
  35.6671033 110.8953677  53.7045786  45.6103364 121.9817407  53.5575280
  44.8198908 121.9641546  53.0179779  45.3736719 122.5205701  54.3124316
  45.7301239 118.8309874  50.8708008  45.7799244 118.6659881  51.8123531
  45.6215162 117.9637133  50.4805889  34.6137498 121.5098419  38.1600097
  34.7625618 122.1933884  37.5066770  35.4203941 121.4903509  38.6749553
  43.0205001 114.8140802  52.1867315  43.9214864 114.6747267  51.8951313
  43.0952976 114.9795257  53.1265492  37.3547807 112.1907656  51.0320501
  36.4851116 112.4841222  50.7603090  37.5907287 112.7748101  51.7527765
  47.2319436 121.2506815  51.1150030  46.9404244 121.6136796  51.9513491
  46.6191567 120.5373823  50.9363362  48.4315118 118.8159695  43.6352600
  49.2662010 119.2549499  43.7990160  48.5674247 118.3398348  42.8160846
  45.4806624 116.3739430  49.5830088  45.9560746 116.5667076  48.7748939
  44.5572190 116.4298616  49.3373471  32.3690131 117.5363597  39.1661166
  32.1236173 116.6325927  39.3641376  32.5386045 117.5380747  38.2240644
  40.0586841 108.4087273  48.5485922  40.5768785 109.1448300  48.2232410
  39.7041973 108.7151267  49.3832681  31.6385778 113.2691955  36.6647327
  30.9455023 113.3436310  36.0087363  31.3937530 112.5052298  37.1868844
  40.3099435 104.8287556  44.0686818  40.5901189 104.1610745  44.6947245
  41.0950042 105.0216652  43.5561482  38.1132903 124.0046550  35.6311844
  37.5406870 124.6236737  35.1782316  38.6865697 124.5545911  36.1651766
  44.1808293 113.2505190  47.8158393  45.1325716 113.3503288  47.8370617
  44.0111744 112.4583458  48.3256478  42.2022673 110.3360773  48.0017794
  41.6072605 110.6165786  47.3064283  41.9172369 110.8254674  48.7734535
  41.3330163 124.2883700  36.7620427  42.2660836 124.2229262  36.9653302
  41.2453376 125.1239967  36.3034959  43.9618180 123.6049570  33.7224374
  43.8831811 123.2709434  34.6160132  44.7827847 124.0971338  33.7215847
  46.6596371 116.4711310  46.9300693  46.6272691 115.5327310  47.1160377
  47.2696995 116.5495346  46.1966518  38.4979702 115.3407363  32.9727897
  39.4438807 115.2113571  33.0416315  38.1193947 114.6022024  33.4497325
  46.8090859 113.2622353  46.9758976  46.2929908 112.4780810  46.7888905
  47.6930808 112.9341070  47.1405496  44.4701586 107.0063369  42.9354789
  44.2726407 106.6978457  43.8198121  45.0801292 107.7325007  43.0652719
  52.4772921 117.5327316  46.0706730  53.2076309 117.2712605  46.6314433
  51.8679866 116.7956038  46.1108798  50.5588218 115.6735179  46.6681181
  49.8321381 115.5391144  46.0597672  50.1435505 115.9812008  47.4737899
  38.3818394 119.3925109  54.4328554  39.3021404 119.5703708  54.6268600
  38.3467977 118.4481154  54.2808253  36.6822619 113.2657339  32.9082782
  35.7754074 112.9690452  32.9845496  36.9598600 112.9687157  32.0417068
  27.6000559 114.5863702  43.3581829  27.2803344 113.7329011  43.0656203
  27.0533988 114.8012280  44.1139796  31.3780467 117.3026143  47.0751335
  31.5966477 118.2343251  47.0939369  31.7906241 116.9434118  47.8606139
  38.2984685 107.8094229  39.0627023  37.4885413 107.4641314  39.4382270
  38.9869102 107.5001772  39.6514635  40.2275233 106.8872275  40.6851320
  40.7806272 107.3067729  41.3441343  40.4645319 105.9608024  40.7274276
  36.2508332 112.8759349  56.4654084  36.1505059 113.8253706  56.3966175
  36.0329874 112.5477588  55.5930154  35.4521404 110.1244274  33.0494761
  36.3140568 110.4499172  33.3090579  35.6371748 109.3375770  32.5367827
  27.4688819 118.2066614  45.3274950  26.7752291 117.7920567  44.8144905
  28.2161810 118.2487150  44.7308369  43.6054040 108.9972801  40.1929984
  43.0252709 109.6557605  39.8108037  43.3389973 108.1750145  39.7817402
  42.0557606 108.3977858  42.3951305  42.5557385 108.5094393  41.5865624
  42.6993214 108.0938911  43.0352113  36.1139602 116.3056488  55.2819146
  35.6306684 117.1056848  55.4883035  36.2000541 116.3164433  54.3286590
  29.3825562 118.1384868  43.2040965  29.3596250 118.2372555  42.2522848
  29.6926198 118.9850018  43.5258131  32.0412940 120.1961023  47.3187579
  32.9956193 120.1644965  47.2517511  31.8425463 119.7351646  48.1337805
  32.6312322 118.7662139  49.8858377  33.4505211 119.2606217  49.9093214
  32.9049130 117.8494107  49.8575945  42.3878918 111.1572891  39.2486333
  41.5004773 111.4422542  39.0306527  42.8032907 110.9966654  38.4013610
  45.7393454 111.1819412  42.9640672  46.5153844 111.6715864  43.2365289
  45.0141588 111.6077466  43.4212541  48.1766013 111.8947031  44.0214612
  48.7710504 111.6542767  43.3107921  48.2492597 111.1754162  44.6488149
  30.3963169 125.7380642  44.3357777  30.2617636 124.9781043  43.7695775
  29.9795231 126.4621542  43.8686566  41.5322132 120.9217566  33.3434353
  42.2357982 121.1267568  33.9592008  40.8084780 121.4894328  33.6083436
  42.3619942 116.6727427  39.4636623  42.3055143 117.1295978  38.6244255
  42.9148284 115.9118112  39.2859466  46.1724748 112.4617159  40.2886742
  45.9161682 112.0613794  41.1194950  45.5477616 113.1760953  40.1636881
  50.4837086 115.2013232  42.7958034  49.9236644 115.2706421  43.5689596
  49.8780589 115.0254217  42.0757530  33.5532294 126.6349959  44.5476220
  33.4364679 127.5795392  44.4454910  32.7324741 126.3323521  44.9362019
  43.4408829 121.3600095  35.3932813  44.2754433 120.9281293  35.2110287
  43.2793172 121.1882109  36.3209707  43.0954721 117.8632208  36.7589152
  43.0403525 117.6976480  35.8177596  42.4700776 118.5708241  36.9151342
  27.8847236 113.1000273  50.5850574  28.5306100 112.5899227  51.0737799
  27.6764387 113.8368954  51.1593999  40.4100628 120.1681120  56.0842715
  41.2791788 120.3421772  55.7229350  39.9307380 120.9875537  55.9618444
  36.4050847 107.3640317  36.3374470  36.3929516 108.3082157  36.4942741
  37.2974268 107.1810463  36.0433932  34.5786809 127.2878221  47.7632148
  35.4814055 127.3201831  48.0798643  34.3524179 126.3578672  47.7778484
  36.3340411 126.0409208  44.4242227  35.3836042 126.0411069  44.3106599
  36.6372897 125.2941942  43.9078262  40.2202966 103.9583094  40.5920407
  39.4535362 103.4041581  40.7377090  40.6313671 104.0304963  41.4534559
  32.2244727 110.2467890  54.6825588  33.0876189 109.8904694  54.8928913
  31.6510138 109.9081784  55.3700993  52.0693104 131.8769746  45.4887989
  52.7071514 131.7576493  44.7851329  51.9513947 132.8250590  45.5475942
  48.8782810 131.8297174  45.4249514  48.5401322 131.7138239  44.5370049
  49.7472579 131.4288339  45.4050520  44.7369626 133.6832651  41.4146405
  44.1734491 133.5922587  40.6462693  44.6222021 132.8632555  41.8948898
  49.3602593 132.9832026  51.3835720  49.3491234 132.5884824  50.5116223
  49.5223233 132.2498098  51.9769491  42.2834058 135.1783842  44.2530625
  43.0755350 134.8374667  43.8376925  42.5230708 135.2878817  45.1732779
  44.2424812 134.4392755  37.1248004  45.0155688 133.8921742  36.9860880
  44.5950211 135.3037005  37.3362466  47.0066061 133.1445986  46.9216263
  47.6029634 132.9202009  46.2073226  47.0641033 132.4030732  47.5241711
  46.5791090 130.5985421  34.7566454  46.8316610 130.0766943  33.9949917
  45.6415649 130.4351567  34.8593138  51.6234373 129.6021200  42.5641197
  52.4097462 129.1840623  42.2131614  51.8873077 130.5067292  42.7322846
  51.7944450 135.0394050  37.2629854  51.1590283 135.1128677  37.9750759
  51.4641856 135.6287649  36.5848933  57.0242800 129.5396433  43.4674176
  57.7567972 128.9695650  43.7012005  56.2682155 129.1518033  43.9080682
  46.2987378 132.5013527  36.9590829  46.1823637 131.8258431  37.6271913
  46.4089638 132.0145901  36.1422982  48.6418919 131.9623675  40.6637518
  48.2777127 131.4354296  41.3750440  49.4986035 131.5722144  40.4904004
  54.5468220 123.2518007  47.9268785  54.2151545 124.1213418  47.7030000
  53.9513833 122.9354291  48.6062815  48.2824406 126.9913574  35.6598867
  48.4498809 127.8593811  36.0269338  48.0921575 127.1540856  34.7360156
  51.0399740 135.4530553  47.3264697  50.7400463 136.3555592  47.2180505
  50.6950799 135.1862736  48.1785850  44.4912221 131.9044350  43.3601402
  43.5662717 131.7720564  43.5679093  44.7396634 132.6838569  43.8571344
  54.4396883 127.9713093  45.0062135  53.5313761 127.9028502  44.7120896
  54.3884479 128.4485038  45.8343960  48.2613627 129.4471232  36.6445534
  48.1413252 129.8928282  37.4831014  47.5666216 129.7956549  36.0859072
  41.8521032 131.5477624  44.1945191  41.9813413 131.8012102  45.1084602
  41.1718483 132.1405332  43.8749846  48.5137749 129.3902739  52.9497032
  47.7371083 129.9496659  52.9399897  49.1528312 129.8759522  53.4711902
  56.3058530 126.1729532  46.7840009  55.6632910 126.4662065  46.1379803
  55.8013458 126.0582452  47.5893205  53.9598693 129.9192705  37.4725868
  54.8716549 130.1520092  37.2973565  53.4508340 130.5029749  36.9100946
  46.7684121 132.1988192  52.5114999  47.5098806 132.7373236  52.2349822
  46.0621107 132.8254481  52.6686551  52.2439461 134.3417333  51.1087160
  52.6522817 133.8999743  50.3641793  51.5216723 133.7669960  51.3621353
  48.5970531 129.2789940  48.4820717  49.4431726 129.7029353  48.6255366
  48.5369169 128.6223564  49.1759280  52.5668276 134.9018523  44.8639449
  51.9377138 135.0664237  44.1615517  52.1793938 135.3160133  45.6350413
  56.4457508 135.8372961  42.2183813  55.7608546 136.2171863  41.6680846
  56.5301357 136.4468288  42.9515761  51.7469976 126.9394308  50.1401891
  51.5030908 127.6936368  49.6036167  52.0229907 127.3179655  50.9749138
  53.7008439 133.4832920  48.8179157  53.9125334 134.1264680  48.1413538
  53.6538187 132.6495237  48.3501087  51.3034668 126.0950741  45.7215729
  50.4419147 126.3931994  46.0132466  51.3297103 126.3121140  44.7896761
  48.1196238 134.6392931  42.1289534  48.5834583 134.9180634  41.3394157
  47.8553036 133.7376376  41.9462625  45.0120319 134.1864413  45.0669298
  45.5821676 134.6151681  44.4286782  45.6028430 133.9046998  45.7653483
  47.0565124 130.7616084  38.9379099  47.7589167 131.2137127  39.4053026
  46.7245752 130.1199903  39.5658993  45.5045485 129.3527840  53.3130309
  44.8744146 130.0344121  53.5465706  45.3981573 129.2410922  52.3683447
  40.7990458 129.0199636  44.2396233  40.0089512 129.2757165  43.7636344
  41.2901705 129.8347974  44.3448274  54.8154267 136.3604876  46.9901514
  55.6371711 135.9585063  46.7084196  54.8116670 136.2573110  47.9417630
  42.7505203 129.3844216  41.1979710  41.9536366 129.4962910  41.7163205
  42.5230795 129.7230868  40.3320600  48.5810871 135.9088919  49.1462224
  48.6455303 136.3709326  49.9820396  47.8721794 135.2786284  49.2744534
  39.0828161 129.2730127  46.6711224  39.3336199 130.1577137  46.9368800
  39.6187709 129.0934728  45.8986316  62.9060260 132.7043624  43.3386485
  62.1523969 132.1351022  43.1830490  63.0407801 132.6706289  44.2857120
  44.7826228 123.6548606  55.6755560  44.3893173 123.1014805  56.3503204
  45.5992368 123.9659185  56.0662077  47.6994189 125.0706485  53.2675816
  48.4403902 125.6713639  53.1880279  47.9312112 124.3284123  52.7093859
  42.8435527 130.2562853  51.5454046  42.7289042 129.3548110  51.8461145
  41.9880045 130.5026549  51.1938863  48.4781657 135.9927522  52.0146456
  49.0109994 135.2315811  51.7845764  47.9495738 135.7001174  52.7570611
  51.6451352 121.0987588  47.5440098  51.3015621 121.9889230  47.4679209
  52.0130314 120.9089246  46.6809683  39.7137202 133.4221119  40.3628700
  40.5512424 133.8318127  40.1462408  39.8915470 132.4820561  40.3328894
  51.6101635 131.0896199  36.0512533  51.0948258 131.8600804  36.2900921
  51.3378943 130.4161336  36.6745595  49.1948746 125.9345900  41.1097772
  48.3390342 125.5452751  40.9303410  49.6075697 126.0137861  40.2497557
  50.7247892 123.4692243  45.5089331  50.2212688 123.4322379  44.6957137
  51.0178499 124.3784986  45.5685988  46.9690778 123.5530973  44.5155513
  47.8343775 123.3573782  44.1561403  47.0368287 123.3241325  45.4424870
  56.5835909 133.8428554  37.9865707  55.8065351 133.5039714  37.5420869
  57.2627390 133.8481177  37.3120672  51.3987938 128.9623292  37.8772314
  51.0938073 129.2769441  38.7282458  52.3518380 129.0404711  37.9199647
  49.8434370 135.1213515  39.5265268  49.3155731 134.3866274  39.2138506
  49.3421872 135.8988191  39.2805237  54.8227216 133.3162535  44.6432315
  54.1650890 134.0061797  44.7312443  55.6267615 133.7058967  44.9866301
  44.5753097 125.7833181  41.8871880  45.1496849 125.5608363  41.1545073
  45.1624080 125.8521876  42.6400481  53.6332674 131.6706908  42.6936256
  54.1464556 132.3036900  43.1957966  54.2833898 131.0708104  42.3279617
  44.9022684 127.8137642  35.9067765  44.0659997 128.1512329  36.2277040
  44.7627454 127.6786622  34.9694902  46.8775765 122.6574430  40.6146949
  46.2240177 122.3423447  39.9903564  46.8356239 122.0350170  41.3406772
  47.9886970 132.9393725  32.5300241  47.0814031 132.7082979  32.7291390
  48.4858002 132.1431344  32.7174223  50.1113505 129.1456364  44.9394597
  49.1936067 129.3671311  44.7816285  50.5273649 129.2202674  44.0806304
  50.8948553 130.5447779  40.0697277  51.6420372 131.0569176  39.7604399
  51.1640143 130.2231832  40.9301671  49.1675203 133.0406320  37.0524232
  48.2586422 132.7565353  37.1496701  49.1970287 133.4605399  36.1927538
  54.3994471 136.6512909  40.8215399  53.9456798 135.8103819  40.8780590
  53.7688437 137.2874308  41.1590179  53.3427390 127.5804896  42.0516067
  52.6050147 127.0682282  42.3826309  53.5954164 127.1405277  41.2399343
  52.8427410 138.4889406  41.7565217  53.1350384 139.0494463  41.0377583
  53.3526030 138.7817967  42.5118376  53.4439017 120.3581148  42.6457836
  53.7497894 119.4978511  42.3583751  54.1691622 120.9498768  42.4456830
  39.7363374 130.7611834  41.0339434  39.5387773 130.1681195  40.3090500
  39.1810038 130.4564044  41.7515373  47.7160097 130.6534941  43.1534027
  47.7708707 129.7008777  43.0776503  46.9051299 130.8094380  43.6375325
  48.8651291 134.5815064  34.3912310  48.4270721 133.8650923  33.9317947
  49.6061732 134.8091178  33.8297402  45.6552457 129.2712000  40.9124406
  44.8420323 129.5706171  41.3189598  46.1511451 128.8767689  41.6298888
  51.2526669 129.7353825  49.7439300  51.6076057 129.9625298  50.6033765
  51.8998800 130.0672202  49.1216555  56.9824406 132.8572261  40.4488629
  56.8442304 133.0473857  39.5209818  56.6260625 133.6191643  40.9056680
  45.1466532 126.8430356  46.5285641  45.7865911 126.7019115  45.8308604
  44.3144062 126.5564869  46.1524243  57.0093785 134.9248788  45.4599900
  57.4430292 134.8324077  46.3082954  57.7225366 134.9006288  44.8219916
  45.9226836 136.1432786  42.6420633  46.7167434 135.6483106  42.4403208
  45.2118528 135.6150649  42.2788339  42.2309599 130.2875868  38.7180386
  41.3007187 130.2260323  38.9350348  42.3267071 129.7651821  37.9217027
  42.1495148 126.8130681  41.3058628  42.4101966 127.7276014  41.1967788
  42.9712321 126.3455123  41.4555240  43.6220074 128.2268438  48.4757452
  44.2943127 128.0185800  47.8270101  42.7949860 128.0290524  48.0362684
  57.8709335 134.9672488  47.9932786  58.0645225 135.8718299  48.2392061
  57.7709953 134.5079907  48.8271371  49.5245646 124.8530379  50.4923113
  48.8773561 125.5520329  50.3987589  50.2946661 125.2866523  50.8599361
  52.9324444 135.1179231  53.5673666  52.7809950 134.8889783  52.6503750
  52.9229123 136.0749833  53.5805011  49.7009780 132.6911144  48.5519933
  50.6301840 132.8422303  48.3788900  49.2800810 132.7795165  47.6968579
  50.0503327 136.0943411  43.7107308  49.7153160 136.0544181  44.6064958
  49.5507273 135.4288127  43.2377718  44.0247571 131.5011041  49.2359889
  43.8867369 130.7691280  49.8371428  44.9352494 131.4119941  48.9544077
  52.9862519 133.4399445  33.9844368  52.3691689 132.7146273  33.8877420
  52.5179007 134.2008806  33.6411442  46.6529872 131.2131000  48.7243569
  47.3629490 130.5724192  48.6830187  46.6099180 131.4643895  49.6469750
  54.6416650 138.1498354  51.6450148  54.5829196 137.4657574  50.9780731
  55.0436169 138.8917344  51.1930774  45.3658806 128.1996218  50.5439208
  44.8296163 127.7486957  51.1960805  44.7775514 128.3342127  49.8009673
  44.7761065 127.6584870  33.1065672  43.8990531 127.5373670  32.7427919
  45.2518818 126.8670948  32.8544561  54.6434058 136.1137938  49.8764128
  53.7560836 135.7763859  49.9990527  55.2132609 135.3820969  50.1132893
  41.0997927 127.3352226  47.6292203  41.0156116 126.7277895  46.8942613
  40.2780633 127.8261244  47.6301699  51.2721641 125.8205789  42.9962398
  51.7690340 125.0675752  42.6763468  50.5008622 125.8570106  42.4305607
  59.1251398 131.5246155  44.6380689  59.1141274 132.4070870  44.2674623
  58.2568777 131.1717706  44.4435226  52.3551421 134.5777477  40.5700821
  51.4207700 134.6978939  40.4005526  52.5328090 133.6749943  40.3060831
  47.8556609 127.9623172  42.7234082  47.4854397 127.4094213  43.4114988
  48.3515702 127.3581306  42.1709083  55.7423973 130.4194796  41.1050855
  56.2084425 131.2522788  41.0311158  56.1931473 129.9539777  41.8096114
  53.8100204 136.7638617  38.1037007  54.0860048 136.6495212  39.0130882
  52.9404703 136.3656102  38.0649181  53.7140635 122.7875383  45.1441757
  52.8003715 123.0179610  45.3123964  54.1433737 122.8713827  45.9955789
  53.4847094 130.9765275  47.6441651  52.8318544 131.2241182  46.9894104
  53.8627474 130.1629413  47.3104128  49.5334667 131.7185086  54.1307688
  48.8575304 131.6179215  54.8010063  50.3562301 131.5624300  54.5943685
  35.8731181 130.5262623  45.4724646  35.9115280 129.9926213  46.2661764
  35.3671474 129.9997828  44.8535623  43.2521943 125.3727163  48.9687189
  43.3163270 126.2341994  48.5564586  43.1889063 124.7601165  48.2359547
  42.7274216 127.4450296  52.6160223  43.3546254 127.0627373  53.2297747
  41.8702134 127.2264498  52.9815915  53.1268324 137.8513271  54.2213958
  53.6708228 138.4643229  53.7268913  52.5455169 138.4092849  54.7380971
  39.5039758 129.2526725  38.5478578  39.7993199 128.3437403  38.4945631
  38.6027794 129.2314464  38.2259580  43.0334005 127.3282721  44.5306126
  42.3120591 127.9418689  44.3913600  43.8227261 127.8640486  44.4522772
  53.4760745 138.7743009  46.9808536  52.5291081 138.6548360  46.9086863
  53.8243519 137.8865507  47.0634798  45.8360319 124.6637148  50.8046778
  46.3594721 124.9099444  51.5673087  45.6172652 125.4957183  50.3849915
  41.2327600 126.9340822  38.6717903  40.9040306 126.0538201  38.4893009
  41.5866971 126.8788491  39.5594292  44.3469423 127.2213792  39.0393381
  44.6865496 127.7499714  38.3171989  44.7941544 127.5594198  39.8151947
  54.0841301 139.3924284  44.2677761  55.0087848 139.1867145  44.1302212
  53.9156604 139.1440685  45.1767103  47.0412864 125.6050843  48.4896449
  46.7009684 124.8058656  48.8917128  46.3351870 125.9052554  47.9173282
  47.6929336 122.6900155  46.9423772  48.5155405 122.2160634  46.8202662
  47.9367399 123.4690639  47.4422458  46.3337570 125.7188414  37.2386673
  47.0545933 126.0969667  36.7350390  45.7102874 126.4377291  37.3421651
  50.4768693 126.4233563  38.1745006  50.6932307 127.3058201  37.8733834
  49.9962760 126.0319776  37.4450648  45.2167914 129.3819276  44.7515750
  45.0712495 129.6959579  45.6440032  44.7393118 130.0004176  44.1986649
  47.0764297 126.3721824  44.7996640  47.0625866 125.4762917  44.4628938
  47.7936725 126.3792488  45.4334926  48.9290428 126.8059164  46.8449767
  48.6708206 127.7276235  46.8434098  48.3975468 126.4089599  47.5350231
  39.6913577 131.9224620  47.6903411  39.1467045 132.6984428  47.8223686
  40.5692927 132.2695425  47.5322533  46.4801193 125.2536204  40.0684210
  46.6017105 124.3252851  40.2675097  46.1903236 125.2674890  39.1562525
  49.3492384 122.9391115  43.2050930  49.3714081 123.0030448  42.2502909
  49.7660443 122.0995623  43.3991436  59.7276008 132.6746374  41.2430152
  60.1707154 131.9253700  40.8449276  58.8502518 132.6656511  40.8603884
  54.8611789 139.2276716  36.7236751  55.5562694 139.8483408  36.9424065
  55.2034939 138.3772067  36.9989129  40.4779599 131.0494517  50.5833568
  39.7361335 131.1977152  51.1698199  40.1572343 131.3102782  49.7200318
  56.7603212 136.6776421  38.2524082  57.2854537 137.0163694  37.5273402
  56.6725565 135.7423437  38.0687216  45.9642273 126.7668202  54.2774143
  46.0130428 127.6430325  53.8951912  46.5064787 126.2245595  53.7045786
  56.4497119 137.3109325  53.5575280  55.6592662 137.2933464  53.0179779
  56.2130473 137.8497619  54.3124316  56.5694994 134.1601791  50.8708008
  56.6192999 133.9951799  51.8123531  56.4608917 133.2929050  50.4805889
  53.8598756 130.1432719  52.1867315  54.7608619 130.0039184  51.8951313
  53.9346730 130.3087174  53.1265492  48.1941561 127.5199574  51.0320501
  47.3244871 127.8133140  50.7603090  48.4301042 128.1040019  51.7527765
  58.0713190 136.5798733  51.1150030  57.7797999 136.9428713  51.9513491
  57.4585322 135.8665741  50.9363362  59.2708873 134.1451613  43.6352600
  60.1055764 134.5841417  43.7990160  59.4068002 133.6690266  42.8160846
  56.3200379 131.7031347  49.5830088  56.7954500 131.8958994  48.7748939
  55.3965944 131.7590533  49.3373471  43.2083885 132.8655515  39.1661166
  42.9629927 131.9617845  39.3641376  43.3779800 132.8672665  38.2240644
  50.8980595 123.7379191  48.5485922  51.4162539 124.4740218  48.2232410
  50.5435728 124.0443184  49.3832681  42.4779533 128.5983872  36.6647327
  41.7848778 128.6728227  36.0087363  42.2331285 127.8344216  37.1868844
  51.1493189 120.1579474  44.0686818  51.4294943 119.4902663  44.6947245
  51.9343796 120.3508569  43.5561482  55.0202048 128.5797108  47.8158393
  55.9719471 128.6795205  47.8370617  54.8505498 127.7875376  48.3256478
  53.0416427 125.6652691  48.0017794  52.4466359 125.9457703  47.3064283
  52.7566124 126.1546592  48.7734535  54.8011934 138.9341488  33.7224374
  54.7225566 138.6001352  34.6160132  55.6221601 139.4263256  33.7215847
  57.4990125 131.8003227  46.9300693  57.4666446 130.8619228  47.1160377
  58.1090749 131.8787264  46.1966518  49.3373456 130.6699280  32.9727897
  50.2832561 130.5405488  33.0416315  48.9587701 129.9313942  33.4497325
  57.6484614 128.5914271  46.9758976  57.1323663 127.8072727  46.7888905
  58.5324562 128.2632987  47.1405496  55.3095341 122.3355286  42.9354789
  55.1120162 122.0270374  43.8198121  55.9195046 123.0616925  43.0652719
  63.3166675 132.8619234  46.0706730  64.0470064 132.6004522  46.6314433
  62.7073621 132.1247956  46.1108798  61.3981972 131.0027097  46.6681181
  60.6715136 130.8683062  46.0597672  60.9829259 131.3103925  47.4737899
  49.2212149 134.7217026  54.4328554  50.1415158 134.8995625  54.6268600
  49.1861732 133.7773072  54.2808253  47.5216373 128.5949257  32.9082782
  46.6147829 128.2982369  32.9845496  47.7992354 128.2979075  32.0417068
  38.4394314 129.9155620  43.3581829  38.1197098 129.0620928  43.0656203
  37.8927742 130.1304198  44.1139796  42.2174221 132.6318061  47.0751335
  42.4360231 133.5635169  47.0939369  42.6299995 132.2726035  47.8606139
  49.1378439 123.1386146  39.0627023  48.3279167 122.7933231  39.4382270
  49.8262856 122.8293690  39.6514635  51.0668987 122.2164193  40.6851320
  51.6200026 122.6359647  41.3441343  51.3039074 121.2899941  40.7274276
  47.0902087 128.2051267  56.4654084  46.9898814 129.1545624  56.3966175
  46.8723629 127.8769506  55.5930154  46.2915158 125.4536192  33.0494761
  47.1534322 125.7791090  33.3090579  46.4765502 124.6667688  32.5367827
  38.3082574 133.5358532  45.3274950  37.6146045 133.1212484  44.8144905
  39.0555565 133.5779068  44.7308369  54.4447795 124.3264718  40.1929984
  53.8646464 124.9849522  39.8108037  54.1783727 123.5042063  39.7817402
  52.8951361 123.7269776  42.3951305  53.3951139 123.8386311  41.5865624
  53.5386969 123.4230829  43.0352113  46.9533357 131.6348406  55.2819146
  46.4700438 132.4348766  55.4883035  47.0394296 131.6456350  54.3286590
  40.2219316 133.4676785  43.2040965  40.1990004 133.5664473  42.2522848
  40.5319953 134.3141936  43.5258131  43.4706076 134.0954056  49.8858377
  44.2898965 134.5898135  49.9093214  43.7442884 133.1786025  49.8575945
  53.2272673 126.4864809  39.2486333  52.3398528 126.7714459  39.0306527
  53.6426662 126.3258572  38.4013610  56.5787209 126.5111330  42.9640672
  57.3547599 127.0007782  43.2365289  55.8535343 126.9369384  43.4212541
  59.0159767 127.2238949  44.0214612  59.6104258 126.9834685  43.3107921
  59.0886351 126.5046079  44.6488149  52.3715886 136.2509483  33.3434353
  53.0751736 136.4559486  33.9592008  51.6478535 136.8186245  33.6083436
  53.2013696 132.0019345  39.4636623  53.1448898 132.4587896  38.6244255
  53.7542039 131.2410029  39.2859466  57.0118502 127.7909076  40.2886742
  56.7555436 127.3905712  41.1194950  56.3871370 128.5052870  40.1636881
  61.3230840 130.5305150  42.7958034  60.7630398 130.5998339  43.5689596
  60.7174343 130.3546134  42.0757530  54.2802583 136.6892013  35.3932813
  55.1148187 136.2573211  35.2110287  54.1186926 136.5174026  36.3209707
  53.9348476 133.1924126  36.7589152  53.8797279 133.0268397  35.8177596
  53.3094531 133.9000159  36.9151342  38.7240991 128.4292190  50.5850574
  39.3699854 127.9191144  51.0737799  38.5158142 129.1660872  51.1593999
  51.2494383 135.4973038  56.0842715  52.1185542 135.6713690  55.7229350
  50.7701134 136.3167455  55.9618444  47.2444601 122.6932235  36.3374470
  47.2323271 123.6374075  36.4942741  48.1368023 122.5102380  36.0433932
  51.0596721 119.2875011  40.5920407  50.2929116 118.7333498  40.7377090
  51.4707426 119.3596880  41.4534559  43.0638482 125.5759807  54.6825588
  43.9269943 125.2196612  54.8928913  42.4903892 125.2373702  55.3700993
  65.3861974 138.5809925  47.9268785  65.0545299 139.4505336  47.7030000
  64.7907588 138.2646209  48.6062815  67.1452284 141.5021449  46.7840009
  66.5026664 141.7953983  46.1379803  66.6407213 141.3874370  47.5893205
  62.1428423 141.4242659  45.7215729  61.2812902 141.7223912  46.0132466
  62.1690857 141.6413057  44.7896761  55.6219982 138.9840524  55.6755560
  55.2286928 138.4306723  56.3503204  56.4386123 139.2951102  56.0662077
  58.5387943 140.3998403  53.2675816  59.2797657 141.0005556  53.1880279
  58.7705866 139.6576041  52.7093859  62.4845106 136.4279506  47.5440098
  62.1409376 137.3181148  47.4679209  62.8524069 136.2381164  46.6809683
  60.0342500 141.2637818  41.1097772  59.1784096 140.8744668  40.9303410
  60.4469452 141.3429779  40.2497557  61.5641647 138.7984161  45.5089331
  61.0606442 138.7614296  44.6957137  61.8572254 139.7076904  45.5685988
  57.8084533 138.8822891  44.5155513  58.6737529 138.6865700  44.1561403
  57.8762041 138.6533243  45.4424870  57.7169519 137.9866348  40.6146949
  57.0633932 137.6715365  39.9903564  57.6749994 137.3642088  41.3406772
  64.1821145 142.9096813  42.0516067  63.4443901 142.3974199  42.3826309
  64.4347918 142.4697195  41.2399343  64.2832772 135.6873065  42.6457836
  64.5891649 134.8270429  42.3583751  65.0085377 136.2790685  42.4456830
  60.3639400 140.1822297  50.4923113  59.7167315 140.8812246  50.3987589
  61.1340416 140.6158441  50.8599361  62.1115395 141.1497707  42.9962398
  62.6084095 140.3967669  42.6763468  61.3402377 141.1862024  42.4305607
  64.5534390 138.1167301  45.1441757  63.6397470 138.3471527  45.3123964
  64.9827491 138.2005745  45.9955789  58.5323090 138.0192073  46.9423772
  59.3549160 137.5452551  46.8202662  58.7761154 138.7982557  47.4422458
  60.1886138 138.2683032  43.2050930  60.2107835 138.3322366  42.2502909
  60.6054197 137.4287541  43.3991436  61.7374350 139.0671109  48.5485922
  62.2556293 139.8032136  48.2232410  61.3829482 139.3735102  49.3832681
  61.9886944 135.4871391  44.0686818  62.2688698 134.8194580  44.6947245
  62.7737551 135.6800487  43.5561482  63.8810182 140.9944608  48.0017794
  63.2860114 141.2749621  47.3064283  63.5959878 141.4838509  48.7734535
  68.4878368 143.9206188  46.9758976  67.9717417 143.1364645  46.7888905
  69.3718317 143.5924905  47.1405496  66.1489095 137.6647204  42.9354789
  65.9513916 137.3562292  43.8198121  66.7588801 138.3908843  43.0652719
  59.9772194 138.4678064  39.0627023  59.1672922 138.1225149  39.4382270
  60.6656611 138.1585608  39.6514635  61.9062742 137.5456111  40.6851320
  62.4593781 137.9651564  41.3441343  62.1432828 136.6191859  40.7274276
  65.2841549 139.6556636  40.1929984  64.7040218 140.3141440  39.8108037
  65.0177482 138.8333981  39.7817402  63.7345115 139.0561694  42.3951305
  64.2344894 139.1678228  41.5865624  64.3780723 138.7522747  43.0352113
  64.0666427 141.8156726  39.2486333  63.1792282 142.1006377  39.0306527
  64.4820416 141.6550490  38.4013610  67.4180963 141.8403247  42.9640672
  68.1941353 142.3299700  43.2365289  66.6929097 142.2661302  43.4212541
  69.8553522 142.5530867  44.0214612  70.4498013 142.3126603  43.3107921
  69.9280106 141.8337997  44.6488149  67.8512257 143.1200994  40.2886742
  67.5949191 142.7197630  41.1194950  67.2265125 143.8344788  40.1636881
  58.0838356 138.0224153  36.3374470  58.0717025 138.9665992  36.4942741
  58.9761777 137.8394298  36.0433932  61.8990475 134.6166929  40.5920407
  61.1322871 134.0625416  40.7377090  62.3101180 134.6888798  41.4534559
   0.6185496  36.7207410  33.7146821   1.4402940  36.3187597  33.4329502
   0.6147899  36.6175644  34.6662936   3.6740564  35.3275023  34.7178092
   3.8676454  36.2320833  34.9637367   3.5741182  34.8682442  35.5516677
   2.2528347  37.6711859  40.2820586   1.4623891  37.6535998  39.7425086
   2.0161702  38.2100153  41.0369623   2.3726222  34.5204326  37.5953315
   2.4224227  34.3554333  38.5368838   2.2640146  33.6531585  37.2051196
   3.8744419  36.9401267  37.8395336   3.5829228  37.3031248  38.6758797
   3.2616550  36.2268275  37.6608668   2.1231607  32.0633882  36.3075394
   2.5985729  32.2561528  35.4994246   1.1997173  32.1193068  36.0618778
   9.1197904  33.2221768  32.7952036   9.8501293  32.9607056  33.3559740
   8.5104850  32.4850490  32.8354104   8.7118087  47.5664198  32.2133296
   9.3496497  47.4470945  31.5096636   8.5938930  48.5145042  32.2721248
   5.5207794  47.5191626  32.1494821   5.1826305  47.4032691  31.2615356
   6.3897562  47.1182791  32.1295827   1.3794609  49.3727102  28.1391712
   0.8159474  49.2817039  27.3707999   1.2647004  48.5527007  28.6194204
   6.0027577  48.6726478  38.1081026   5.9916217  48.2779276  37.2361530
   6.1648216  47.9392550  38.7014798   6.9594168  53.0398070  23.4506177
   6.3082148  53.6252151  23.0640190   7.7538531  53.5704265  23.5101214
   2.7234838  51.4563590  37.0560210   2.4324704  52.3609220  36.9406877
   3.3591822  51.4980117  37.7704280   3.6491045  48.8340438  33.6461570
   4.2454617  48.6096460  32.9318533   3.7066016  48.0925184  34.2487018
   8.2659356  45.2915652  29.2886504   9.0522445  44.8735075  28.9376921
   8.5298060  46.1961744  29.4568152   8.4369433  50.7288502  23.9875161
   7.8015266  50.8023129  24.6996066   8.1066840  51.3182101  23.3094240
  13.6667783  45.2290885  30.1919483  14.3992955  44.6590102  30.4257312
  12.9107139  44.8412485  30.6325988   5.2843903  47.6518126  27.3882825
   4.9202110  47.1248747  28.0995747   6.1411019  47.2616595  27.2149310
  11.1893203  38.9412459  34.6514091  10.8576528  39.8107870  34.4275306
  10.5938817  38.6248743  35.3308122   7.6824723  51.1425005  34.0510004
   7.3825446  52.0450044  33.9425811   7.3375782  50.8757188  34.9031157
  11.0821867  43.6607545  31.7307441  10.1738744  43.5922954  31.4366202
  11.0309462  44.1379490  32.5589267   2.6645503  57.9069325  27.0180972
   2.5869532  58.8577150  27.0969452   2.0607146  57.5615198  27.6755898
   5.1562732  45.0797191  39.6742339   4.3796066  45.6391111  39.6645203
   5.7953295  45.5653974  40.1957209  12.9483513  41.8623984  33.5085315
  12.3057893  42.1556517  32.8625110  12.4438442  41.7476904  34.3138512
  10.6023677  45.6087157  24.1971174  11.5141533  45.8414544  24.0218872
  10.0933324  46.1924201  23.6346253   3.4109105  47.8882644  39.2360306
   4.1523789  48.4267688  38.9595129   2.7046090  48.5148933  39.3931857
   8.8864444  50.0311785  37.8332467   9.2947800  49.5894195  37.0887099
   8.1641706  49.4564412  38.0866660   5.2395514  44.9684391  35.2066024
   6.0856710  45.3923805  35.3500673   5.1794152  44.3118016  35.9004587
   9.2093259  50.5912975  31.5884756   8.5802121  50.7558689  30.8860824
   8.8218921  51.0054585  32.3595720  13.0882491  51.5267413  28.9429120
  12.4033529  51.9066314  28.3926153  13.1726340  52.1362740  29.6761067
   8.3894960  42.6288760  36.8647198   8.1455892  43.3830820  36.3281473
   8.6654890  43.0074107  37.6994445  10.3433422  49.1727372  35.5424463
  10.5550318  49.8159132  34.8658844  10.2963171  48.3389689  35.0746393
   7.9459651  41.7845193  32.4461035   7.0844130  42.0826446  32.7377773
   7.9722086  42.0015592  31.5142068   4.7621221  50.3287383  28.8534841
   5.2259566  50.6075086  28.0639463   4.4978019  49.4270828  28.6707932
   1.6545302  49.8758865  31.7914604   2.2246659  50.3046133  31.1532089
   2.2453414  49.5941450  32.4898790   2.1470468  45.0422292  40.0375616
   1.5169129  45.7238573  40.2711012   2.0406556  44.9305374  39.0928754
  11.4579250  52.0499328  33.7146821  12.2796694  51.6479515  33.4329502
  11.4541653  51.9467562  34.6662936   5.2235854  51.5983371  35.8707531
   5.2880286  52.0603778  36.7065703   4.5146778  50.9680736  35.9989841
  19.5485243  48.3938076  30.0631792  18.7948952  47.8245474  29.9075796
  19.6832785  48.3600741  31.0102427   4.9383872  53.2651478  25.7386511
   4.8029546  54.1103014  26.1671359   5.4793684  53.4670756  24.9752445
   1.4251211  39.3443058  42.4000867   1.0318157  38.7909257  43.0748511
   2.2417352  39.6553637  42.7907384   4.3419172  40.7600937  39.9921123
   5.0828886  41.3608090  39.9125586   4.5737095  40.0178575  39.4339166
   6.5652348  53.8875045  39.8686853   6.1216202  53.1011423  39.5507758
   7.2269562  54.0754195  39.2030744   1.3239469  55.4170846  34.3947532
   1.8746894  55.2887910  33.6224526   0.4850945  55.7165735  34.0442425
   8.6633586  54.1677845  37.8968255   8.6452061  54.9886726  37.4048524
   9.5853506  54.0431920  38.1218396   5.1206640  51.6821974  38.7391763
   5.6534977  50.9210262  38.5091071   4.5920721  51.3895626  39.4815918
   8.2876335  36.7882040  34.2685405   7.9440605  37.6783682  34.1924515
   8.6555298  36.5983698  33.4054990   7.3672876  39.1586695  32.2334638
   6.8637671  39.1216831  31.4202443   7.6603482  40.0679438  32.2931295
   3.6115761  39.2425425  31.2400820   4.4768758  39.0468234  30.8806709
   3.6793270  39.0135777  32.1670177  13.2260892  49.5323006  24.7111013
  12.4490335  49.1934165  24.2666175  13.9052373  49.5375629  24.0365978
   6.4859353  50.8107967  26.2510575   5.9580714  50.0760726  25.9383813
   5.9846856  51.5882643  26.0050543  11.4652199  49.0056987  31.3677621
  10.8075873  49.6956249  31.4557750  12.2692598  49.3953419  31.7111608
  10.2757658  47.3601360  29.4181563  10.7889539  47.9931352  29.9203273
  10.9258882  46.7602555  29.0524923   7.5380032  57.3385684  22.1742234
   6.8641731  57.6417381  22.7827192   7.9245854  58.1414765  21.8247691
   6.7538489  44.8350815  31.6639904   5.8361050  45.0565762  31.5061592
   7.1698632  44.9097126  30.8051611   7.5373536  46.2342231  26.7942584
   8.2845355  46.7463628  26.4849706   7.8065126  45.9126284  27.6546977
  11.0419454  52.3407361  27.5460706  10.5881781  51.4998271  27.6025896
  10.4113421  52.9768760  27.8835486   9.9852373  43.2699347  28.7761373
   9.2475130  42.7576734  29.1071616  10.2379147  42.8299729  27.9644650
   9.4852393  54.1783858  28.4810524   9.7775368  54.7388915  27.7622890
   9.9951014  54.4712419  29.2363683   4.3585081  46.3429392  29.8779334
   4.4133690  45.3903229  29.8021810   3.5476283  46.4988832  30.3620632
   2.2977440  44.9606452  27.6369712   1.4845306  45.2600623  28.0434905
   2.7936435  44.5662141  28.3544195   4.4486018  54.9564209  29.5703977
   4.4062197  55.1825055  28.6412509   5.3648717  54.7227584  29.7189778
   7.8951652  45.4248277  36.4684606   8.2501040  45.6519750  37.3279072
   8.5423783  45.7566653  35.8461862  13.6249389  48.5466713  27.1733935
  13.4867288  48.7368309  26.2455125  13.2685608  49.3086095  27.6301986
   1.7891515  42.5324808  33.2530947   2.4290895  42.3913567  32.5553911
   0.9569046  42.2459321  32.8769549  13.6518769  50.6143240  32.1845207
  14.0855275  50.5218529  33.0328261  14.3650349  50.5900740  31.5465223
   2.5651819  51.8327238  29.3665940   3.3592418  51.3377558  29.1648515
   1.8543511  51.3045101  29.0033645   7.3846664  54.2145334  33.7178307
   7.4383686  54.7836270  34.4856023   6.5161445  54.3847219  33.3532345
  14.5134318  50.6566940  34.7178092  14.7070208  51.5612751  34.9637367
  14.4134936  50.1974359  35.5516677   6.1670629  40.5424831  37.2168420
   5.5198544  41.2414780  37.1232896   6.9371644  40.9760975  37.5844668
   9.5749427  50.8073683  40.2918973   9.4234933  50.5784235  39.3749057
   9.5654106  51.7644284  40.3050318   6.3434763  48.3805596  35.2765239
   7.2726823  48.5316755  35.1034207   5.9225793  48.4689617  34.4213886
   5.1423095  52.4056260  33.0463777   5.0034181  52.0375045  33.9189715
   4.3537691  52.9203900  32.8747735   5.7371247  57.5065357  24.3889313
   5.9123003  57.0353400  25.2034936   5.0504035  58.1331123  24.6170574
   6.6928310  51.7837863  30.4352615   6.3578143  51.7438633  31.3310265
   6.1932256  51.1182579  29.9623025   0.6672554  47.1905493  35.9605196
   0.5292352  46.4585732  36.5616735   1.5777478  47.1014393  35.6789384
   3.2954855  46.9025452  35.4488876   4.0054473  46.2618644  35.4075494
   3.2524163  47.1538347  36.3715056  11.2841634  53.8392806  38.3695455
  11.2254180  53.1552026  37.7026038  11.6861152  54.5811796  37.9176081
   2.0083789  43.8890670  37.2684515   1.4721146  43.4381409  37.9206111
   1.4200497  44.0236579  36.5254979  11.2859041  51.8032389  36.6009434
  10.3985820  51.4658311  36.7235833  11.8557592  51.0715421  36.8378200
   4.8160194  56.4633842  33.5670678   4.7430366  57.2688813  34.0789982
   4.3737587  56.6625808  32.7418699   4.6049974  55.7005612  27.0773499
   3.8217496  56.2427292  27.1711724   5.3042719  56.2179591  27.4767740
   7.9146624  41.5100241  29.7207705   8.4115323  40.7570204  29.4008775
   7.1433605  41.5464558  29.1550914  15.7676381  47.2140607  31.3625996
  15.7566258  48.0965322  30.9919929  14.8993761  46.8612158  31.1680533
   7.2758878  56.3620676  35.7228836   7.9886850  56.9968141  35.6504738
   6.7848906  56.4584542  34.9068838   8.9976405  50.2671929  27.2946128
   8.0632683  50.3873391  27.1250832   9.1753073  49.3644395  27.0306138
   4.4981593  43.6517624  29.4479389   4.1279380  43.0988665  30.1360295
   4.9940685  43.0475758  28.8954389  12.3848956  46.1089248  27.8296162
  12.8509408  46.9417239  27.7556465  12.8356456  45.6434229  28.5341421
   2.3270791  54.1115119  36.5434407   3.0280251  54.7451602  36.6963801
   1.8565906  54.4529851  35.7830046  10.4525187  52.4533069  24.8282314
  10.7285031  52.3389664  25.7376188   9.5829686  52.0550554  24.7894487
  10.3565619  38.4769835  31.8687063   9.4428699  38.7074062  32.0369270
  10.7858720  38.5608279  32.7201096  10.1272077  46.6659727  34.3686957
   9.4743527  46.9135634  33.7139410  10.5052457  45.8523865  34.0349435
   7.0879251  56.7019420  28.4715128   7.2701646  55.8841076  28.9342880
   7.9112237  56.9187112  28.0340018   7.4221417  55.6287605  25.7330176
   7.9509183  55.1180060  25.1200338   7.6849636  55.3130135  26.5975709
   6.1759650  47.4079538  40.8552995   5.5000287  47.3073667  41.5255370
   6.9987284  47.2518752  41.3188992   4.9182433  58.7146465  35.0910611
   5.4700741  58.8778087  35.8559696   5.2588627  59.3050903  34.4190635
   9.7693307  53.5407723  40.9459265  10.3133211  54.1537681  40.4514220
   9.1880152  54.0987301  41.4626278   8.0550820  56.6628441  32.0774293
   7.9301960  55.8618181  31.5685238   8.7129912  57.1574634  31.5888263
  10.1185729  54.4637461  33.7053843   9.1716064  54.3442812  33.6332169
  10.4668502  53.5759959  33.7880104   2.4785302  40.3531600  37.5292085
   3.0019704  40.5993896  38.2918394   2.2597635  41.1851635  37.1095222
   7.1232162  54.2590177  29.9058195   6.9757125  53.3306885  30.0865765
   7.9485656  54.2810268  29.4215270  10.7266284  55.0818736  30.9923068
  11.6512831  54.8761597  30.8547519  10.5581587  54.8335137  31.9012409
   3.6837847  41.2945295  35.2141755   3.3434668  40.4953108  35.6162435
   2.9776853  41.5947006  34.6418588   4.3354319  38.3794607  33.6669078
   5.1580388  37.9055086  33.5447969   4.5792383  39.1585091  34.1667765
   1.8592898  45.0713728  31.4761057   1.7137479  45.3854031  32.3685338
   1.3818101  45.6898628  30.9231955   3.7189281  42.0616276  31.5241946
   3.7050849  41.1657369  31.1874244   4.4361709  42.0686940  32.1580232
   5.5715411  42.4953616  33.5695074   5.3133189  43.4170687  33.5679404
   5.0400452  42.0984051  34.2595538  10.5161600  55.6004403  26.3485159
  10.6898478  55.0350826  25.5959012  11.0090491  56.4005298  26.1664649
  16.3700991  48.3640826  27.9675459  16.8132137  47.6148151  27.5694582
  15.4927502  48.3550963  27.5849191  11.5036773  54.9171168  23.4482057
  12.1987677  55.5377860  23.6669372  11.8459923  54.0666519  23.7234435
  13.4028196  52.3670873  24.9769388  13.9279520  52.7058146  24.2518708
  13.3150548  51.4317889  24.7932523   5.0648244  56.2804947  37.1059265
   5.3735371  56.0354094  37.9781964   5.8623726  56.4851585  36.6178135
   5.0868857  58.4342856  29.3364641   4.6473847  57.9419235  30.0297498
   5.8376973  57.8915824  29.0956717   2.5342729  53.9780866  31.4086943
   1.9122738  53.3151571  31.1089171   3.2047596  54.0041997  30.7260591
   2.6067256  42.4562654  41.0019449   2.6555412  43.3324776  40.6197219
   3.1489770  41.9140047  40.4291092  13.0922102  53.0003777  40.2820586
  12.3017646  52.9827916  39.7425086  12.8555456  53.5392071  41.0369623
  13.2119977  49.8496243  37.5953315  13.2617982  49.6846251  38.5368838
  13.1033900  48.9823502  37.2051196   2.0956236  52.5284789  24.8845404
   2.2444356  53.2120253  24.2312076   2.9022679  52.5089879  25.3994859
  10.5023739  45.8327171  38.9112621  11.4033602  45.6933636  38.6196619
  10.5771714  45.9981626  39.8510799   4.8366545  43.2094026  37.7565808
   3.9669854  43.5027592  37.4848396   5.0726025  43.7934471  38.4773071
  14.7138174  52.2693185  37.8395336  14.4222982  52.6323165  38.6758797
  14.1010305  51.5560193  37.6608668  15.9133856  49.8346065  30.3597907
  16.7480747  50.2735869  30.5235467  16.0492985  49.3584718  29.5406152
  12.9625362  47.3925799  36.3075394  13.4379484  47.5853446  35.4994246
  12.0390927  47.4484985  36.0618778   7.5405578  39.4273643  35.2731228
   8.0587522  40.1634670  34.9477717   7.1860711  39.7337636  36.1077987
   7.7918173  35.8473925  30.7932125   8.0719926  35.1797115  31.4192551
   8.5768780  36.0403021  30.2806789   5.5951641  55.0232919  22.3557151
   5.0225608  55.6423107  21.9027623   6.1684435  55.5732281  22.8897073
  11.6627031  44.2691559  34.5403700  12.6144454  44.3689657  34.5615924
  11.4930481  43.4769828  35.0501784   9.6841410  41.3547143  34.7263101
   9.0891343  41.6352155  34.0309589   9.3991107  41.8441044  35.4979842
   8.8148901  55.3070070  23.4865733   9.7479574  55.2415631  23.6898609
   8.7272114  56.1426336  23.0280266  11.4436918  54.6235940  20.4469681
  11.3650549  54.2895803  21.3405439  12.2646584  55.1157708  20.4461153
  14.1415109  47.4897679  33.6546000  14.1091429  46.5513680  33.8405683
  14.7515732  47.5681716  32.9211824  14.2909597  44.2808723  33.7004283
  13.7748646  43.4967179  33.5134212  15.1749546  43.9527439  33.8650802
  11.9520324  38.0249738  29.6600095  11.7545145  37.7164826  30.5443427
  12.5620030  38.7511377  29.7898025  19.9591659  48.5513686  32.7952036
  20.6895047  48.2898974  33.3559740  19.3498604  47.8142408  32.8354104
  18.0406956  46.6921549  33.3926488  17.3140119  46.5577514  32.7842979
  17.6254243  46.9998377  34.1983206   5.8637132  50.4111478  41.1573861
   6.7840142  50.5890077  41.3513907   5.8286715  49.4667524  41.0053560
   3.7327070  43.8945719  43.1899391   3.6323797  44.8440076  43.1211482
   3.5148612  43.5663958  42.3175461   9.5376344  39.4164228  29.1196611
  10.0376123  39.5280762  28.3110930  10.1811952  39.1125281  29.7597420
   3.5958340  47.3242858  42.0064452   3.1125422  48.1243218  42.2128341
   3.6819279  47.3350802  41.0531896  13.2212192  42.2005782  29.6885978
  13.9972582  42.6902234  29.9610595  12.4960326  42.6263836  30.1457848
  15.6584751  42.9133401  30.7459919  16.2529241  42.6729137  30.0353227
  15.7311334  42.1940531  31.3733455   9.8438680  47.6913797  26.1881929
   9.7873881  48.1482348  25.3489562  10.3967022  46.9304481  26.0104772
  13.6543486  43.4803528  27.0132049  13.3980420  43.0800164  27.8440257
  13.0296354  44.1947322  26.8882188  17.9655823  46.2199602  29.5203340
  17.4055381  46.2892791  30.2934902  17.3599327  46.0440586  28.8002837
  10.9227567  52.3786464  22.1178119  11.7573171  51.9467663  21.9355594
  10.7611910  52.2068478  23.0455014  10.5773459  48.8818578  23.4834459
  10.5222263  48.7162849  22.5422903   9.9519514  49.5894611  23.6396648
   7.8919366  51.1867490  42.8088021   8.7610526  51.3608142  42.4474656
   7.4126118  52.0061906  42.6863751   2.0605546  58.3064591  34.4877455
   2.9632793  58.3388201  34.8043950   1.8342916  57.3765042  34.5023791
   3.8159148  57.0595577  31.1487534   2.8654779  57.0597439  31.0351906
   4.1191634  56.3128312  30.6323568  19.5511842  62.8956116  32.2133296
  20.1890252  62.7762863  31.5096636  19.4332685  63.8436960  32.2721248
  16.3601548  62.8483544  32.1494821  16.0220060  62.7324608  31.2615356
  17.2291316  62.4474709  32.1295827  12.2188364  64.7019020  28.1391712
  11.6553229  64.6108957  27.3707999  12.1040759  63.8818925  28.6194204
  16.8421331  64.0018395  38.1081026  16.8309972  63.6071194  37.2361530
  17.0041971  63.2684468  38.7014798   9.7652796  66.1970212  30.9775932
  10.5574088  65.8561036  30.5622231  10.0049446  66.3065187  31.8978085
  17.7987923  68.3689988  23.4506177  17.1475902  68.9544068  23.0640190
  18.5932285  68.8996183  23.5101214  11.7243550  65.4579125  23.8493311
  12.4974426  64.9108112  23.7106187  12.0768949  66.3223374  24.0607772
  13.5628592  66.7855507  37.0560210  13.2718458  67.6901138  36.9406877
  14.1985577  66.8272035  37.7704280  14.4884799  64.1632356  33.6461570
  15.0848371  63.9388378  32.9318533  14.5459771  63.4217101  34.2487018
  14.0609828  61.6171791  21.4811761  14.3135348  61.0953312  20.7195224
  13.1234387  61.4537936  21.5838444  19.1053110  60.6207569  29.2886504
  19.8916200  60.2026993  28.9376921  19.3691815  61.5253662  29.4568152
  19.2763188  66.0580420  23.9875161  18.6409021  66.1315046  24.6996066
  18.9460594  66.6474019  23.3094240  24.5061537  60.5582803  30.1919483
  25.2386709  59.9882019  30.4257312  23.7500893  60.1704403  30.6325988
  13.7806116  63.5199897  23.6836136  13.6642374  62.8444800  24.3517220
  13.8908376  63.0332271  22.8668289  16.1237657  62.9810044  27.3882825
  15.7595864  62.4540665  28.0995747  16.9804773  62.5908513  27.2149310
  22.0286958  54.2704377  34.6514091  21.6970283  55.1399788  34.4275306
  21.4332571  53.9540661  35.3308122  15.7643144  58.0099944  22.3844174
  15.9317546  58.8780180  22.7514645  15.5740313  58.1727225  21.4605463
  18.5218477  66.4716923  34.0510004  18.2219200  67.3741962  33.9425811
  18.1769537  66.2049106  34.9031157  11.9730959  62.9230720  30.0846708
  11.0481455  62.7906934  30.2924400  12.2215372  63.7024939  30.5816651
  21.9215621  58.9899463  31.7307441  21.0132498  58.9214871  31.4366202
  21.8703217  59.4671408  32.5589267  15.7432365  60.4657601  23.3690840
  15.6231990  60.9114652  24.2076321  15.0484953  60.8142919  22.8104379
   9.3339770  62.5663993  30.9190497   9.4632151  62.8198472  31.8329909
   8.6537221  63.1591701  30.5995152  13.5039257  73.2361243  27.0180972
  13.4263287  74.1869068  27.0969452  12.9000901  72.8907116  27.6755898
  15.9956487  60.4089108  39.6742339  15.2189821  60.9683029  39.6645203
  16.6347050  60.8945891  40.1957209  23.7877268  57.1915901  33.5085315
  23.1451648  57.4848434  32.8625110  23.2832196  57.0768822  34.3138512
  21.4417431  60.9379074  24.1971174  22.3535287  61.1706461  24.0218872
  20.9327078  61.5216119  23.6346253  14.2502859  63.2174562  39.2360306
  14.9917544  63.7559606  38.9595129  13.5439845  63.8440851  39.3931857
  19.7258199  65.3603702  37.8332467  20.1341555  64.9186113  37.0887099
  19.0035460  64.7856330  38.0866660  16.0789269  60.2976309  35.2066024
  16.9250464  60.7215723  35.3500673  16.0187907  59.6409933  35.9004587
  20.0487013  65.9204893  31.5884756  19.4195876  66.0850607  30.8860824
  19.6612676  66.3346502  32.3595720  23.9276245  66.8559331  28.9429120
  23.2427284  67.2358232  28.3926153  24.0120095  67.4654657  29.6761067
  19.2288714  57.9580677  36.8647198  18.9849646  58.7122738  36.3281473
  19.5048645  58.3366025  37.6994445  21.1827177  64.5019290  35.5424463
  21.3944072  65.1451050  34.8658844  21.1356925  63.6681606  35.0746393
  18.7853406  57.1137110  32.4461035  17.9237885  57.4118364  32.7377773
  18.8115841  57.3307509  31.5142068  15.6014975  65.6579301  28.8534841
  16.0653321  65.9367004  28.0639463  15.3371773  64.7562746  28.6707932
  12.4939056  65.2050783  31.7914604  13.0640413  65.6338051  31.1532089
  13.0847168  64.9233367  32.4898790  14.5383861  61.7802453  25.6624406
  15.2407905  62.2323497  26.1298332  14.2064490  61.1386272  26.2904299
  12.9864223  60.3714210  40.0375616  12.3562884  61.0530491  40.2711012
  12.8800311  60.2597292  39.0928754   8.2809195  60.0386006  30.9641540
   7.4908249  60.2943535  30.4881650   8.7720443  60.8534344  31.0693580
  22.2973005  67.3791245  33.7146821  23.1190449  66.9771432  33.4329502
  22.2935408  67.2759479  34.6662936  10.2323941  60.4030585  27.9225016
   9.4355104  60.5149280  28.4408512  10.0049533  60.7417238  27.0565907
  16.0629608  66.9275289  35.8707531  16.1274041  67.3895696  36.7065703
  15.3540532  66.2972653  35.9989841   6.5646898  60.2916496  33.3956530
   6.8154937  61.1763506  33.6614106   7.1006447  60.1121098  32.6231622
  30.3878998  63.7229994  30.0631792  29.6342706  63.1537392  29.9075796
  30.5226539  63.6892658  31.0102427  15.7777626  68.5943396  25.7386511
  15.6423301  69.4394932  26.1671359  16.3187439  68.7962674  24.9752445
  12.2644966  54.6734976  42.4000867  11.8711911  54.1201174  43.0748511
  13.0811106  54.9845554  42.7907384   9.2307023  66.1118834  26.3114436
   9.7431544  66.9062084  26.4620001   9.8829736  65.4145124  26.2448038
  11.0401908  69.2284590  28.3937190  11.2168536  70.1502555  28.2058173
  11.8358742  68.9143010  28.8231569  15.1812927  56.0892855  39.9921123
  15.9222640  56.6900008  39.9125586  15.4130849  55.3470493  39.4339166
  10.3254265  61.2749222  38.2699353  10.2107780  60.3734479  38.5706452
   9.4698782  61.5212919  37.9184169  17.4046102  69.2166963  39.8686853
  16.9609957  68.4303341  39.5507758  18.0663316  69.4046113  39.2030744
  12.1633224  70.7462764  34.3947532  12.7140649  70.6179827  33.6224526
  11.3244699  71.0457653  34.0442425  19.5027340  69.4969762  37.8968255
  19.4845816  70.3178643  37.4048524  20.4247261  69.3723838  38.1218396
  15.9600395  67.0113892  38.7391763  16.4928731  66.2502180  38.5091071
  15.4314476  66.7187544  39.4815918  19.1270090  52.1173958  34.2685405
  18.7834359  53.0075600  34.1924515  19.4949052  51.9275616  33.4054990
   7.1955940  64.4407488  27.0874007   8.0331162  64.8504497  26.8707715
   7.3734208  63.5006931  27.0574201  19.0920372  62.1082569  22.7757840
  18.5766996  62.8787174  23.0146227  18.8197681  61.4347705  23.3990901
  16.6767483  56.9532270  27.8343078  15.8209080  56.5639120  27.6548717
  17.0894435  57.0324231  26.9742864  18.2066630  54.4878613  32.2334638
  17.7031426  54.4508748  31.4202443  18.4997237  55.3971356  32.2931295
  14.4509516  54.5717343  31.2400820  15.3162513  54.3760151  30.8806709
  14.5187025  54.3427695  32.1670177  24.0654646  64.8614924  24.7111013
  23.2884089  64.5226083  24.2666175  24.7446127  64.8667547  24.0365978
  18.8806675  59.9809661  24.6017621  18.5756811  60.2955810  25.4527764
  19.8337118  60.0591081  24.6444954  17.3253107  66.1399884  26.2510575
  16.7974469  65.4052644  25.9383813  16.8240610  66.9174561  26.0050543
  22.3045953  64.3348905  31.3677621  21.6469628  65.0248166  31.4557750
  23.1086353  64.7245337  31.7111608  12.0571835  56.8019551  28.6117187
  12.6315587  56.5794732  27.8790380  12.6442817  56.8708245  29.3645788
  21.1151412  62.6893278  29.4181563  21.6283294  63.3223269  29.9203273
  21.7652636  62.0894473  29.0524923  12.3841422  58.8324012  22.6313072
  11.5478734  59.1698698  22.9522347  12.2446192  58.6972992  21.6940209
  14.3594503  53.6760800  27.3392256  13.7058915  53.3609817  26.7148871
  14.3174977  53.0536540  28.0652079  15.4705708  63.9580095  19.2545548
  14.5632769  63.7269348  19.4536697  15.9676740  63.1617714  19.4419530
  18.3773786  72.6677602  22.1742234  17.7035485  72.9709299  22.7827192
  18.7639608  73.4706682  21.8247691  17.5932243  60.1642733  31.6639904
  16.6754804  60.3857680  31.5061592  18.0092387  60.2389044  30.8051611
  18.3767291  61.5634149  26.7942584  19.1239110  62.0755546  26.4849706
  18.6458880  61.2418202  27.6546977  16.6493941  64.0592690  23.7769538
  15.7405160  63.7751722  23.8742008  16.6789025  64.4791768  22.9172845
  21.8813208  67.6699279  27.5460706  21.4275535  66.8290189  27.6025896
  21.2507175  68.3060677  27.8835486  20.8246128  58.5991265  28.7761373
  20.0868885  58.0868651  29.1071616  21.0772901  58.1591647  27.9644650
  20.3246148  69.5075776  28.4810524  20.6169122  70.0680833  27.7622890
  20.8344768  69.8004337  29.2363683  20.9257755  51.3767517  29.3703142
  21.2316632  50.5164881  29.0829058  21.6510360  51.9685137  29.1702136
   7.2182111  61.7798204  27.7584740   7.0206511  61.1867564  27.0335807
   6.6628775  61.4750414  28.4760679  15.1978835  61.6721310  29.8779334
  15.2527445  60.7195147  29.8021810  14.3870037  61.8280749  30.3620632
  16.3470029  65.6001433  21.1157617  15.9089459  64.8837292  20.6563254
  17.0880470  65.8277548  20.5542708  13.1371195  60.2898370  27.6369712
  12.3239060  60.5892540  28.0434905  13.6330189  59.8954059  28.3544195
  15.2879773  70.2856127  29.5703977  15.2455952  70.5116973  28.6412509
  16.2042472  70.0519501  29.7189778  18.7345407  60.7540194  36.4684606
  19.0894794  60.9811667  37.3279072  19.3817538  61.0858571  35.8461862
  24.4643144  63.8758630  27.1733935  24.3261042  64.0660226  26.2455125
  24.1079362  64.6378013  27.6301986  12.6285270  57.8616725  33.2530947
  13.2684649  57.7205485  32.5553911  11.7962800  57.5751239  32.8769549
  24.4912523  65.9435157  32.1845207  24.9249030  65.8510446  33.0328261
  25.2044104  65.9192658  31.5465223  13.4045574  67.1619156  29.3665940
  14.1986172  66.6669476  29.1648515  12.6937266  66.6337019  29.0033645
  18.2240418  69.5437251  33.7178307  18.2777440  70.1128188  34.4856023
  17.3555199  69.7139136  33.3532345   9.7128337  61.3062238  25.4425693
   8.7825925  61.2446693  25.6595655   9.8085809  60.7838190  24.6462334
   9.6313886  57.8317050  28.0303934   9.8920703  58.7462384  27.9213095
  10.4531058  57.3641493  28.1800547  11.1038811  59.2454808  35.2002759
  11.7761865  59.0372170  34.5515408  10.2768598  59.0476894  34.7607991
  25.3528073  65.9858858  34.7178092  25.5463963  66.8904668  34.9637367
  25.2528691  65.5266277  35.5516677  17.0064383  55.8716748  37.2168420
  16.3592298  56.5706698  37.1232896  17.7765399  56.3052892  37.5844668
  20.4143181  66.1365601  40.2918973  20.2628688  65.9076152  39.3749057
  20.4047861  67.0936202  40.3050318  17.1828518  63.7097513  35.2765239
  18.1120578  63.8608673  35.1034207  16.7619548  63.7981534  34.4213886
  15.9816850  67.7348178  33.0463777  15.8427935  67.3666962  33.9189715
  15.1931446  68.2495817  32.8747735  16.5765002  72.8357274  24.3889313
  16.7516757  72.3645317  25.2034936  15.8897790  73.4623040  24.6170574
  17.5322065  67.1129781  30.4352615  17.1971897  67.0730550  31.3310265
  17.0326010  66.4474496  29.9623025  11.5066309  62.5197411  35.9605196
  11.3686107  61.7877649  36.5616735  12.4171232  62.4306311  35.6789384
  20.4681256  64.4585815  20.7089674  19.8510427  63.7332643  20.6122727
  19.9997745  65.2195175  20.3656749  14.1348609  62.2317370  35.4488876
  14.8448228  61.5910562  35.4075494  14.0917918  62.4830265  36.3715056
  22.1235388  69.1684723  38.3695455  22.0647934  68.4843943  37.7026038
  22.5254906  69.9103713  37.9176081  12.8477543  59.2182588  37.2684515
  12.3114900  58.7673326  37.9206111  12.2594252  59.3528497  36.5254979
  11.1426087  75.9846637  31.1629174  11.3822685  76.6165161  31.8408192
  10.2995283  75.6334677  31.4494533  12.2579802  58.6771239  19.8310979
  11.3809269  58.5560040  19.4673225  12.7337555  57.8857317  19.5789867
  22.1252795  67.1324307  36.6009434  21.2379574  66.7950229  36.7235833
  22.6951346  66.4007338  36.8378200   3.7781942  63.4648399  29.9252486
   4.4652982  63.1510129  29.3373501   3.6230071  64.3689764  29.6519737
   8.5816665  58.3538595  34.3537509   8.4974853  57.7464265  33.6187919
   7.7599371  58.8447614  34.3547006  15.6553949  71.7925759  33.5670678
  15.5824120  72.5980731  34.0789982  15.2131342  71.9917725  32.7418699
  15.4443728  71.0297530  27.0773499  14.6611250  71.5719210  27.1711724
  16.1436473  71.5471509  27.4767740  18.7540378  56.8392159  29.7207705
  19.2509078  56.0862121  29.4008775  17.9827360  56.8756476  29.1550914
  26.6070136  62.5432525  31.3625996  26.5960012  63.4257240  30.9919929
  25.7387515  62.1904075  31.1680533  18.1152632  71.6912594  35.7228836
  18.8280604  72.3260058  35.6504738  17.6242661  71.7876460  34.9068838
  19.8370159  65.5963846  27.2946128  18.9026438  65.7165309  27.1250832
  20.0146828  64.6936313  27.0306138  15.3375347  58.9809542  29.4479389
  14.9673135  58.4280582  30.1360295  15.8334440  58.3767675  28.8954389
  23.2242710  61.4381165  27.8296162  23.6903163  62.2709157  27.7556465
  23.6750211  60.9726147  28.5341421  13.1664546  69.4407037  36.5434407
  13.8674005  70.0743520  36.6963801  12.6959661  69.7821769  35.7830046
  21.2918942  67.7824987  24.8282314  21.5678785  67.6681581  25.7376188
  20.4223440  67.3842472  24.7894487  21.1959373  53.8061752  31.8687063
  20.2822453  54.0365979  32.0369270  21.6252475  53.8900197  32.7201096
  20.9665832  61.9951644  34.3686957  20.3137282  62.2427552  33.7139410
  21.3446212  61.1815783  34.0349435  17.9273006  72.0311338  28.4715128
  18.1095400  71.2132994  28.9342880  18.7505992  72.2479030  28.0340018
  18.2615171  70.9579523  25.7330176  18.7902938  70.4471977  25.1200338
  18.5243391  70.6422053  26.5975709  17.0153405  62.7371455  40.8552995
  16.3394042  62.6365585  41.5255370  17.8381039  62.5810669  41.3188992
   8.7632264  68.9743392  33.4765510   9.3485701  68.2287080  33.6093414
   8.5657102  69.2847349  34.3602174  11.6170919  72.0094639  28.4927952
  10.9481294  72.4940767  28.0091992  11.4783789  72.2563860  29.4071331
   3.3549919  61.5448992  32.1969953   3.3934018  61.0112583  32.9907071
   2.8490211  61.0184198  31.5780930  15.7576188  74.0438383  35.0910611
  16.3094496  74.2070004  35.8559696  16.0982381  74.6342821  34.4190635
  10.7340681  56.3913533  35.6932495  10.7982007  57.2528364  35.2809893
  10.6707801  55.7787534  34.9604854  10.2092953  58.4636665  39.3405529
  10.8364992  58.0813743  39.9543054   9.3520872  58.2450867  39.7061222
  20.6087062  68.8699640  40.9459265  21.1526966  69.4829599  40.4514220
  20.0273907  69.4279219  41.4626278   6.9858496  60.2713094  25.2723884
   7.2811937  59.3623773  25.2190938   6.0846532  60.2500834  24.9504887
  18.8944575  71.9920358  32.0774293  18.7695714  71.1910098  31.5685238
  19.5523666  72.4866552  31.5888263  10.5152743  58.3469091  31.2551433
   9.7939329  58.9605059  31.1158906  11.3045999  58.8826856  31.1768079
  20.9579483  69.7929379  33.7053843  20.0109819  69.6734730  33.6332169
  21.3062256  68.9051877  33.7880104  13.3179057  55.6823517  37.5292085
  13.8413458  55.9285814  38.2918394  13.0991390  56.5143552  37.1095222
   8.7146338  57.9527192  25.3963209   8.3859044  57.0724571  25.2138315
   9.0685708  57.8974861  26.2839599  17.9625917  69.5882095  29.9058195
  17.8150879  68.6598802  30.0865765  18.7879410  69.6102185  29.4215270
  11.8288161  58.2400162  25.7638687  12.1684233  58.7686083  25.0417295
  12.2760281  58.5780568  26.5397254  21.5660038  70.4110653  30.9923068
  22.4906586  70.2053515  30.8547519  21.3975342  70.1627055  31.9012409
  14.5231602  56.6237213  35.2141755  14.1828422  55.8245026  35.6162435
  13.8170608  56.9238923  34.6418588  15.1748074  53.7086525  33.6669078
  15.9974143  53.2347003  33.5447969  15.4186137  54.4877009  34.1667765
  13.8156308  56.7374783  23.9631980  14.5364671  57.1156036  23.4595697
  13.1921612  57.4563660  24.0666958  17.9587431  57.4419932  24.8990312
  18.1751045  58.3244570  24.5979140  17.4781498  57.0506146  24.1695954
  12.6986652  60.4005646  31.4761057  12.5531233  60.7145949  32.3685338
  12.2211856  61.0190546  30.9231955  14.5583035  57.3908194  31.5241946
  14.5444604  56.4949287  31.1874244  15.2755463  57.3978857  32.1580232
  16.4109166  57.8245534  33.5695074  16.1526944  58.7462604  33.5679404
  15.8794206  57.4275968  34.2595538  21.3555355  70.9296321  26.3485159
  21.5292232  70.3642743  25.5959012  21.8484246  71.7297216  26.1664649
   7.1732314  62.9410990  34.4148718   6.6285783  63.7170798  34.5468992
   8.0511664  63.2881795  34.2567839  13.9619931  56.2722574  26.7929517
  14.0835842  55.3439220  26.9920404  13.6721973  56.2861260  25.8807832
  16.8311121  53.9577484  29.9296236  16.8532818  54.0216817  28.9748216
  17.2479180  53.1181993  30.1236743  27.2094746  63.6932744  27.9675459
  27.6525892  62.9440069  27.5694582  26.3321256  63.6842880  27.5849191
  22.3430527  70.2463085  23.4482057  23.0381432  70.8669778  23.6669372
  22.6853677  69.3958437  23.7234435   7.9598336  62.0680886  37.3078875
   7.2180072  62.2163522  37.8943505   7.6391081  62.3289152  36.4445624
  24.2421950  67.6962791  24.9769388  24.7673274  68.0350064  24.2518708
  24.1544303  66.7609806  24.7932523  15.9041999  71.6096865  37.1059265
  16.2129125  71.3646011  37.9781964  16.7017481  71.8143503  36.6178135
  15.9262611  73.7634774  29.3364641  15.4867601  73.2711153  30.0297498
  16.6770728  73.2207742  29.0956717   8.4054950  69.9546315  29.3389270
   9.2312970  69.6550087  28.9587913   8.0549002  69.1853937  29.7879058
  13.3736483  69.3072783  31.4086943  12.7516492  68.6443488  31.1089171
  14.0441350  69.3333915  30.7260591   6.6063555  67.8732641  30.2978203
   5.7695463  67.4454816  30.1162204   6.5787200  68.0665085  31.2348994
  13.4461011  57.7854571  41.0019449  13.4949166  58.6616694  40.6197219
  13.9883525  57.2431964  40.4291092  23.9315856  68.3295695  40.2820586
  23.1411400  68.3119833  39.7425086  23.6949211  68.8683988  41.0369623
  24.0513731  65.1788161  37.5953315  24.1011736  65.0138168  38.5368838
  23.9427655  64.3115420  37.2051196  12.9349990  67.8576707  24.8845404
  13.0838110  68.5412171  24.2312076  13.7416434  67.8381797  25.3994859
  21.3417494  61.1619089  38.9112621  22.2427357  61.0225554  38.6196619
  21.4165468  61.3273544  39.8510799  15.6760299  58.5385944  37.7565808
  14.8063608  58.8319510  37.4848396  15.9119779  59.1226389  38.4773071
  25.5531928  67.5985102  37.8395336  25.2616736  67.9615083  38.6758797
  24.9404059  66.8852111  37.6608668  26.7527611  65.1637982  30.3597907
  27.5874502  65.6027786  30.5235467  26.8886739  64.6876635  29.5406152
  23.8019116  62.7217717  36.3075394  24.2773238  62.9145363  35.4994246
  22.8784682  62.7776903  36.0618778  10.6902623  63.8841884  25.8906473
  10.4448665  62.9804214  26.0886683  10.8598538  63.8859035  24.9485951
  18.3799333  54.7565561  35.2731228  18.8981277  55.4926588  34.9477717
  18.0254466  55.0629554  36.1077987   9.9598271  59.6170242  23.3892634
   9.2667516  59.6914597  22.7332670   9.7150022  58.8530585  23.9114151
  18.6311927  51.1765843  30.7932125  18.9113681  50.5089032  31.4192551
  19.4162534  51.3694939  30.2806789  16.4345396  70.3524837  22.3557151
  15.8619363  70.9715024  21.9027623  17.0078189  70.9024199  22.8897073
  22.5020785  59.5983477  34.5403700  23.4538208  59.6981575  34.5615924
  22.3324236  58.8061746  35.0501784  20.5235165  56.6839060  34.7263101
  19.9285097  56.9644073  34.0309589  20.2384862  57.1732961  35.4979842
  19.6542655  70.6361987  23.4865733  20.5873329  70.5707549  23.6898609
  19.5665868  71.4718254  23.0280266  22.2830672  69.9527858  20.4469681
  22.2044304  69.6187721  21.3405439  23.1040339  70.4449625  20.4461153
  24.9808863  62.8189597  33.6546000  24.9485183  61.8805598  33.8405683
  25.5909487  62.8973634  32.9211824  16.8192194  61.6885650  19.6973204
  17.7651299  61.5591858  19.7661622  16.4406439  60.9500312  20.1742632
  25.1303352  59.6100640  33.7004283  24.6142400  58.8259097  33.5134212
  26.0143300  59.2819357  33.8650802  22.7914079  53.3541656  29.6600095
  22.5938900  53.0456744  30.5443427  23.4013784  54.0803295  29.7898025
  30.7985413  63.8805604  32.7952036  31.5288802  63.6190892  33.3559740
  30.1892359  63.1434326  32.8354104  28.8800710  62.0213466  33.3926488
  28.1533874  61.8869431  32.7842979  28.4647997  62.3290295  34.1983206
  16.7030887  65.7403396  41.1573861  17.6233896  65.9181995  41.3513907
  16.6680470  64.7959441  41.0053560  15.0035111  59.6135626  19.6328089
  14.0966567  59.3168739  19.7090802  15.2811092  59.3165444  18.7662375
   5.9213052  60.9341990  30.0827135   5.6015836  60.0807298  29.7901509
   5.3746480  61.1490568  30.8385103   9.6992959  63.6504431  33.7996642
   9.9178969  64.5821538  33.8184676  10.1118733  63.2912405  34.5851446
  16.6197177  54.1572516  25.7872330  15.8097905  53.8119601  26.1627576
  17.3081594  53.8480060  26.3759942  18.5487725  53.2350563  27.4096627
  19.1018764  53.6546016  28.0686650  18.7857812  52.3086311  27.4519583
  14.5720824  59.2237636  43.1899391  14.4717551  60.1731993  43.1211482
  14.3542367  58.8955875  42.3175461  13.7733896  56.4722561  19.7740068
  14.6353060  56.7977460  20.0335885  13.9584240  55.6854057  19.2613134
   5.7901312  64.5544901  32.0520257   5.0964783  64.1398854  31.5390211
   6.5374303  64.5965438  31.4553676  21.9266532  55.3451088  26.9175291
  21.3465201  56.0035892  26.5353343  21.6602465  54.5228432  26.5062708
  20.3770099  54.7456146  29.1196611  20.8769877  54.8572680  28.3110930
  21.0205707  54.4417198  29.7597420  14.4352095  62.6534775  42.0064452
  13.9519176  63.4535135  42.2128341  14.5213034  62.6642720  41.0531896
   7.7038054  64.4863155  29.9286272   7.6808742  64.5850842  28.9768155
   8.0138691  65.3328306  30.2503438  10.3625432  66.5439310  34.0432886
  11.3168686  66.5123252  33.9762818  10.1637956  66.0829934  34.8583112
  10.9524814  65.1140426  36.6103684  11.7717703  65.6084505  36.6338521
  11.2261622  64.1972394  36.5821251  20.7091410  57.5051178  25.9731639
  19.8217265  57.7900829  25.7551834  21.1245399  57.3444942  25.1258916
  24.0605946  57.5297699  29.6885978  24.8366337  58.0194152  29.9610595
  23.3354081  57.9555753  30.1457848  26.4978505  58.2425318  30.7459919
  27.0922996  58.0021054  30.0353227  26.5705089  57.5232449  31.3733455
   8.7175661  72.0858929  31.0603084   8.5830129  71.3259330  30.4941082
   8.3007723  72.8099829  30.5931873  19.8534624  67.2695853  20.0679659
  20.5570474  67.4745855  20.6837315  19.1297273  67.8372615  20.3328743
  20.6832434  63.0205714  26.1881929  20.6267635  63.4774266  25.3489562
  21.2360777  62.2596399  26.0104772  24.4937240  58.8095446  27.0132049
  24.2374174  58.4092082  27.8440257  23.8690108  59.5239240  26.8882188
  28.8049578  61.5491519  29.5203340  28.2449136  61.6184709  30.2934902
  28.1993081  61.3732504  28.8002837  11.8744787  72.9828246  31.2721527
  11.7577171  73.9273679  31.1700217  11.0537233  72.6801808  31.6607326
  21.7621321  67.7078382  22.1178119  22.5966925  67.2759581  21.9355594
  21.6005664  67.5360396  23.0455014  21.4167213  64.2110495  23.4834459
  21.3616017  64.0454767  22.5422903  20.7913269  64.9186528  23.6396648
   6.2059728  59.4478560  37.3095881   6.8518592  58.9377514  37.7983106
   5.9976880  60.1847241  37.8839306  18.7313121  66.5159407  42.8088021
  19.6004280  66.6900060  42.4474656  18.2519872  67.3353824  42.6863751
  14.7263339  53.7118604  23.0619777  14.7142009  54.6560444  23.2188048
  15.6186761  53.5288750  22.7679238  12.8999301  73.6356508  34.4877455
  13.8026548  73.6680119  34.8043950  12.6736671  72.7056959  34.5023791
  14.6552903  72.3887495  31.1487534  13.7048534  72.3889356  31.0351906
  14.9585389  71.6420229  30.6323568  18.5415458  50.3061381  27.3165714
  17.7747854  49.7519868  27.4622396  18.9526163  50.3783250  28.1779865
  10.5457219  56.5946177  41.4070895  11.4088681  56.2382982  41.6174220
   9.9722630  56.2560072  42.0946299  30.3905596  78.2248033  32.2133296
  31.0284006  78.1054781  31.5096636  30.2726439  79.1728877  32.2721248
  27.1995303  78.1775461  32.1494821  26.8613814  78.0616526  31.2615356
  28.0685071  77.7766626  32.1295827  23.0582118  80.0310938  28.1391712
  22.4946983  79.9400875  27.3707999  22.9434513  79.2110842  28.6194204
  27.6815086  79.3310313  38.1081026  27.6703726  78.9363111  37.2361530
  27.8435725  78.5976386  38.7014798  20.6046550  81.5262129  30.9775932
  21.3967842  81.1852954  30.5622231  20.8443200  81.6357104  31.8978085
  28.6381677  83.6981905  23.4506177  27.9869657  84.2835986  23.0640190
  29.4326040  84.2288100  23.5101214  22.5637304  80.7871043  23.8493311
  23.3368180  80.2400030  23.7106187  22.9162703  81.6515292  24.0607772
  24.4022347  82.1147425  37.0560210  24.1112213  83.0193056  36.9406877
  25.0379331  82.1563952  37.7704280  25.3278554  79.4924273  33.6461570
  25.9242126  79.2680296  32.9318533  25.3853525  78.7509019  34.2487018
  24.9003582  76.9463709  21.4811761  25.1529103  76.4245230  20.7195224
  23.9628141  76.7829854  21.5838444  29.9446865  75.9499487  29.2886504
  30.7309954  75.5318910  28.9376921  30.2085569  76.8545579  29.4568152
  30.1156942  81.3872337  23.9875161  29.4802775  81.4606964  24.6996066
  29.7854349  81.9765936  23.3094240  35.3455292  75.8874720  30.1919483
  36.0780464  75.3173937  30.4257312  34.5894648  75.4996321  30.6325988
  24.6199871  78.8491815  23.6836136  24.5036129  78.1736718  24.3517220
  24.7302131  78.3624189  22.8668289  26.9631412  78.3101962  27.3882825
  26.5989619  77.7832583  28.0995747  27.8198528  77.9200431  27.2149310
  32.8680712  69.5996294  34.6514091  32.5364037  70.4691705  34.4275306
  32.2726326  69.2832578  35.3308122  26.6036899  73.3391861  22.3844174
  26.7711301  74.2072098  22.7514645  26.4134068  73.5019143  21.4605463
  29.3612232  81.8008840  34.0510004  29.0612955  82.7033879  33.9425811
  29.0163291  81.5341024  34.9031157  22.8124713  78.2522637  30.0846708
  21.8875210  78.1198851  30.2924400  23.0609126  79.0316856  30.5816651
  32.7609376  74.3191381  31.7307441  31.8526253  74.2506789  31.4366202
  32.7096971  74.7963325  32.5589267  26.5826120  75.7949519  23.3690840
  26.4625745  76.2406570  24.2076321  25.8878708  76.1434837  22.8104379
  20.1733524  77.8955911  30.9190497  20.3025905  78.1490390  31.8329909
  19.4930976  78.4883619  30.5995152  24.3433012  88.5653161  27.0180972
  24.2657041  89.5160986  27.0969452  23.7394655  88.2199033  27.6755898
  26.8350241  75.7381026  39.6742339  26.0583575  76.2974946  39.6645203
  27.4740804  76.2237809  40.1957209  34.6271022  72.5207819  33.5085315
  33.9845402  72.8140352  32.8625110  34.1225951  72.4060739  34.3138512
  32.2811186  76.2670992  24.1971174  33.1929042  76.4998379  24.0218872
  31.7720833  76.8508036  23.6346253  25.0896614  78.5466480  39.2360306
  25.8311298  79.0851523  38.9595129  24.3833599  79.1732768  39.3931857
  30.5651953  80.6895620  37.8332467  30.9735309  80.2478030  37.0887099
  29.8429215  80.1148247  38.0866660  26.9183023  75.6268227  35.2066024
  27.7644219  76.0507640  35.3500673  26.8581661  74.9701851  35.9004587
  30.8880768  81.2496811  31.5884756  30.2589630  81.4142525  30.8860824
  30.5006430  81.6638420  32.3595720  34.7670000  82.1851248  28.9429120
  34.0821038  82.5650150  28.3926153  34.8513849  82.7946575  29.6761067
  30.0682469  73.2872595  36.8647198  29.8243401  74.0414656  36.3281473
  30.3442399  73.6657943  37.6994445  32.0220931  79.8311207  35.5424463
  32.2337827  80.4742967  34.8658844  31.9750680  78.9973524  35.0746393
  29.6247160  72.4429028  32.4461035  28.7631639  72.7410282  32.7377773
  29.6509595  72.6599427  31.5142068  26.4408730  80.9871219  28.8534841
  26.9047075  81.2658922  28.0639463  26.1765528  80.0854663  28.6707932
  23.3332811  80.5342700  31.7914604  23.9034168  80.9629969  31.1532089
  23.9240923  80.2525285  32.4898790  25.3777616  77.1094371  25.6624406
  26.0801659  77.5615415  26.1298332  25.0458244  76.4678190  26.2904299
  23.8257977  75.7006128  40.0375616  23.1956638  76.3822409  40.2711012
  23.7194065  75.5889209  39.0928754  19.1202950  75.3677924  30.9641540
  18.3302004  75.6235452  30.4881650  19.6114197  76.1826262  31.0693580
  33.1366759  82.7083163  33.7146821  33.9584203  82.3063350  33.4329502
  33.1329162  82.6051397  34.6662936  21.0717695  75.7322503  27.9225016
  20.2748859  75.8441197  28.4408512  20.8443287  76.0709155  27.0565907
  26.9023363  82.2567206  35.8707531  26.9667795  82.7187613  36.7065703
  26.1934287  81.6264571  35.9989841  17.4040653  75.6208414  33.3956530
  17.6548691  76.5055424  33.6614106  17.9400201  75.4413016  32.6231622
  41.2272752  79.0521911  30.0631792  40.4736461  78.4829309  29.9075796
  41.3620294  79.0184576  31.0102427  26.6171381  83.9235314  25.7386511
  26.4817055  84.7686849  26.1671359  27.1581193  84.1254591  24.9752445
  23.1038720  70.0026894  42.4000867  22.7105666  69.4493092  43.0748511
  23.9204860  70.3137472  42.7907384  20.0700778  81.4410752  26.3114436
  20.5825298  82.2354002  26.4620001  20.7223491  80.7437042  26.2448038
  21.8795663  84.5576508  28.3937190  22.0562291  85.4794473  28.2058173
  22.6752496  84.2434927  28.8231569  26.0206681  71.4184773  39.9921123
  26.7616395  72.0191926  39.9125586  26.2524604  70.6762410  39.4339166
  21.1648019  76.6041140  38.2699353  21.0501534  75.7026397  38.5706452
  20.3092537  76.8504837  37.9184169  28.2439857  84.5458880  39.8686853
  27.8003711  83.7595259  39.5507758  28.9057070  84.7338031  39.2030744
  23.0026978  86.0754682  34.3947532  23.5534403  85.9471745  33.6224526
  22.1638454  86.3749571  34.0442425  30.3421095  84.8261680  37.8968255
  30.3239570  85.6470561  37.4048524  31.2641015  84.7015755  38.1218396
  26.7994149  82.3405810  38.7391763  27.3322486  81.5794098  38.5091071
  26.2708230  82.0479461  39.4815918  29.9663844  67.4465876  34.2685405
  29.6228113  68.3367517  34.1924515  30.3342807  67.2567533  33.4054990
  18.0349695  79.7699406  27.0874007  18.8724917  80.1796414  26.8707715
  18.2127962  78.8298848  27.0574201  29.9314127  77.4374487  22.7757840
  29.4160750  78.2079091  23.0146227  29.6591435  76.7639623  23.3990901
  27.5161238  72.2824187  27.8343078  26.6602834  71.8931038  27.6548717
  27.9288190  72.3616148  26.9742864  29.0460384  69.8170531  32.2334638
  28.5425180  69.7800666  31.4202443  29.3390991  70.7263273  32.2931295
  25.2903270  69.9009260  31.2400820  26.1556267  69.7052069  30.8806709
  25.3580779  69.6719612  32.1670177  34.9048401  80.1906841  24.7111013
  34.1277844  79.8518001  24.2666175  35.5839882  80.1959464  24.0365978
  29.7200430  75.3101579  24.6017621  29.4150566  75.6247728  25.4527764
  30.6730872  75.3882999  24.6444954  28.1646862  81.4691802  26.2510575
  27.6368223  80.7344562  25.9383813  27.6634365  82.2466478  26.0050543
  33.1439708  79.6640823  31.3677621  32.4863382  80.3540084  31.4557750
  33.9480107  80.0537255  31.7111608  22.8965589  72.1311468  28.6117187
  23.4709341  71.9086650  27.8790380  23.4836572  72.2000163  29.3645788
  31.9545167  78.0185195  29.4181563  32.4677048  78.6515187  29.9203273
  32.6046391  77.4186391  29.0524923  23.2235177  74.1615929  22.6313072
  22.3872489  74.4990616  22.9522347  23.0839946  74.0264909  21.6940209
  25.1988257  69.0052717  27.3392256  24.5452669  68.6901734  26.7148871
  25.1568731  68.3828458  28.0652079  26.3099462  79.2872012  19.2545548
  25.4026524  79.0561266  19.4536697  26.8070494  78.4909632  19.4419530
  29.2167541  87.9969520  22.1742234  28.5429240  88.3001216  22.7827192
  29.6033363  88.7998600  21.8247691  28.4325998  75.4934651  31.6639904
  27.5148559  75.7149598  31.5061592  28.8486141  75.5680961  30.8051611
  29.2161045  76.8926066  26.7942584  29.9632864  77.4047464  26.4849706
  29.4852635  76.5710119  27.6546977  27.4887695  79.3884607  23.7769538
  26.5798915  79.1043640  23.8742008  27.5182779  79.8083686  22.9172845
  32.7206963  82.9991197  27.5460706  32.2669290  82.1582107  27.6025896
  32.0900930  83.6352595  27.8835486  31.6639882  73.9283183  28.7761373
  30.9262639  73.4160569  29.1071616  31.9166656  73.4883564  27.9644650
  31.1639902  84.8367693  28.4810524  31.4562876  85.3972751  27.7622890
  31.6738523  85.1296254  29.2363683  31.7651510  66.7059435  29.3703142
  32.0710387  65.8456798  29.0829058  32.4904115  67.2977055  29.1702136
  18.0575866  77.1090121  27.7584740  17.8600266  76.5159482  27.0335807
  17.5022530  76.8042332  28.4760679  26.0372589  77.0013228  29.8779334
  26.0921199  76.0487064  29.8021810  25.2263792  77.1572667  30.3620632
  27.1863783  80.9293351  21.1157617  26.7483213  80.2129210  20.6563254
  27.9274224  81.1569466  20.5542708  23.9764949  75.6190288  27.6369712
  23.1632815  75.9184458  28.0434905  24.4723944  75.2245976  28.3544195
  26.1273527  85.6148044  29.5703977  26.0849706  85.8408891  28.6412509
  27.0436226  85.3811419  29.7189778  29.5739161  76.0832112  36.4684606
  29.9288549  76.3103585  37.3279072  30.2211292  76.4150489  35.8461862
  35.3036898  79.2050548  27.1733935  35.1654797  79.3952144  26.2455125
  34.9473117  79.9669931  27.6301986  23.4679024  73.1908643  33.2530947
  24.1078403  73.0497402  32.5553911  22.6356555  72.9043156  32.8769549
  35.3306278  81.2727075  32.1845207  35.7642784  81.1802364  33.0328261
  36.0437858  81.2484575  31.5465223  24.2439328  82.4911074  29.3665940
  25.0379927  81.9961394  29.1648515  23.5331020  81.9628937  29.0033645
  29.0634173  84.8729169  33.7178307  29.1171195  85.4420105  34.4856023
  28.1948954  85.0431054  33.3532345  20.5522092  76.6354155  25.4425693
  19.6219680  76.5738611  25.6595655  20.6479564  76.1130108  24.6462334
  20.4707641  73.1608968  28.0303934  20.7314458  74.0754301  27.9213095
  21.2924813  72.6933411  28.1800547  21.9432566  74.5746725  35.2002759
  22.6155619  74.3664087  34.5515408  21.1162352  74.3768811  34.7607991
  36.1921827  81.3150776  34.7178092  36.3857717  82.2196586  34.9637367
  36.0922445  80.8558195  35.5516677  27.8458138  71.2008666  37.2168420
  27.1986053  71.8998616  37.1232896  28.6159153  71.6344810  37.5844668
  31.2536936  81.4657518  40.2918973  31.1022442  81.2368070  39.3749057
  31.2441615  82.4228120  40.3050318  28.0222272  79.0389431  35.2765239
  28.9514332  79.1900591  35.1034207  27.6013302  79.1273452  34.4213886
  26.8210604  83.0640095  33.0463777  26.6821690  82.6958880  33.9189715
  26.0325200  83.5787735  32.8747735  27.4158756  88.1649192  24.3889313
  27.5910512  87.6937235  25.2034936  26.7291544  88.7914958  24.6170574
  28.3715819  82.4421698  30.4352615  28.0365652  82.4022468  31.3310265
  27.8719765  81.7766414  29.9623025  22.3460063  77.8489328  35.9605196
  22.2079861  77.1169567  36.5616735  23.2564987  77.7598228  35.6789384
  31.3075011  79.7877733  20.7089674  30.6904182  79.0624561  20.6122727
  30.8391499  80.5487093  20.3656749  24.9742364  77.5609288  35.4488876
  25.6841982  76.9202480  35.4075494  24.9311672  77.8122182  36.3715056
  32.9629143  84.4976641  38.3695455  32.9041689  83.8135861  37.7026038
  33.3648661  85.2395631  37.9176081  23.6871298  74.5474505  37.2684515
  23.1508655  74.0965244  37.9206111  23.0988006  74.6820414  36.5254979
  21.9819841  91.3138555  31.1629174  22.2216440  91.9457079  31.8408192
  21.1389038  90.9626595  31.4494533  23.0973557  74.0063157  19.8310979
  22.2203023  73.8851958  19.4673225  23.5731310  73.2149235  19.5789867
  32.9646550  82.4616225  36.6009434  32.0773329  82.1242147  36.7235833
  33.5345101  81.7299256  36.8378200  14.6175697  78.7940317  29.9252486
  15.3046737  78.4802047  29.3373501  14.4623826  79.6981681  29.6519737
  19.4210419  73.6830513  34.3537509  19.3368608  73.0756183  33.6187919
  18.5993125  74.1739531  34.3547006  26.4947703  87.1217677  33.5670678
  26.4217875  87.9272649  34.0789982  26.0525096  87.3209643  32.7418699
  26.2837483  86.3589447  27.0773499  25.5005005  86.9011127  27.1711724
  26.9830228  86.8763427  27.4767740  29.5934133  72.1684077  29.7207705
  30.0902832  71.4154039  29.4008775  28.8221114  72.2048393  29.1550914
  37.4463890  77.8724442  31.3625996  37.4353767  78.7549158  30.9919929
  36.5781270  77.5195993  31.1680533  28.9546387  87.0204511  35.7228836
  29.6674359  87.6551976  35.6504738  28.4636415  87.1168377  34.9068838
  30.6763914  80.9255764  27.2946128  29.7420192  81.0457226  27.1250832
  30.8540582  80.0228231  27.0306138  26.1769102  74.3101460  29.4479389
  25.8066889  73.7572500  30.1360295  26.6728194  73.7059593  28.8954389
  34.0636465  76.7673083  27.8296162  34.5296917  77.6001075  27.7556465
  34.5143965  76.3018065  28.5341421  24.0058300  84.7698955  36.5434407
  24.7067760  85.4035438  36.6963801  23.5353415  85.1113686  35.7830046
  32.1312696  83.1116904  24.8282314  32.4072540  82.9973499  25.7376188
  31.2617195  82.7134389  24.7894487  32.0353128  69.1353670  31.8687063
  31.1216208  69.3657897  32.0369270  32.4646229  69.2192114  32.7201096
  31.8059586  77.3243562  34.3686957  31.1531036  77.5719470  33.7139410
  32.1839966  76.5107700  34.0349435  28.7666760  87.3603255  28.4715128
  28.9489155  86.5424911  28.9342880  29.5899746  87.5770948  28.0340018
  29.1008926  86.2871440  25.7330176  29.6296692  85.7763895  25.1200338
  29.3637145  85.9713971  26.5975709  27.8547159  78.0663373  40.8552995
  27.1787796  77.9657502  41.5255370  28.6774793  77.9102587  41.3188992
  19.6026018  84.3035310  33.4765510  20.1879455  83.5578998  33.6093414
  19.4050857  84.6139266  34.3602174  22.4564674  87.3386557  28.4927952
  21.7875049  87.8232685  28.0091992  22.3177543  87.5855778  29.4071331
  14.1943673  76.8740910  32.1969953  14.2327773  76.3404501  32.9907071
  13.6883966  76.3476115  31.5780930  26.5969942  89.3730301  35.0910611
  27.1488250  89.5361922  35.8559696  26.9376136  89.9634738  34.4190635
  21.5734435  71.7205450  35.6932495  21.6375762  72.5820281  35.2809893
  21.5101556  71.1079452  34.9604854  21.0486708  73.7928583  39.3405529
  21.6758747  73.4105660  39.9543054  20.1914627  73.5742785  39.7061222
  31.4480816  84.1991558  40.9459265  31.9920720  84.8121516  40.4514220
  30.8667661  84.7571137  41.4626278  17.8252251  75.6005012  25.2723884
  18.1205692  74.6915690  25.2190938  16.9240286  75.5792752  24.9504887
  29.7338329  87.3212276  32.0774293  29.6089469  86.5202016  31.5685238
  30.3917421  87.8158470  31.5888263  21.3546498  73.6761009  31.2551433
  20.6333083  74.2896976  31.1158906  22.1439753  74.2118773  31.1768079
  31.7973238  85.1221296  33.7053843  30.8503573  85.0026647  33.6332169
  32.1456011  84.2343794  33.7880104  24.1572811  71.0115435  37.5292085
  24.6807213  71.2577732  38.2918394  23.9385144  71.8435470  37.1095222
  19.5540092  73.2819110  25.3963209  19.2252798  72.4016489  25.2138315
  19.9079463  73.2266778  26.2839599  28.8019671  84.9174012  29.9058195
  28.6544634  83.9890720  30.0865765  29.6273165  84.9394103  29.4215270
  22.6681915  73.5692080  25.7638687  23.0077988  74.0978001  25.0417295
  23.1154036  73.9072486  26.5397254  32.4053793  85.7402571  30.9923068
  33.3300340  85.5345433  30.8547519  32.2369096  85.4918972  31.9012409
  25.3625356  71.9529130  35.2141755  25.0222177  71.1536943  35.6162435
  24.6564362  72.2530841  34.6418588  26.0141828  69.0378443  33.6669078
  26.8367897  68.5638921  33.5447969  26.2579892  69.8168926  34.1667765
  24.6550063  72.0666701  23.9631980  25.3758425  72.4447954  23.4595697
  24.0315367  72.7855578  24.0666958  28.7981185  72.7711850  24.8990312
  29.0144800  73.6536488  24.5979140  28.3175253  72.3798064  24.1695954
  23.5380407  75.7297563  31.4761057  23.3924987  76.0437866  32.3685338
  23.0605610  76.3482464  30.9231955  25.3976790  72.7200111  31.5241946
  25.3838358  71.8241205  31.1874244  26.1149218  72.7270775  32.1580232
  27.2502920  73.1537452  33.5695074  26.9920698  74.0754522  33.5679404
  26.7187961  72.7567886  34.2595538  32.1949109  86.2588239  26.3485159
  32.3685987  85.6934661  25.5959012  32.6878000  87.0589134  26.1664649
  18.0126069  78.2702908  34.4148718  17.4679537  79.0462716  34.5468992
  18.8905419  78.6173712  34.2567839  24.8013686  71.6014492  26.7929517
  24.9229597  70.6731138  26.9920404  24.5115728  71.6153178  25.8807832
  27.6704876  69.2869402  29.9296236  27.6926573  69.3508735  28.9748216
  28.0872935  68.4473911  30.1236743  38.0488500  79.0224662  27.9675459
  38.4919646  78.2731987  27.5694582  37.1715011  79.0134798  27.5849191
  33.1824282  85.5755003  23.4482057  33.8775186  86.1961696  23.6669372
  33.5247432  84.7250354  23.7234435  18.7992091  77.3972804  37.3078875
  18.0573827  77.5455439  37.8943505  18.4784835  77.6581070  36.4445624
  35.0815705  83.0254709  24.9769388  35.6067029  83.3641981  24.2518708
  34.9938057  82.0901724  24.7932523  26.7435753  86.9388782  37.1059265
  27.0522880  86.6937929  37.9781964  27.5411235  87.1435421  36.6178135
  26.7656365  89.0926692  29.3364641  26.3261356  88.6003071  30.0297498
  27.5164482  88.5499660  29.0956717  19.2448704  85.2838233  29.3389270
  20.0706724  84.9842005  28.9587913  18.8942756  84.5145855  29.7879058
  24.2130238  84.6364701  31.4086943  23.5910247  83.9735406  31.1089171
  24.8835105  84.6625833  30.7260591  17.4457310  83.2024559  30.2978203
  16.6089218  82.7746734  30.1162204  17.4180955  83.3957003  31.2348994
  24.2854765  73.1146489  41.0019449  24.3342921  73.9908612  40.6197219
  24.8277279  72.5723882  40.4291092  34.7709611  83.6587612  40.2820586
  33.9805155  83.6411751  39.7425086  34.5342965  84.1975906  41.0369623
  34.8907486  80.5080079  37.5953315  34.9405491  80.3430086  38.5368838
  34.7821409  79.6407338  37.2051196  23.7743745  83.1868624  24.8845404
  23.9231865  83.8704089  24.2312076  24.5810188  83.1673714  25.3994859
  32.1811248  76.4911007  38.9112621  33.0821111  76.3517471  38.6196619
  32.2559223  76.6565461  39.8510799  26.5154054  73.8677861  37.7565808
  25.6457363  74.1611427  37.4848396  26.7513534  74.4518306  38.4773071
  36.3925683  82.9277020  37.8395336  36.1010491  83.2907001  38.6758797
  35.7797814  82.2144028  37.6608668  37.5921365  80.4929900  30.3597907
  38.4268256  80.9319704  30.5235467  37.7280494  80.0168553  29.5406152
  34.6412871  78.0509635  36.3075394  35.1166993  78.2437281  35.4994246
  33.7178436  78.1068821  36.0618778  21.5296378  79.2133802  25.8906473
  21.2842419  78.3096132  26.0886683  21.6992292  79.2150952  24.9485951
  29.2193087  70.0857478  35.2731228  29.7375031  70.8218505  34.9477717
  28.8648220  70.3921472  36.1077987  20.7992025  74.9462159  23.3892634
  20.1061270  75.0206514  22.7332670  20.5543777  74.1822503  23.9114151
  29.4705682  66.5057761  30.7932125  29.7507435  65.8380950  31.4192551
  30.2556289  66.6986856  30.2806789  27.2739150  85.6816755  22.3557151
  26.7013117  86.3006942  21.9027623  27.8471944  86.2316116  22.8897073
  33.3414540  74.9275395  34.5403700  34.2931963  75.0273492  34.5615924
  33.1717990  74.1353663  35.0501784  31.3628919  72.0130978  34.7263101
  30.7678852  72.2935991  34.0309589  31.0778616  72.5024879  35.4979842
  30.4936410  85.9653905  23.4865733  31.4267083  85.8999467  23.6898609
  30.4059623  86.8010172  23.0280266  33.1224427  85.2819775  20.4469681
  33.0438058  84.9479639  21.3405439  33.9434093  85.7741543  20.4461153
  35.8202618  78.1481515  33.6546000  35.7878938  77.2097515  33.8405683
  36.4303241  78.2265551  32.9211824  27.6585949  77.0177567  19.6973204
  28.6045053  76.8883776  19.7661622  27.2800194  76.2792229  20.1742632
  35.9697106  74.9392558  33.7004283  35.4536155  74.1551015  33.5134212
  36.8537055  74.6111275  33.8650802  33.6307833  68.6833574  29.6600095
  33.4332654  68.3748662  30.5443427  34.2407539  69.4095212  29.7898025
  41.6379168  79.2097521  32.7952036  42.3682556  78.9482809  33.3559740
  41.0286113  78.4726243  32.8354104  39.7194465  77.3505384  33.3926488
  38.9927628  77.2161349  32.7842979  39.3041752  77.6582213  34.1983206
  27.5424641  81.0695314  41.1573861  28.4627651  81.2473913  41.3513907
  27.5074224  80.1251359  41.0053560  25.8428866  74.9427544  19.6328089
  24.9360321  74.6460657  19.7090802  26.1204847  74.6457362  18.7662375
  16.7606806  76.2633907  30.0827135  16.4409590  75.4099215  29.7901509
  16.2140234  76.4782485  30.8385103  20.5386714  78.9796348  33.7996642
  20.7572723  79.9113456  33.8184676  20.9512487  78.6204323  34.5851446
  27.4590931  69.4864434  25.7872330  26.6491660  69.1411519  26.1627576
  28.1475348  69.1771977  26.3759942  29.3881480  68.5642480  27.4096627
  29.9412518  68.9837934  28.0686650  29.6251566  67.6378228  27.4519583
  25.4114579  74.5529554  43.1899391  25.3111306  75.5023911  43.1211482
  25.1936121  74.2247793  42.3175461  24.6127650  71.8014479  19.7740068
  25.4746814  72.1269377  20.0335885  24.7977995  71.0145975  19.2613134
  16.6295066  79.8836819  32.0520257  15.9358538  79.4690772  31.5390211
  17.3768057  79.9257355  31.4553676  32.7660287  70.6743006  26.9175291
  32.1858956  71.3327810  26.5353343  32.4996220  69.8520350  26.5062708
  31.2163853  70.0748063  29.1196611  31.7163632  70.1864598  28.3110930
  31.8599461  69.7709116  29.7597420  25.2745849  77.9826693  42.0064452
  24.7912931  78.7827053  42.2128341  25.3606788  77.9934638  41.0531896
  18.5431809  79.8155073  29.9286272  18.5202497  79.9142760  28.9768155
  18.8532445  80.6620223  30.2503438  21.2019187  81.8731228  34.0432886
  22.1562440  81.8415170  33.9762818  21.0031710  81.4121851  34.8583112
  21.7918569  80.4432344  36.6103684  22.6111458  80.9376422  36.6338521
  22.0655376  79.5264312  36.5821251  31.5485165  72.8343096  25.9731639
  30.6611020  73.1192747  25.7551834  31.9639154  72.6736859  25.1258916
  34.8999701  72.8589617  29.6885978  35.6760091  73.3486069  29.9610595
  34.1747835  73.2847671  30.1457848  37.3372260  73.5717236  30.7459919
  37.9316750  73.3312972  30.0353227  37.4098843  72.8524367  31.3733455
  19.5569415  87.4150847  31.0603084  19.4223883  86.6551248  30.4941082
  19.1401478  88.1391747  30.5931873  30.6928378  82.5987771  20.0679659
  31.3964228  82.8037773  20.6837315  29.9691027  83.1664532  20.3328743
  31.5226189  78.3497632  26.1881929  31.4661390  78.8066183  25.3489562
  32.0754531  77.5888316  26.0104772  35.3330995  74.1387364  27.0132049
  35.0767929  73.7383999  27.8440257  34.7083863  74.8531158  26.8882188
  39.6443332  76.8783437  29.5203340  39.0842890  76.9476626  30.2934902
  39.0386836  76.7024422  28.8002837  22.7138541  88.3120164  31.2721527
  22.5970925  89.2565597  31.1700217  21.8930987  88.0093726  31.6607326
  32.6015076  83.0370300  22.1178119  33.4360680  82.6051498  21.9355594
  32.4399419  82.8652313  23.0455014  32.2560968  79.5402413  23.4834459
  32.2009772  79.3746685  22.5422903  31.6307023  80.2478446  23.6396648
  17.0453483  74.7770477  37.3095881  17.6912346  74.2669431  37.7983106
  16.8370634  75.5139159  37.8839306  29.5706875  81.8451325  42.8088021
  30.4398035  82.0191977  42.4474656  29.0913627  82.6645742  42.6863751
  25.5657093  69.0410522  23.0619777  25.5535763  69.9852362  23.2188048
  26.4580515  68.8580668  22.7679238  23.7393055  88.9648426  34.4877455
  24.6420302  88.9972036  34.8043950  23.5130425  88.0348877  34.5023791
  25.4946657  87.7179413  31.1487534  24.5442288  87.7181274  31.0351906
  25.7979143  86.9712147  30.6323568  29.3809213  65.6353299  27.3165714
  28.6141609  65.0811785  27.4622396  29.7919918  65.7075168  28.1779865
  21.3850974  71.9238095  41.4070895  22.2482435  71.5674899  41.6174220
  20.8116385  71.5851989  42.0946299  41.2299351  93.5539951  32.2133296
  41.8677761  93.4346698  31.5096636  41.1120194  94.5020795  32.2721248
  38.0389057  93.5067379  32.1494821  37.7007569  93.3908444  31.2615356
  38.9078825  93.1058544  32.1295827  33.8975873  95.3602855  28.1391712
  33.3340738  95.2692792  27.3707999  33.7828268  94.5402760  28.6194204
  38.5208840  94.6602231  38.1081026  38.5097481  94.2655029  37.2361530
  38.6829480  93.9268303  38.7014798  31.4440305  96.8554047  30.9775932
  32.2361597  96.5144872  30.5622231  31.6836955  96.9649022  31.8978085
  39.4775432  99.0273823  23.4506177  38.8263411  99.6127904  23.0640190
  40.2719794  99.5580018  23.5101214  33.4031059  96.1162960  23.8493311
  34.1761935  95.5691947  23.7106187  33.7556458  96.9807210  24.0607772
  35.2416101  97.4439343  37.0560210  34.9505967  98.3484973  36.9406877
  35.8773086  97.4855870  37.7704280  36.1672308  94.8216191  33.6461570
  36.7635880  94.5972213  32.9318533  36.2247280  94.0800937  34.2487018
  35.7397336  92.2755626  21.4811761  35.9922857  91.7537148  20.7195224
  34.8021896  92.1121772  21.5838444  40.7840619  91.2791405  29.2886504
  41.5703709  90.8610828  28.9376921  41.0479324  92.1837497  29.4568152
  40.9550697  96.7164255  23.9875161  40.3196530  96.7898882  24.6996066
  40.6248103  97.3057854  23.3094240  46.1849046  91.2166638  30.1919483
  46.9174218  90.6465855  30.4257312  45.4288402  90.8288238  30.6325988
  35.4593625  94.1783732  23.6836136  35.3429883  93.5028636  24.3517220
  35.5695885  93.6916106  22.8668289  37.8025166  93.6393879  27.3882825
  37.4383373  93.1124500  28.0995747  38.6592282  93.2492349  27.2149310
  43.7074467  84.9288212  34.6514091  43.3757792  85.7983623  34.4275306
  43.1120080  84.6124496  35.3308122  37.4430653  88.6683779  22.3844174
  37.6105055  89.5364016  22.7514645  37.2527822  88.8311061  21.4605463
  40.2005986  97.1300758  34.0510004  39.9006709  98.0325797  33.9425811
  39.8557046  96.8632941  34.9031157  33.6518468  93.5814555  30.0846708
  32.7268964  93.4490769  30.2924400  33.9002881  94.3608774  30.5816651
  43.6003130  89.6483298  31.7307441  42.6920007  89.5798707  31.4366202
  43.5490726  90.1255243  32.5589267  37.4219874  91.1241437  23.3690840
  37.3019499  91.5698487  24.2076321  36.7272462  91.4726754  22.8104379
  31.0127279  93.2247828  30.9190497  31.1419660  93.4782307  31.8329909
  30.3324730  93.8175536  30.5995152  35.1826766 103.8945078  27.0180972
  35.1050796 104.8452903  27.0969452  34.5788410 103.5490951  27.6755898
  37.6743996  91.0672944  39.6742339  36.8977330  91.6266864  39.6645203
  38.3134559  91.5529727  40.1957209  45.4664776  87.8499737  33.5085315
  44.8239157  88.1432270  32.8625110  44.9619705  87.7352657  34.3138512
  43.1204940  91.5962910  24.1971174  44.0322796  91.8290297  24.0218872
  42.6114587  92.1799954  23.6346253  35.9290368  93.8758397  39.2360306
  36.6705053  94.4143441  38.9595129  35.2227354  94.5024686  39.3931857
  41.4045708  96.0187538  37.8332467  41.8129064  95.5769948  37.0887099
  40.6822969  95.4440165  38.0866660  37.7576778  90.9560144  35.2066024
  38.6037973  91.3799558  35.3500673  37.6975416  90.2993769  35.9004587
  41.7274522  96.5788728  31.5884756  41.0983385  96.7434442  30.8860824
  41.3400185  96.9930338  32.3595720  45.6063754  97.5143166  28.9429120
  44.9214793  97.8942067  28.3926153  45.6907604  98.1238493  29.6761067
  40.9076223  88.6164513  36.8647198  40.6637155  89.3706573  36.3281473
  41.1836154  88.9949860  37.6994445  42.8614686  95.1603125  35.5424463
  43.0731581  95.8034885  34.8658844  42.8144434  94.3265442  35.0746393
  40.4640915  87.7720946  32.4461035  39.6025394  88.0702199  32.7377773
  40.4903350  87.9891345  31.5142068  37.2802484  96.3163136  28.8534841
  37.7440830  96.5950839  28.0639463  37.0159282  95.4146581  28.6707932
  34.1726565  95.8634618  31.7914604  34.7427922  96.2921886  31.1532089
  34.7634677  95.5817203  32.4898790  36.2171370  92.4386289  25.6624406
  36.9195414  92.8907332  26.1298332  35.8851999  91.7970108  26.2904299
  34.6651732  91.0298045  40.0375616  34.0350393  91.7114326  40.2711012
  34.5587820  90.9181127  39.0928754  29.9596704  90.6969841  30.9641540
  29.1695758  90.9527370  30.4881650  30.4507952  91.5118179  31.0693580
  43.9760514  98.0375081  33.7146821  44.7977958  97.6355268  33.4329502
  43.9722917  97.9343315  34.6662936  31.9111450  91.0614421  27.9225016
  31.1142613  91.1733115  28.4408512  31.6837042  91.4001073  27.0565907
  37.7417117  97.5859124  35.8707531  37.8061550  98.0479531  36.7065703
  37.0328041  96.9556489  35.9989841  28.2434407  90.9500332  33.3956530
  28.4942446  91.8347342  33.6614106  28.7793956  90.7704933  32.6231622
  52.0666507  94.3813829  30.0631792  51.3130215  93.8121227  29.9075796
  52.2014048  94.3476494  31.0102427  37.4565135  99.2527231  25.7386511
  37.3210810 100.0978767  26.1671359  37.9974948  99.4546509  24.9752445
  33.9432475  85.3318811  42.4000867  33.5499420  84.7785010  43.0748511
  34.7598615  85.6429390  42.7907384  30.9094532  96.7702669  26.3114436
  31.4219053  97.5645920  26.4620001  31.5617245  96.0728960  26.2448038
  32.7189417  99.8868426  28.3937190  32.8956045 100.8086390  28.2058173
  33.5146251  99.5726845  28.8231569  36.8600436  86.7476690  39.9921123
  37.6010149  87.3483843  39.9125586  37.0918358  86.0054328  39.4339166
  32.0041774  91.9333058  38.2699353  31.8895289  91.0318315  38.5706452
  31.1486291  92.1796754  37.9184169  39.0833611  99.8750798  39.8686853
  38.6397466  99.0887176  39.5507758  39.7450825 100.0629948  39.2030744
  33.8420733 101.4046599  34.3947532  34.3928158 101.2763663  33.6224526
  33.0032208 101.7041488  34.0442425  41.1814849 100.1553598  37.8968255
  41.1633325 100.9762479  37.4048524  42.1034770 100.0307673  38.1218396
  37.6387904  97.6697727  38.7391763  38.1716240  96.9086015  38.5091071
  37.1101985  97.3771379  39.4815918  40.8057599  82.7757793  34.2685405
  40.4621868  83.6659435  34.1924515  41.1736561  82.5859451  33.4054990
  28.8743449  95.0991324  27.0874007  29.7118671  95.5088332  26.8707715
  29.0521717  94.1590766  27.0574201  40.7707881  92.7666404  22.7757840
  40.2554505  93.5371009  23.0146227  40.4985190  92.0931541  23.3990901
  38.3554992  87.6116105  27.8343078  37.4996589  87.2222956  27.6548717
  38.7681944  87.6908066  26.9742864  39.8854139  85.1462448  32.2334638
  39.3818935  85.1092584  31.4202443  40.1784746  86.0555191  32.2931295
  36.1297025  85.2301178  31.2400820  36.9950022  85.0343987  30.8806709
  36.1974534  85.0011530  32.1670177  45.7442155  95.5198759  24.7111013
  44.9671598  95.1809918  24.2666175  46.4233636  95.5251382  24.0365978
  40.5594184  90.6393496  24.6017621  40.2544320  90.9539646  25.4527764
  41.5124627  90.7174916  24.6444954  39.0040616  96.7983720  26.2510575
  38.4761978  96.0636479  25.9383813  38.5028119  97.5758396  26.0050543
  43.9833462  94.9932740  31.3677621  43.3257137  95.6832002  31.4557750
  44.7873862  95.3829172  31.7111608  33.7359344  87.4603386  28.6117187
  34.3103096  87.2378568  27.8790380  34.3230326  87.5292081  29.3645788
  42.7938921  93.3477113  29.4181563  43.3070803  93.9807105  29.9203273
  43.4440145  92.7478308  29.0524923  34.0628931  89.4907847  22.6313072
  33.2266243  89.8282534  22.9522347  33.9233701  89.3556827  21.6940209
  36.0382012  84.3344635  27.3392256  35.3846424  84.0193652  26.7148871
  35.9962486  83.7120375  28.0652079  37.1493216  94.6163930  19.2545548
  36.2420278  94.3853183  19.4536697  37.6464248  93.8201549  19.4419530
  40.0561295 103.3261437  22.1742234  39.3822994 103.6293134  22.7827192
  40.4427117 104.1290518  21.8247691  39.2719752  90.8226568  31.6639904
  38.3542313  91.0441515  31.5061592  39.6879896  90.8972879  30.8051611
  40.0554800  92.2217984  26.7942584  40.8026619  92.7339381  26.4849706
  40.3246389  91.9002037  27.6546977  38.3281450  94.7176525  23.7769538
  37.4192669  94.4335558  23.8742008  38.3576534  95.1375603  22.9172845
  43.5600717  98.3283114  27.5460706  43.1063044  97.4874024  27.6025896
  42.9294684  98.9644513  27.8835486  42.5033637  89.2575100  28.7761373
  41.7656394  88.7452487  29.1071616  42.7560410  88.8175482  27.9644650
  42.0033657 100.1659611  28.4810524  42.2956631 100.7264668  27.7622890
  42.5132277 100.4588172  29.2363683  42.6045264  82.0351352  29.3703142
  42.9104141  81.1748716  29.0829058  43.3297869  82.6268973  29.1702136
  28.8969620  92.4382039  27.7584740  28.6994020  91.8451400  27.0335807
  28.3416284  92.1334249  28.4760679  36.8766344  92.3305145  29.8779334
  36.9314954  91.3778982  29.8021810  36.0657546  92.4864585  30.3620632
  38.0257538  96.2585269  21.1157617  37.5876968  95.5421127  20.6563254
  38.7667979  96.4861383  20.5542708  34.8158704  90.9482205  27.6369712
  34.0026569  91.2476376  28.0434905  35.3117698  90.5537894  28.3544195
  36.9667282 100.9439962  29.5703977  36.9243461 101.1700808  28.6412509
  37.8829981 100.7103337  29.7189778  40.4132916  91.4124030  36.4684606
  40.7682303  91.6395503  37.3279072  41.0605047  91.7442406  35.8461862
  46.1430653  94.5342466  27.1733935  46.0048551  94.7244062  26.2455125
  45.7866871  95.2961848  27.6301986  34.3072779  88.5200561  33.2530947
  34.9472158  88.3789320  32.5553911  33.4750309  88.2335074  32.8769549
  46.1700032  96.6018993  32.1845207  46.6036539  96.5094282  33.0328261
  46.8831613  96.5776493  31.5465223  35.0833083  97.8202991  29.3665940
  35.8773681  97.3253311  29.1648515  34.3724775  97.2920854  29.0033645
  39.9027927 100.2021087  33.7178307  39.9564949 100.7712023  34.4856023
  39.0342708 100.3722972  33.3532345  31.3915846  91.9646073  25.4425693
  30.4613434  91.9030528  25.6595655  31.4873318  91.4422026  24.6462334
  31.3101395  88.4900886  28.0303934  31.5708212  89.4046219  27.9213095
  32.1318567  88.0225328  28.1800547  32.7826320  89.9038643  35.2002759
  33.4549374  89.6956005  34.5515408  31.9556107  89.7060729  34.7607991
  47.0315582  96.6442693  34.7178092  47.2251472  97.5488504  34.9637367
  46.9316200  96.1850112  35.5516677  38.6851892  86.5300584  37.2168420
  38.0379807  87.2290533  37.1232896  39.4552908  86.9636728  37.5844668
  42.0930690  96.7949436  40.2918973  41.9416197  96.5659988  39.3749057
  42.0835370  97.7520037  40.3050318  38.8616027  94.3681349  35.2765239
  39.7908087  94.5192508  35.1034207  38.4407057  94.4565370  34.4213886
  37.6604359  98.3932013  33.0463777  37.5215444  98.0250798  33.9189715
  36.8718955  98.9079653  32.8747735  38.2552511 103.4941110  24.3889313
  38.4304266 103.0229153  25.2034936  37.5685299 104.1206876  24.6170574
  39.2109574  97.7713616  30.4352615  38.8759406  97.7314386  31.3310265
  38.7113519  97.1058332  29.9623025  33.1853818  93.1781246  35.9605196
  33.0473616  92.4461485  36.5616735  34.0958741  93.0890146  35.6789384
  42.1468765  95.1169650  20.7089674  41.5297936  94.3916478  20.6122727
  41.6785254  95.8779010  20.3656749  35.8136118  92.8901205  35.4488876
  36.5235737  92.2494397  35.4075494  35.7705426  93.1414100  36.3715056
  43.8022897  99.8268559  38.3695455  43.7435443  99.1427779  37.7026038
  44.2042415 100.5687549  37.9176081  34.5265052  89.8766423  37.2684515
  33.9902409  89.4257162  37.9206111  33.9381761  90.0112332  36.5254979
  32.8213596 106.6430472  31.1629174  33.0610194 107.2748997  31.8408192
  31.9782792 106.2918512  31.4494533  33.9367311  89.3355075  19.8310979
  33.0596778  89.2143875  19.4673225  34.4125064  88.5441153  19.5789867
  43.8040304  97.7908142  36.6009434  42.9167083  97.4534064  36.7235833
  44.3738855  97.0591174  36.8378200  25.4569451  94.1232234  29.9252486
  26.1440491  93.8093964  29.3373501  25.3017580  95.0273599  29.6519737
  30.2604174  89.0122431  34.3537509  30.1762362  88.4048100  33.6187919
  29.4386880  89.5031449  34.3547006  37.3341458 102.4509595  33.5670678
  37.2611629 103.2564566  34.0789982  36.8918851 102.6501561  32.7418699
  37.1231237 101.6881365  27.0773499  36.3398759 102.2303045  27.1711724
  37.8223982 102.2055345  27.4767740  40.4327887  87.4975994  29.7207705
  40.9296587  86.7445957  29.4008775  39.6614869  87.5340311  29.1550914
  48.2857645  93.2016360  31.3625996  48.2747521  94.0841075  30.9919929
  47.4175024  92.8487911  31.1680533  39.7940141 102.3496429  35.7228836
  40.5068113 102.9843894  35.6504738  39.3030170 102.4460295  34.9068838
  41.5157668  96.2547682  27.2946128  40.5813947  96.3749144  27.1250832
  41.6934337  95.3520148  27.0306138  37.0162856  89.6393377  29.4479389
  36.6460644  89.0864418  30.1360295  37.5121949  89.0351511  28.8954389
  44.9030219  92.0965001  27.8296162  45.3690672  92.9292992  27.7556465
  45.3537720  91.6309982  28.5341421  34.8452055 100.0990872  36.5434407
  35.5461514 100.7327355  36.6963801  34.3747170 100.4405604  35.7830046
  42.9706451  98.4408822  24.8282314  43.2466294  98.3265417  25.7376188
  42.1010949  98.0426307  24.7894487  42.8746882  84.4645588  31.8687063
  41.9609962  84.6949815  32.0369270  43.3039984  84.5484032  32.7201096
  42.6453341  92.6535480  34.3686957  41.9924791  92.9011387  33.7139410
  43.0233721  91.8399618  34.0349435  39.6060515 102.6895173  28.4715128
  39.7882909 101.8716829  28.9342880  40.4293501 102.9062865  28.0340018
  39.9402680 101.6163358  25.7330176  40.4690447 101.1055813  25.1200338
  40.2030900 101.3005888  26.5975709  38.6940914  93.3955291  40.8552995
  38.0181551  93.2949420  41.5255370  39.5168548  93.2394505  41.3188992
  30.4419773  99.6327227  33.4765510  31.0273210  98.8870915  33.6093414
  30.2444611  99.9431184  34.3602174  33.2958428 102.6678475  28.4927952
  32.6268803 103.1524602  28.0091992  33.1571298 102.9147695  29.4071331
  25.0337428  92.2032828  32.1969953  25.0721527  91.6696418  32.9907071
  24.5277720  91.6768033  31.5780930  37.4363697 104.7022218  35.0910611
  37.9882005 104.8653840  35.8559696  37.7769890 105.2926656  34.4190635
  32.4128190  87.0497368  35.6932495  32.4769516  87.9112199  35.2809893
  32.3495310  86.4371370  34.9604854  31.8880462  89.1220501  39.3405529
  32.5152501  88.7397578  39.9543054  31.0308381  88.9034703  39.7061222
  42.2874571  99.5283476  40.9459265  42.8314475 100.1413434  40.4514220
  41.7061416 100.0863054  41.4626278  28.6646005  90.9296930  25.2723884
  28.9599446  90.0207608  25.2190938  27.7634041  90.9084669  24.9504887
  40.5732084 102.6504194  32.0774293  40.4483223 101.8493934  31.5685238
  41.2311175 103.1450387  31.5888263  32.1940252  89.0052926  31.2551433
  31.4726838  89.6188894  31.1158906  32.9833508  89.5410691  31.1768079
  42.6366992 100.4513214  33.7053843  41.6897328 100.3318565  33.6332169
  42.9849765  99.5635712  33.7880104  34.9966566  86.3407353  37.5292085
  35.5200967  86.5869649  38.2918394  34.7778899  87.1727388  37.1095222
  30.3933847  88.6111027  25.3963209  30.0646553  87.7308406  25.2138315
  30.7473217  88.5558696  26.2839599  39.6413426 100.2465930  29.9058195
  39.4938388  99.3182638  30.0865765  40.4666919 100.2686021  29.4215270
  33.5075670  88.8983997  25.7638687  33.8471742  89.4269918  25.0417295
  33.9547790  89.2364403  26.5397254  43.2447547 101.0694489  30.9923068
  44.1694095 100.8637350  30.8547519  43.0762851 100.8210890  31.9012409
  36.2019111  87.2821048  35.2141755  35.8615931  86.4828861  35.6162435
  35.4958117  87.5822759  34.6418588  36.8535582  84.3670360  33.6669078
  37.6761652  83.8930839  33.5447969  37.0973646  85.1460844  34.1667765
  35.4943817  87.3958619  23.9631980  36.2152179  87.7739872  23.4595697
  34.8709121  88.1147496  24.0666958  39.6374940  88.1003768  24.8990312
  39.8538554  88.9828406  24.5979140  39.1569007  87.7089981  24.1695954
  34.3774161  91.0589481  31.4761057  34.2318742  91.3729784  32.3685338
  33.8999365  91.6774381  30.9231955  36.2370544  88.0492029  31.5241946
  36.2232113  87.1533122  31.1874244  36.9542972  88.0562693  32.1580232
  38.0896675  88.4829369  33.5695074  37.8314453  89.4046440  33.5679404
  37.5581715  88.0859804  34.2595538  43.0342864 101.5880156  26.3485159
  43.2079741 101.0226579  25.5959012  43.5271755 102.3881051  26.1664649
  28.8519823  93.5994825  34.4148718  28.3073291  94.3754633  34.5468992
  29.7299173  93.9465630  34.2567839  35.6407440  86.9306409  26.7929517
  35.7623351  86.0023055  26.9920404  35.3509482  86.9445095  25.8807832
  38.5098630  84.6161320  29.9296236  38.5320327  84.6800653  28.9748216
  38.9266689  83.7765828  30.1236743  48.8882255  94.3516579  27.9675459
  49.3313401  93.6023904  27.5694582  48.0108765  94.3426716  27.5849191
  44.0218036 100.9046921  23.4482057  44.7168941 101.5253613  23.6669372
  44.3641186 100.0542272  23.7234435  29.6385845  92.7264722  37.3078875
  28.8967581  92.8747357  37.8943505  29.3178590  92.9872987  36.4445624
  45.9209459  98.3546626  24.9769388  46.4460783  98.6933899  24.2518708
  45.8331812  97.4193642  24.7932523  37.5829508 102.2680700  37.1059265
  37.8916634 102.0229847  37.9781964  38.3804990 102.4727338  36.6178135
  37.6050120 104.4218610  29.3364641  37.1655110 103.9294988  30.0297498
  38.3558237 103.8791577  29.0956717  30.0842459 100.6130150  29.3389270
  30.9100479 100.3133922  28.9587913  29.7336511  99.8437773  29.7879058
  35.0523992  99.9656619  31.4086943  34.4304001  99.3027324  31.1089171
  35.7228859  99.9917750  30.7260591  28.2851064  98.5316477  30.2978203
  27.4482972  98.1038651  30.1162204  28.2574709  98.7248920  31.2348994
  35.1248520  88.4438407  41.0019449  35.1736675  89.3200529  40.6197219
  35.6671034  87.9015800  40.4291092  45.6103365  98.9879530  40.2820586
  44.8198909  98.9703669  39.7425086  45.3736720  99.5267824  41.0369623
  45.7301240  95.8371996  37.5953315  45.7799245  95.6722004  38.5368838
  45.6215164  94.9699255  37.2051196  34.6137499  98.5160542  24.8845404
  34.7625619  99.1996006  24.2312076  35.4203942  98.4965632  25.3994859
  43.0205003  91.8202924  38.9112621  43.9214865  91.6809389  38.6196619
  43.0952977  91.9857379  39.8510799  37.3547808  89.1969779  37.7565808
  36.4851117  89.4903345  37.4848396  37.5907288  89.7810224  38.4773071
  47.2319437  98.2568938  37.8395336  46.9404245  98.6198918  38.6758797
  46.6191568  97.5435946  37.6608668  48.4315119  95.8221818  30.3597907
  49.2662011  96.2611622  30.5235467  48.5674248  95.3460471  29.5406152
  45.4806625  93.3801552  36.3075394  45.9560747  93.5729199  35.4994246
  44.5572191  93.4360738  36.0618778  32.3690132  94.5425720  25.8906473
  32.1236174  93.6388050  26.0886683  32.5386047  94.5442870  24.9485951
  40.0586842  85.4149396  35.2731228  40.5768786  86.1510423  34.9477717
  39.7041975  85.7213389  36.1077987  31.6385780  90.2754077  23.3892634
  30.9455024  90.3498432  22.7332670  31.3937531  89.5114421  23.9114151
  40.3099436  81.8349678  30.7932125  40.5901190  81.1672868  31.4192551
  41.0950043  82.0278774  30.2806789  38.1132905 101.0108672  22.3557151
  37.5406872 101.6298860  21.9027623  38.6865698 101.5608034  22.8897073
  44.1808294  90.2567312  34.5403700  45.1325717  90.3565410  34.5615924
  44.0111745  89.4645581  35.0501784  42.2022674  87.3422896  34.7263101
  41.6072606  87.6227908  34.0309589  41.9172371  87.8316797  35.4979842
  41.3330164 101.2945823  23.4865733  42.2660837 101.2291384  23.6898609
  41.2453377 102.1302089  23.0280266  43.9618181 100.6111693  20.4469681
  43.8831813 100.2771556  21.3405439  44.7827848 101.1033461  20.4461153
  46.6596372  93.4773432  33.6546000  46.6272692  92.5389433  33.8405683
  47.2696996  93.5557469  32.9211824  38.4979703  92.3469485  19.6973204
  39.4438808  92.2175693  19.7661622  38.1193948  91.6084147  20.1742632
  46.8090861  90.2684476  33.7004283  46.2929909  89.4842932  33.5134212
  47.6930809  89.9403192  33.8650802  44.4701588  84.0125491  29.6600095
  44.2726409  83.7040579  30.5443427  45.0801293  84.7387130  29.7898025
  52.4772922  94.5389439  32.7952036  53.2076311  94.2774727  33.3559740
  51.8679868  93.8018161  32.8354104  50.5588219  92.6797302  33.3926488
  49.8321383  92.5453267  32.7842979  50.1435506  92.9874130  34.1983206
  38.3818396  96.3987231  41.1573861  39.3021405  96.5765830  41.3513907
  38.3467979  95.4543277  41.0053560  36.6822620  90.2719462  19.6328089
  35.7754076  89.9752574  19.7090802  36.9598601  89.9749280  18.7662375
  27.6000561  91.5925825  30.0827135  27.2803345  90.7391133  29.7901509
  27.0533989  91.8074403  30.8385103  31.3780468  94.3088266  33.7996642
  31.5966478  95.2405374  33.8184676  31.7906242  93.9496240  34.5851446
  38.2984686  84.8156351  25.7872330  37.4885414  84.4703436  26.1627576
  38.9869103  84.5063895  26.3759942  40.2275234  83.8934398  27.4096627
  40.7806273  84.3129851  28.0686650  40.4645321  82.9670146  27.4519583
  36.2508333  89.8821472  43.1899391  36.1505060  90.8315829  43.1211482
  36.0329876  89.5539711  42.3175461  35.4521405  87.1306397  19.7740068
  36.3140569  87.4561295  20.0335885  35.6371749  86.3437893  19.2613134
  27.4688821  95.2128736  32.0520257  26.7752292  94.7982689  31.5390211
  28.2161812  95.2549273  31.4553676  43.6054041  86.0034923  26.9175291
  43.0252710  86.6619727  26.5353343  43.3389974  85.1812268  26.5062708
  42.0557608  85.4039981  29.1196611  42.5557386  85.5156515  28.3110930
  42.6993216  85.1001034  29.7597420  36.1139604  93.3118611  42.0064452
  35.6306685  94.1118971  42.2128341  36.2000543  93.3226555  41.0531896
  29.3825563  95.1446990  29.9286272  29.3596251  95.2434677  28.9768155
  29.6926200  95.9912141  30.2503438  32.0412941  97.2023145  34.0432886
  32.9956195  97.1707088  33.9762818  31.8425465  96.7413769  34.8583112
  32.6312323  95.7724261  36.6103684  33.4505212  96.2668340  36.6338521
  32.9049131  94.8556229  36.5821251  42.3878919  88.1635014  25.9731639
  41.5004774  88.4484664  25.7551834  42.8032908  88.0028777  25.1258916
  45.7393455  88.1881535  29.6885978  46.5153846  88.6777987  29.9610595
  45.0141590  88.6139589  30.1457848  48.1766014  88.9009154  30.7459919
  48.7710505  88.6604890  30.0353227  48.2492598  88.1816284  31.3733455
  30.3963170 102.7442765  31.0603084  30.2617638 101.9843166  30.4941082
  29.9795232 103.4683665  30.5931873  41.5322133  97.9279688  20.0679659
  42.2357983  98.1329691  20.6837315  40.8084782  98.4956450  20.3328743
  42.3619943  93.6789550  26.1881929  42.3055144  94.1358101  25.3489562
  42.9148286  92.9180234  26.0104772  46.1724749  89.4679281  27.0132049
  45.9161683  89.0675917  27.8440257  45.5477617  90.1823075  26.8882188
  50.4837087  92.2075355  29.5203340  49.9236645  92.2768544  30.2934902
  49.8780590  92.0316339  28.8002837  33.5532296 103.6412082  31.2721527
  33.4364680 104.5857514  31.1700217  32.7324742 103.3385643  31.6607326
  43.4408830  98.3662217  22.1178119  44.2754434  97.9343416  21.9355594
  43.2793173  98.1944231  23.0455014  43.0954722  94.8694331  23.4834459
  43.0403526  94.7038602  22.5422903  42.4700778  95.5770364  23.6396648
  27.8847237  90.1062395  37.3095881  28.5306101  89.5961349  37.7983106
  27.6764388  90.8431077  37.8839306  40.4100630  97.1743243  42.8088021
  41.2791789  97.3483895  42.4474656  39.9307381  97.9937659  42.6863751
  36.4050848  84.3702440  23.0619777  36.3929518  85.3144280  23.2188048
  37.2974270  84.1872585  22.7679238  34.5786810 104.2940344  34.4877455
  35.4814056 104.3263954  34.8043950  34.3524180 103.3640795  34.5023791
  36.3340412 103.0471330  31.1487534  35.3836043 103.0473192  31.0351906
  36.6372898 102.3004065  30.6323568  40.2202967  80.9645216  27.3165714
  39.4535363  80.4103703  27.4622396  40.6313672  81.0367085  28.1779865
  32.2244728  87.2530012  41.4070895  33.0876190  86.8966817  41.6174220
  31.6510139  86.9143907  42.0946299  52.0693105 108.8831869  32.2133296
  52.7071515 108.7638616  31.5096636  51.9513948 109.8312713  32.2721248
  48.8782812 108.8359297  32.1494821  48.5401323 108.7200361  31.2615356
  49.7472580 108.4350462  32.1295827  44.7369627 110.6894773  28.1391712
  44.1734492 110.5984710  27.3707999  44.6222022 109.8694678  28.6194204
  49.3602595 109.9894148  38.1081026  49.3491235 109.5946947  37.2361530
  49.5223234 109.2560221  38.7014798  42.2834059 112.1845965  30.9775932
  43.0755351 111.8436789  30.5622231  42.5230709 112.2940940  31.8978085
  50.3169186 114.3565741  23.4506177  49.6657166 114.9419821  23.0640190
  51.1113549 114.8871936  23.5101214  44.2424813 111.4454878  23.8493311
  45.0155689 110.8983865  23.7106187  44.5950212 112.3099127  24.0607772
  46.0809856 112.7731260  37.0560210  45.7899722 113.6776891  36.9406877
  46.7166840 112.8147788  37.7704280  47.0066063 110.1508109  33.6461570
  47.6029635 109.9264131  32.9318533  47.0641034 109.4092854  34.2487018
  46.5791091 107.6047544  21.4811761  46.8316612 107.0829065  20.7195224
  45.6415650 107.4413690  21.5838444  51.6234374 106.6083322  29.2886504
  52.4097463 106.1902746  28.9376921  51.8873078 107.5129415  29.4568152
  51.7944451 112.0456173  23.9875161  51.1590284 112.1190799  24.6996066
  51.4641858 112.6349772  23.3094240  57.0242801 106.5458556  30.1919483
  57.7567973 105.9757772  30.4257312  56.2682157 106.1580156  30.6325988
  46.2987380 109.5075650  23.6836136  46.1823638 108.8320553  24.3517220
  46.4089640 109.0208024  22.8668289  48.6418921 108.9685797  27.3882825
  48.2777128 108.4416418  28.0995747  49.4986037 108.5784266  27.2149310
  54.5468221 100.2580130  34.6514091  54.2151546 101.1275541  34.4275306
  53.9513835  99.9416414  35.3308122  48.2824408 103.9975697  22.3844174
  48.4498810 104.8655933  22.7514645  48.0921577 104.1602979  21.4605463
  51.0399741 112.4592676  34.0510004  50.7400464 113.3617715  33.9425811
  50.6950800 112.1924859  34.9031157  44.4912222 108.9106473  30.0846708
  43.5662719 108.7782687  30.2924400  44.7396635 109.6900692  30.5816651
  54.4396885 104.9775216  31.7307441  53.5313762 104.9090624  31.4366202
  54.3884480 105.4547161  32.5589267  48.2613628 106.4533354  23.3690840
  48.1413254 106.8990405  24.2076321  47.5666217 106.8018672  22.8104379
  41.8521033 108.5539746  30.9190497  41.9813414 108.8074225  31.8329909
  41.1718485 109.1467454  30.5995152  46.0220521 119.2236996  27.0180972
  45.9444550 120.1744821  27.0969452  45.4182164 118.8782869  27.6755898
  48.5137750 106.3964862  39.6742339  47.7371084 106.9558782  39.6645203
  49.1528313 106.8821644  40.1957209  56.3058531 103.1791654  33.5085315
  55.6632911 103.4724187  32.8625110  55.8013460 103.0644575  34.3138512
  53.9598695 106.9254828  24.1971174  54.8716551 107.1582214  24.0218872
  53.4508342 107.5091872  23.6346253  46.7684123 109.2050315  39.2360306
  47.5098807 109.7435359  38.9595129  46.0621108 109.8316604  39.3931857
  52.2439462 111.3479455  37.8332467  52.6522818 110.9061866  37.0887099
  51.5216724 110.7732083  38.0866660  48.5970532 106.2852062  35.2066024
  49.4431728 106.7091476  35.3500673  48.5369170 105.6285686  35.9004587
  52.5668277 111.9080646  31.5884756  51.9377139 112.0726360  30.8860824
  52.1793939 112.3222256  32.3595720  56.4457509 112.8435084  28.9429120
  55.7608547 113.2233985  28.3926153  56.5301358 113.4530410  29.6761067
  51.7469978 103.9456430  36.8647198  51.5030910 104.6998491  36.3281473
  52.0229908 104.3241778  37.6994445  53.7008440 110.4895043  35.5424463
  53.9125336 111.1326803  34.8658844  53.6538189 109.6557359  35.0746393
  51.3034669 103.1012863  32.4461035  50.4419148 103.3994117  32.7377773
  51.3297104 103.3183262  31.5142068  48.1196239 111.6455054  28.8534841
  48.5834584 111.9242757  28.0639463  47.8553037 110.7438499  28.6707932
  45.0120320 111.1926536  31.7914604  45.5821677 111.6213804  31.1532089
  45.6028432 110.9109120  32.4898790  47.0565125 107.7678206  25.6624406
  47.7589168 108.2199250  26.1298332  46.7245753 107.1262025  26.2904299
  45.5045486 106.3589963  40.0375616  44.8744147 107.0406244  40.2711012
  45.3981574 106.2473045  39.0928754  40.7990459 106.0261759  30.9641540
  40.0089513 106.2819288  30.4881650  41.2901706 106.8410097  31.0693580
  54.8154268 113.3666998  33.7146821  55.6371712 112.9647186  33.4329502
  54.8116671 113.2635232  34.6662936  42.7505204 106.3906338  27.9225016
  41.9536368 106.5025033  28.4408512  42.5230796 106.7292991  27.0565907
  48.5810872 112.9151042  35.8707531  48.6455304 113.3771449  36.7065703
  47.8721796 112.2848406  35.9989841  39.0828162 106.2792250  33.3956530
  39.3336200 107.1639259  33.6614106  39.6187710 106.0996851  32.6231622
  62.9060261 109.7105747  30.0631792  62.1523970 109.1413145  29.9075796
  63.0407803 109.6768411  31.0102427  48.2958889 114.5819149  25.7386511
  48.1604564 115.4270685  26.1671359  48.8368702 114.7838427  24.9752445
  44.7826229 100.6610729  42.4000867  44.3893175 100.1076927  43.0748511
  45.5992369 100.9721307  42.7907384  41.7488287 112.0994587  26.3114436
  42.2612807 112.8937837  26.4620001  42.4011000 111.4020878  26.2448038
  43.5583172 115.2160343  28.3937190  43.7349800 116.1378308  28.2058173
  44.3540005 114.9018763  28.8231569  47.6994190 102.0768608  39.9921123
  48.4403904 102.6775761  39.9125586  47.9312113 101.3346246  39.4339166
  42.8435528 107.2624975  38.2699353  42.7289043 106.3610232  38.5706452
  41.9880046 107.5088672  37.9184169  49.9227366 115.2042716  39.8686853
  49.4791220 114.4179094  39.5507758  50.5844579 115.3921866  39.2030744
  44.6814487 116.7338517  34.3947532  45.2321912 116.6055580  33.6224526
  43.8425963 117.0333406  34.0442425  52.0208604 115.4845515  37.8968255
  52.0027079 116.3054397  37.4048524  52.9428524 115.3599591  38.1218396
  48.4781658 112.9989645  38.7391763  49.0109995 112.2377933  38.5091071
  47.9495739 112.7063297  39.4815918  51.6451353  98.1049711  34.2685405
  51.3015622  98.9951353  34.1924515  52.0130316  97.9151369  33.4054990
  39.7137204 110.4283241  27.0874007  40.5512426 110.8380250  26.8707715
  39.8915471 109.4882684  27.0574201  51.6101636 108.0958322  22.7757840
  51.0948259 108.8662927  23.0146227  51.3378944 107.4223458  23.3990901
  49.1948747 102.9408023  27.8343078  48.3390343 102.5514873  27.6548717
  49.6075699 103.0199984  26.9742864  50.7247893 100.4754366  32.2334638
  50.2212689 100.4384501  31.4202443  51.0178500 101.3847109  32.2931295
  46.9690779 100.5593096  31.2400820  47.8343776 100.3635904  30.8806709
  47.0368288 100.3303448  32.1670177  56.5835910 110.8490677  24.7111013
  55.8065353 110.5101836  24.2666175  57.2627391 110.8543300  24.0365978
  51.3987939 105.9685414  24.6017621  51.0938075 106.2831563  25.4527764
  52.3518381 106.0466834  24.6444954  49.8434371 112.1275637  26.2510575
  49.3155732 111.3928397  25.9383813  49.3421874 112.9050314  26.0050543
  54.8227217 110.3224658  31.3677621  54.1650891 111.0123919  31.4557750
  55.6267616 110.7121090  31.7111608  44.5753098 102.7895304  28.6117187
  45.1496850 102.5670485  27.8790380  45.1624081 102.8583998  29.3645788
  53.6332676 108.6769031  29.4181563  54.1464557 109.3099022  29.9203273
  54.2833900 108.0770226  29.0524923  44.9022686 104.8199765  22.6313072
  44.0659998 105.1574451  22.9522347  44.7627455 104.6848745  21.6940209
  46.8775766  99.6636553  27.3392256  46.2240178  99.3485570  26.7148871
  46.8356240  99.0412293  28.0652079  47.9886971 109.9455848  19.2545548
  47.0814033 109.7145101  19.4536697  48.4858003 109.1493467  19.4419530
  50.8955050 118.6553355  22.1742234  50.2216749 118.9585052  22.7827192
  51.2820872 119.4582435  21.8247691  50.1113506 106.1518486  31.6639904
  49.1936068 106.3733433  31.5061592  50.5273650 106.2264797  30.8051611
  50.8948554 107.5509902  26.7942584  51.6420373 108.0631299  26.4849706
  51.1640144 107.2293955  27.6546977  49.1675204 110.0468443  23.7769538
  48.2586424 109.7627475  23.8742008  49.1970288 110.4667521  22.9172845
  54.3994472 113.6575032  27.5460706  53.9456799 112.8165942  27.6025896
  53.7688439 114.2936430  27.8835486  53.3427391 104.5867018  28.7761373
  52.6050148 104.0744404  29.1071616  53.5954165 104.1467400  27.9644650
  52.8427411 115.4951529  28.4810524  53.1350385 116.0556586  27.7622890
  53.3526032 115.7880090  29.2363683  53.4439019  97.3643270  29.3703142
  53.7497896  96.5040634  29.0829058  54.1691624  97.9560890  29.1702136
  39.7363375 107.7673957  27.7584740  39.5387775 107.1743317  27.0335807
  39.1810039 107.4626167  28.4760679  47.7160098 107.6597063  29.8779334
  47.7708708 106.7070900  29.8021810  46.9051300 107.8156502  30.3620632
  48.8651292 111.5877186  21.1157617  48.4270722 110.8713045  20.6563254
  49.6061733 111.8153301  20.5542708  45.6552458 106.2774123  27.6369712
  44.8420324 106.5768293  28.0434905  46.1511453 105.8829812  28.3544195
  47.8061036 116.2731880  29.5703977  47.7637215 116.4992726  28.6412509
  48.7223735 116.0395254  29.7189778  51.2526670 106.7415947  36.4684606
  51.6076058 106.9687421  37.3279072  51.8998801 107.0734324  35.8461862
  56.9824407 109.8634383  27.1733935  56.8442306 110.0535979  26.2455125
  56.6260626 110.6253766  27.6301986  45.1466533 103.8492478  33.2530947
  45.7865912 103.7081238  32.5553911  44.3144064 103.5626992  32.8769549
  57.0093787 111.9310910  32.1845207  57.4430293 111.8386199  33.0328261
  57.7225367 111.9068411  31.5465223  45.9226837 113.1494909  29.3665940
  46.7167436 112.6545229  29.1648515  45.2118529 112.6212772  29.0033645
  50.7421682 115.5313004  33.7178307  50.7958704 116.1003941  34.4856023
  49.8736463 115.7014889  33.3532345  42.2309601 107.2937991  25.4425693
  41.3007189 107.2322446  25.6595655  42.3267073 106.7713943  24.6462334
  42.1495150 103.8192803  28.0303934  42.4101967 104.7338137  27.9213095
  42.9712322 103.3517246  28.1800547  43.6220075 105.2330561  35.2002759
  44.2943128 105.0247923  34.5515408  42.7949861 105.0352647  34.7607991
  57.8709336 111.9734611  34.7178092  58.0645226 112.8780421  34.9637367
  57.7709954 111.5142030  35.5516677  49.5245647 101.8592502  37.2168420
  48.8773562 102.5582451  37.1232896  50.2946662 102.2928645  37.5844668
  52.9324445 112.1241354  40.2918973  52.7809951 111.8951905  39.3749057
  52.9229124 113.0811955  40.3050318  49.7009781 109.6973266  35.2765239
  50.6301841 109.8484426  35.1034207  49.2800811 109.7857287  34.4213886
  48.4998113 113.7223931  33.0463777  48.3609199 113.3542715  33.9189715
  47.7112709 114.2371570  32.8747735  49.0946265 118.8233027  24.3889313
  49.2698021 118.3521071  25.2034936  48.4079053 119.4498794  24.6170574
  50.0503328 113.1005534  30.4352615  49.7153161 113.0606304  31.3310265
  49.5507274 112.4350249  29.9623025  44.0247572 108.5073164  35.9605196
  43.8867370 107.7753402  36.5616735  44.9352496 108.4182064  35.6789384
  52.9862520 110.4461568  20.7089674  52.3691690 109.7208396  20.6122727
  52.5179008 111.2070928  20.3656749  46.6529873 108.2193123  35.4488876
  47.3629491 107.5786315  35.4075494  46.6099181 108.4706018  36.3715056
  54.6416652 115.1560476  38.3695455  54.5829198 114.4719696  37.7026038
  55.0436170 115.8979466  37.9176081  45.3658807 105.2058341  37.2684515
  44.8296164 104.7549079  37.9206111  44.7775515 105.3404250  36.5254979
  43.6607350 121.9722390  31.1629174  43.9003949 122.6040914  31.8408192
  42.8176547 121.6210430  31.4494533  44.7761066 104.6646992  19.8310979
  43.8990532 104.5435793  19.4673225  45.2518819 103.8733070  19.5789867
  54.6434059 113.1200060  36.6009434  53.7560838 112.7825982  36.7235833
  55.2132610 112.3883091  36.8378200  36.2963206 109.4524152  29.9252486
  36.9834246 109.1385882  29.3373501  36.1411335 110.3565517  29.6519737
  41.0997928 104.3414348  34.3537509  41.0156117 103.7340018  33.6187919
  40.2780634 104.8323367  34.3547006  48.1735212 117.7801513  33.5670678
  48.1005384 118.5856484  34.0789982  47.7312605 117.9793478  32.7418699
  47.9624992 117.0173283  27.0773499  47.1792514 117.5594963  27.1711724
  48.6617737 117.5347262  27.4767740  51.2721642 102.8267912  29.7207705
  51.7690341 102.0737874  29.4008775  50.5008623 102.8632229  29.1550914
  59.1251399 108.5308278  31.3625996  59.1141276 109.4132993  30.9919929
  58.2568779 108.1779828  31.1680533  50.6333896 117.6788347  35.7228836
  51.3461868 118.3135811  35.6504738  50.1423924 117.7752213  34.9068838
  52.3551423 111.5839599  27.2946128  51.4207701 111.7041062  27.1250832
  52.5328091 110.6812066  27.0306138  47.8556611 104.9685295  29.4479389
  47.4854398 104.4156335  30.1360295  48.3515703 104.3643428  28.8954389
  55.7423974 107.4256919  27.8296162  56.2084426 108.2584910  27.7556465
  56.1931474 106.9601900  28.5341421  45.6845809 115.4282790  36.5434407
  46.3855269 116.0619273  36.6963801  45.2140924 115.7697522  35.7830046
  53.8100205 113.7700740  24.8282314  54.0860049 113.6557334  25.7376188
  52.9404704 113.3718225  24.7894487  53.7140637  99.7937505  31.8687063
  52.8003716 100.0241732  32.0369270  54.1433738  99.8775950  32.7201096
  53.4847095 107.9827397  34.3686957  52.8318545 108.2303305  33.7139410
  53.8627475 107.1691536  34.0349435  50.4454269 118.0187091  28.4715128
  50.6276664 117.2008747  28.9342880  51.2687255 118.2354783  28.0340018
  50.7796435 116.9455276  25.7330176  51.3084201 116.4347730  25.1200338
  51.0424654 116.6297806  26.5975709  49.5334668 108.7247209  40.8552995
  48.8575305 108.6241338  41.5255370  50.3562302 108.5686422  41.3188992
  41.2813527 114.9619145  33.4765510  41.8666964 114.2162833  33.6093414
  41.0838366 115.2723102  34.3602174  44.1352183 117.9970392  28.4927952
  43.4662558 118.4816520  28.0091992  43.9965052 118.2439613  29.4071331
  35.8731182 107.5324745  32.1969953  35.9115282 106.9988336  32.9907071
  35.3671475 107.0059951  31.5780930  48.2757451 120.0314136  35.0910611
  48.8275759 120.1945757  35.8559696  48.6163645 120.6218574  34.4190635
  43.2521944 102.3789286  35.6932495  43.3163271 103.2404117  35.2809893
  43.1889065 101.7663287  34.9604854  42.7274217 104.4512418  39.3405529
  43.3546256 104.0689496  39.9543054  41.8702136 104.2326620  39.7061222
  53.1268325 114.8575393  40.9459265  53.6708229 115.4705352  40.4514220
  52.5455170 115.4154972  41.4626278  39.5039760 106.2588847  25.2723884
  39.7993201 105.3499526  25.2190938  38.6027795 106.2376587  24.9504887
  51.4125838 117.9796111  32.0774293  51.2876978 117.1785851  31.5685238
  52.0704929 118.4742305  31.5888263  43.0334007 104.3344844  31.2551433
  42.3120592 104.9480812  31.1158906  43.8227262 104.8702609  31.1768079
  53.4760747 115.7805132  33.7053843  52.5291082 115.6610483  33.6332169
  53.8243520 114.8927630  33.7880104  45.8360320 101.6699271  37.5292085
  46.3594722 101.9161567  38.2918394  45.6172653 102.5019305  37.1095222
  41.2327601 103.9402945  25.3963209  40.9040307 103.0600324  25.2138315
  41.5866972 103.8850614  26.2839599  50.4807180 115.5757848  29.9058195
  50.3332142 114.6474555  30.0865765  51.3060674 115.5977939  29.4215270
  44.3469424 104.2275915  25.7638687  44.6865497 104.7561836  25.0417295
  44.7941545 104.5656321  26.5397254  54.0841302 116.3986407  30.9923068
  55.0087849 116.1929268  30.8547519  53.9156605 116.1502808  31.9012409
  47.0412865 102.6112966  35.2141755  46.7009686 101.8120779  35.6162435
  46.3351871 102.9114676  34.6418588  47.6929337  99.6962278  33.6669078
  48.5155406  99.2222756  33.5447969  47.9367401 100.4752762  34.1667765
  46.3337571 102.7250536  23.9631980  47.0545934 103.1031789  23.4595697
  45.7102876 103.4439413  24.0666958  50.4768694 103.4295685  24.8990312
  50.6932309 104.3120323  24.5979140  49.9962762 103.0381899  24.1695954
  45.2167916 106.3881399  31.4761057  45.0712496 106.7021702  32.3685338
  44.7393119 107.0066299  30.9231955  47.0764299 103.3783947  31.5241946
  47.0625867 102.4825040  31.1874244  47.7936727 103.3854610  32.1580232
  48.9290429 103.8121287  33.5695074  48.6708207 104.7338358  33.5679404
  48.3975470 103.4151721  34.2595538  53.8736618 116.9172074  26.3485159
  54.0473496 116.3518496  25.5959012  54.3665509 117.7172969  26.1664649
  39.6913578 108.9286743  34.4148718  39.1467046 109.7046551  34.5468992
  40.5692928 109.2757548  34.2567839  46.4801195 102.2598327  26.7929517
  46.6017106 101.3314973  26.9920404  46.1903237 102.2737013  25.8807832
  49.3492385  99.9453237  29.9296236  49.3714082 100.0092570  28.9748216
  49.7660444  99.1057746  30.1236743  59.7276009 109.6808497  27.9675459
  60.1707155 108.9315822  27.5694582  58.8502520 109.6718633  27.5849191
  54.8611791 116.2338838  23.4482057  55.5562695 116.8545531  23.6669372
  55.2034941 115.3834190  23.7234435  40.4779600 108.0556639  37.3078875
  39.7361336 108.2039275  37.8943505  40.1572344 108.3164905  36.4445624
  56.7603214 113.6838544  24.9769388  57.2854538 114.0225817  24.2518708
  56.6725566 112.7485559  24.7932523  48.4223262 117.5972618  37.1059265
  48.7310389 117.3521764  37.9781964  49.2198744 117.8019256  36.6178135
  48.4443874 119.7510527  29.3364641  48.0048865 119.2586906  30.0297498
  49.1951991 119.2083495  29.0956717  40.9236213 115.9422068  29.3389270
  41.7494233 115.6425840  28.9587913  40.5730265 115.1729690  29.7879058
  45.8917747 115.2948536  31.4086943  45.2697756 114.6319241  31.1089171
  46.5622614 115.3209668  30.7260591  39.1244818 113.8608395  30.2978203
  38.2876727 113.4330569  30.1162204  39.0968464 114.0540838  31.2348994
  45.9642274 103.7730324  41.0019449  46.0130430 104.6492447  40.6197219
  46.5064788 103.2307717  40.4291092  56.4497120 114.3171448  40.2820586
  55.6592663 114.2995586  39.7425086  56.2130474 114.8559741  41.0369623
  56.5694995 111.1663914  37.5953315  56.6193000 111.0013921  38.5368838
  56.4608918 110.2991173  37.2051196  45.4531254 113.8452460  24.8845404
  45.6019374 114.5287924  24.2312076  46.2597697 113.8257550  25.3994859
  53.8598757 107.1494842  38.9112621  54.7608620 107.0101307  38.6196619
  53.9346732 107.3149297  39.8510799  48.1941563 104.5261697  37.7565808
  47.3244872 104.8195263  37.4848396  48.4301043 105.1102142  38.4773071
  58.0713192 113.5860855  37.8395336  57.7798000 113.9490836  38.6758797
  57.4585323 112.8727864  37.6608668  59.2708874 111.1513735  30.3597907
  60.1055765 111.5903539  30.5235467  59.4068003 110.6752388  29.5406152
  56.3200380 108.7093470  36.3075394  56.7954501 108.9021116  35.4994246
  55.3965945 108.7652656  36.0618778  43.2083887 109.8717637  25.8906473
  42.9629928 108.9679967  26.0886683  43.3779801 109.8734788  24.9485951
  50.8980596 100.7441314  35.2731228  51.4162540 101.4802341  34.9477717
  50.5435729 101.0505307  36.1077987  42.4779534 105.6045995  23.3892634
  41.7848779 105.6790350  22.7332670  42.2331286 104.8406338  23.9114151
  51.1493191  97.1641596  30.7932125  51.4294944  96.4964785  31.4192551
  51.9343797  97.3570692  30.2806789  48.9526659 116.3400590  22.3557151
  48.3800626 116.9590777  21.9027623  49.5259453 116.8899952  22.8897073
  55.0202049 105.5859230  34.5403700  55.9719472 105.6857328  34.5615924
  54.8505499 104.7937499  35.0501784  53.0416428 102.6714813  34.7263101
  52.4466360 102.9519826  34.0309589  52.7566125 103.1608714  35.4979842
  52.1723919 116.6237740  23.4865733  53.1054592 116.5583302  23.6898609
  52.0847132 117.4594007  23.0280266  54.8011936 115.9403611  20.4469681
  54.7225567 115.6063474  21.3405439  55.6221602 116.4325378  20.4461153
  57.4990127 108.8065350  33.6546000  57.4666447 107.8681351  33.8405683
  58.1090750 108.8849387  32.9211824  49.3373458 107.6761403  19.6973204
  50.2832562 107.5467611  19.7661622  48.9587702 106.9376065  20.1742632
  57.6484615 105.5976393  33.7004283  57.1323664 104.8134850  33.5134212
  58.5324564 105.2695110  33.8650802  55.3095342  99.3417409  29.6600095
  55.1120163  99.0332497  30.5443427  55.9195048 100.0679048  29.7898025
  63.3166677 109.8681357  32.7952036  64.0470065 109.6066645  33.3559740
  62.7073622 109.1310079  32.8354104  61.3981974 108.0089219  33.3926488
  60.6715137 107.8745184  32.7842979  60.9829261 108.3166048  34.1983206
  49.2212150 111.7279149  41.1573861  50.1415160 111.9057748  41.3513907
  49.1861733 110.7835194  41.0053560  47.5216375 105.6011379  19.6328089
  46.6147830 105.3044492  19.7090802  47.7992356 105.3041197  18.7662375
  38.4394315 106.9217743  30.0827135  38.1197099 106.0683051  29.7901509
  37.8927743 107.1366321  30.8385103  42.2174223 109.6380184  33.7996642
  42.4360232 110.5697291  33.8184676  42.6299996 109.2788158  34.5851446
  49.1378440 100.1448269  25.7872330  48.3279169  99.7995354  26.1627576
  49.8262857  99.8355813  26.3759942  51.0668989  99.2226316  27.4096627
  51.6200027  99.6421769  28.0686650  51.3039075  98.2962064  27.4519583
  47.0902088 105.2113389  43.1899391  46.9898815 106.1607746  43.1211482
  46.8723630 104.8831628  42.3175461  46.2915159 102.4598314  19.7740068
  47.1534323 102.7853213  20.0335885  46.4765503 101.6729810  19.2613134
  38.3082575 110.5420654  32.0520257  37.6146047 110.1274607  31.5390211
  39.0555566 110.5841191  31.4553676  54.4447796 101.3326841  26.9175291
  53.8646465 101.9911645  26.5353343  54.1783728 100.5104185  26.5062708
  52.8951362 100.7331899  29.1196611  53.3951141 100.8448433  28.3110930
  53.5386970 100.4292951  29.7597420  46.9533358 108.6410528  42.0064452
  46.4700440 109.4410888  42.2128341  47.0394297 108.6518473  41.0531896
  40.2219318 110.4738908  29.9286272  40.1990006 110.5726595  28.9768155
  40.5319954 111.3204059  30.2503438  42.8806695 112.5315063  34.0432886
  43.8349949 112.4999005  33.9762818  42.6819219 112.0705687  34.8583112
  43.4706078 111.1016179  36.6103684  44.2898967 111.5960258  36.6338521
  43.7442885 110.1848147  36.5821251  53.2272674 103.4926931  25.9731639
  52.3398529 103.7776582  25.7551834  53.6426663 103.3320695  25.1258916
  56.5787210 103.5173452  29.6885978  57.3547600 104.0069905  29.9610595
  55.8535344 103.9431506  30.1457848  59.0159769 104.2301071  30.7459919
  59.6104259 103.9896807  30.0353227  59.0886352 103.5108202  31.3733455
  41.2356924 118.0734682  31.0603084  41.1011392 117.3135083  30.4941082
  40.8188987 118.7975582  30.5931873  52.3715887 113.2571606  20.0679659
  53.0751737 113.4621608  20.6837315  51.6478536 113.8248368  20.3328743
  53.2013698 109.0081467  26.1881929  53.1448899 109.4650019  25.3489562
  53.7542040 108.2472152  26.0104772  57.0118503 104.7971199  27.0132049
  56.7555438 104.3967835  27.8440257  56.3871372 105.5114993  26.8882188
  61.3230841 107.5367272  29.5203340  60.7630399 107.6060462  30.2934902
  60.7174345 107.3608257  28.8002837  44.3926050 118.9703999  31.2721527
  44.2758434 119.9149432  31.1700217  43.5718496 118.6677561  31.6607326
  54.2802585 113.6954135  22.1178119  55.1148189 113.2635334  21.9355594
  54.1186928 113.5236149  23.0455014  53.9348477 110.1986248  23.4834459
  53.8797281 110.0330520  22.5422903  53.3094532 110.9062281  23.6396648
  38.7240992 105.4354313  37.3095881  39.3699855 104.9253267  37.7983106
  38.5158143 106.1722994  37.8839306  51.2494384 112.5035160  42.8088021
  52.1185544 112.6775813  42.4474656  50.7701136 113.3229577  42.6863751
  47.2444602  99.6994357  23.0619777  47.2323272 100.6436197  23.2188048
  48.1368024  99.5164503  22.7679238  45.4180564 119.6232261  34.4877455
  46.3207811 119.6555872  34.8043950  45.1917934 118.6932712  34.5023791
  47.1734166 118.3763248  31.1487534  46.2229797 118.3765109  31.0351906
  47.4766652 117.6295982  30.6323568  51.0596722  96.2937134  27.3165714
  50.2929118  95.7395621  27.4622396  51.4707427  96.3659003  28.1779865
  43.0638483 102.5821930  41.4070895  43.9269944 102.2258735  41.6174220
  42.4903894 102.2435825  42.0946299  62.9086860 124.2123786  32.2133296
  63.5465270 124.0930534  31.5096636  62.7907703 125.1604630  32.2721248
  59.7176566 124.1651214  32.1494821  59.3795078 124.0492279  31.2615356
  60.5866334 123.7642379  32.1295827  55.5763382 126.0186691  28.1391712
  55.0128247 125.9276628  27.3707999  55.4615777 125.1986595  28.6194204
  60.1996349 125.3186066  38.1081026  60.1884990 124.9238864  37.2361530
  60.3616989 124.5852139  38.7014798  53.1227814 127.5137882  30.9775932
  53.9149106 127.1728707  30.5622231  53.3624464 127.6232857  31.8978085
  61.1562940 129.6857658  23.4506177  60.5050920 130.2711739  23.0640190
  61.9507303 130.2163853  23.5101214  55.0818568 126.7746796  23.8493311
  55.8549444 126.2275783  23.7106187  55.4343967 127.6391045  24.0607772
  56.9203610 128.1023178  37.0560210  56.6293476 129.0068809  36.9406877
  57.5560595 128.1439706  37.7704280  57.8459817 125.4800026  33.6461570
  58.4423389 125.2556049  32.9318533  57.9034789 124.7384772  34.2487018
  57.4184845 122.9339462  21.4811761  57.6710366 122.4120983  20.7195224
  56.4809405 122.7705607  21.5838444  62.4628128 121.9375240  29.2886504
  63.2491218 121.5194663  28.9376921  62.7266833 122.8421332  29.4568152
  62.6338206 127.3748090  23.9875161  61.9984039 127.4482717  24.6996066
  62.3035612 127.9641689  23.3094240  67.8636555 121.8750473  30.1919483
  68.5961727 121.3049690  30.4257312  67.1075911 121.4872074  30.6325988
  57.1381134 124.8367568  23.6836136  57.0217392 124.1612471  24.3517220
  57.2483394 124.3499942  22.8668289  59.4812675 124.2977715  27.3882825
  59.1170882 123.7708336  28.0995747  60.3379791 123.9076184  27.2149310
  65.3861976 115.5872047  34.6514091  65.0545301 116.4567458  34.4275306
  64.7907589 115.2708331  35.3308122  59.1218162 119.3267614  22.3844174
  59.2892564 120.1947851  22.7514645  58.9315331 119.4894896  21.4605463
  61.8793495 127.7884593  34.0510004  61.5794218 128.6909632  33.9425811
  61.5344555 127.5216777  34.9031157  55.3305977 124.2398390  30.0846708
  54.4056473 124.1074604  30.2924400  55.5790390 125.0192609  30.5816651
  65.2790639 120.3067134  31.7307441  64.3707516 120.2382542  31.4366202
  65.2278235 120.7839079  32.5589267  59.1007383 121.7825272  23.3690840
  58.9807008 122.2282323  24.2076321  58.4059971 122.1310590  22.8104379
  52.6914788 123.8831664  30.9190497  52.8207169 124.1366143  31.8329909
  52.0112239 124.4759372  30.5995152  56.8614275 134.5528914  27.0180972
  56.7838305 135.5036739  27.0969452  56.2575919 134.2074786  27.6755898
  59.3531505 121.7256779  39.6742339  58.5764839 122.2850699  39.6645203
  59.9922068 122.2113562  40.1957209  67.1452285 118.5083572  33.5085315
  66.5026666 118.8016105  32.8625110  66.6407214 118.3936492  34.3138512
  64.7992449 122.2546745  24.1971174  65.7110305 122.4874132  24.0218872
  64.2902096 122.8383789  23.6346253  57.6077877 124.5342233  39.2360306
  58.3492562 125.0727277  38.9595129  56.9014863 125.1608521  39.3931857
  63.0833217 126.6771373  37.8332467  63.4916573 126.2353784  37.0887099
  62.3610478 126.1024001  38.0866660  59.4364287 121.6143980  35.2066024
  60.2825482 122.0383393  35.3500673  59.3762925 120.9577604  35.9004587
  63.4062031 127.2372564  31.5884756  62.7770894 127.4018278  30.8860824
  63.0187694 127.6514173  32.3595720  67.2851263 128.1727001  28.9429120
  66.6002301 128.5525903  28.3926153  67.3695113 128.7822328  29.6761067
  62.5863732 119.2748348  36.8647198  62.3424664 120.0290409  36.3281473
  62.8623663 119.6533696  37.6994445  64.5402195 125.8186961  35.5424463
  64.7519090 126.4618720  34.8658844  64.4931943 124.9849277  35.0746393
  62.1428424 118.4304781  32.4461035  61.2812903 118.7286035  32.7377773
  62.1690859 118.6475180  31.5142068  58.9589993 126.9746972  28.8534841
  59.4228339 127.2534675  28.0639463  58.6946791 126.0730416  28.6707932
  55.8514074 126.5218453  31.7914604  56.4215431 126.9505722  31.1532089
  56.4422186 126.2401038  32.4898790  57.8958879 123.0970124  25.6624406
  58.5982923 123.5491168  26.1298332  57.5639508 122.4553943  26.2904299
  56.3439241 121.6881881  40.0375616  55.7137901 122.3698162  40.2711012
  56.2375329 121.5764962  39.0928754  51.6384213 121.3553677  30.9641540
  50.8483267 121.6111205  30.4881650  52.1295461 122.1702015  31.0693580
  65.6548023 128.6958916  33.7146821  66.4765467 128.2939103  33.4329502
  65.6510426 128.5927150  34.6662936  53.5898959 121.7198256  27.9225016
  52.7930122 121.8316950  28.4408512  53.3624551 122.0584908  27.0565907
  59.4204626 128.2442959  35.8707531  59.4849059 128.7063366  36.7065703
  58.7115550 127.6140324  35.9989841  49.9221916 121.6084167  33.3956530
  50.1729955 122.4931177  33.6614106  50.4581465 121.4288769  32.6231622
  73.7454016 125.0397664  30.0631792  72.9917724 124.4705062  29.9075796
  73.8801557 125.0060329  31.0102427  59.1352644 129.9111067  25.7386511
  58.9998319 130.7562602  26.1671359  59.6762456 130.1130344  24.9752445
  55.6219984 115.9902647  42.4000867  55.2286929 115.4368845  43.0748511
  56.4386124 116.3013225  42.7907384  52.5882041 127.4286505  26.3114436
  53.1006562 128.2229755  26.4620001  53.2404754 126.7312795  26.2448038
  54.3976926 130.5452261  28.3937190  54.5743554 131.4670226  28.2058173
  55.1933760 130.2310680  28.8231569  58.5387945 117.4060526  39.9921123
  59.2797658 118.0067679  39.9125586  58.7705867 116.6638163  39.4339166
  53.6829283 122.5916893  38.2699353  53.5682798 121.6902150  38.5706452
  52.8273800 122.8380590  37.9184169  60.7621120 130.5334633  39.8686853
  60.3184975 129.7471012  39.5507758  61.4238334 130.7213784  39.2030744
  55.5208242 132.0630435  34.3947532  56.0715667 131.9347498  33.6224526
  54.6819717 132.3625324  34.0442425  62.8602358 130.8137433  37.8968255
  62.8420834 131.6346314  37.4048524  63.7822278 130.6891508  38.1218396
  59.3175413 128.3281563  38.7391763  59.8503749 127.5669851  38.5091071
  58.7889494 128.0355214  39.4815918  62.4845108 113.4341629  34.2685405
  62.1409377 114.3243270  34.1924515  62.8524070 113.2443286  33.4054990
  50.5530958 125.7575159  27.0874007  51.3906180 126.1672167  26.8707715
  50.7309226 124.8174601  27.0574201  62.4495390 123.4250240  22.7757840
  61.9342014 124.1954844  23.0146227  62.1772699 122.7515376  23.3990901
  60.0342501 118.2699940  27.8343078  59.1784098 117.8806791  27.6548717
  60.4469453 118.3491901  26.9742864  61.5641648 115.8046284  32.2334638
  61.0606444 115.7676419  31.4202443  61.8572255 116.7139026  32.2931295
  57.8084534 115.8885013  31.2400820  58.6737531 115.6927822  30.8806709
  57.8762043 115.6595365  32.1670177  67.4229664 126.1782594  24.7111013
  66.6459107 125.8393754  24.2666175  68.1021145 126.1835218  24.0365978
  62.2381693 121.2977332  24.6017621  61.9331829 121.6123481  25.4527764
  63.1912136 121.3758752  24.6444954  60.6828125 127.4567555  26.2510575
  60.1549487 126.7220315  25.9383813  60.1815628 128.2342231  26.0050543
  65.6620971 125.6516576  31.3677621  65.0044646 126.3415837  31.4557750
  66.4661371 126.0413008  31.7111608  55.4146853 118.1187221  28.6117187
  55.9890605 117.8962403  27.8790380  56.0017835 118.1875916  29.3645788
  64.4726430 124.0060948  29.4181563  64.9858312 124.6390940  29.9203273
  65.1227654 123.4062144  29.0524923  55.7416440 120.1491682  22.6313072
  54.9053752 120.4866369  22.9522347  55.6021210 120.0140662  21.6940209
  57.7169521 114.9928470  27.3392256  57.0633933 114.6777487  26.7148871
  57.6749995 114.3704211  28.0652079  58.8280725 125.2747765  19.2545548
  57.9207787 125.0437019  19.4536697  59.3251757 124.4785385  19.4419530
  61.7348804 133.9845273  22.1742234  61.0610503 134.2876969  22.7827192
  62.1214626 134.7874353  21.8247691  60.9507261 121.4810404  31.6639904
  60.0329822 121.7025351  31.5061592  61.3667405 121.5556714  30.8051611
  61.7342309 122.8801820  26.7942584  62.4814128 123.3923217  26.4849706
  62.0033898 122.5585872  27.6546977  60.0068959 125.3760360  23.7769538
  59.0980178 125.0919393  23.8742008  60.0364043 125.7959439  22.9172845
  65.2388226 128.9866950  27.5460706  64.7850553 128.1457860  27.6025896
  64.6082193 129.6228348  27.8835486  64.1821146 119.9158936  28.7761373
  63.4443903 119.4036322  29.1071616  64.4347919 119.4759317  27.9644650
  63.6821166 130.8243446  28.4810524  63.9744140 131.3848504  27.7622890
  64.1919786 131.1172007  29.2363683  64.2832773 112.6935188  29.3703142
  64.5891650 111.8332551  29.0829058  65.0085378 113.2852808  29.1702136
  50.5757129 123.0965874  27.7584740  50.3781529 122.5035235  27.0335807
  50.0203793 122.7918085  28.4760679  58.5553853 122.9888981  29.8779334
  58.6102463 122.0362817  29.8021810  57.7445055 123.1448420  30.3620632
  59.7045047 126.9169104  21.1157617  59.2664477 126.2004963  20.6563254
  60.4455488 127.1445219  20.5542708  56.4946213 121.6066041  27.6369712
  55.6814078 121.9060211  28.0434905  56.9905207 121.2121729  28.3544195
  58.6454791 131.6023798  29.5703977  58.6030970 131.8284644  28.6412509
  59.5617490 131.3687172  29.7189778  62.0920425 122.0707865  36.4684606
  62.4469812 122.2979338  37.3279072  62.7392556 122.4026242  35.8461862
  67.8218162 125.1926301  27.1733935  67.6836060 125.3827897  26.2455125
  67.4654380 125.9545684  27.6301986  55.9860288 119.1784396  33.2530947
  56.6259667 119.0373155  32.5553911  55.1537818 118.8918910  32.8769549
  67.8487541 127.2602828  32.1845207  68.2824048 127.1678117  33.0328261
  68.5619122 127.2360328  31.5465223  56.7620592 128.4786827  29.3665940
  57.5561190 127.9837147  29.1648515  56.0512284 127.9504690  29.0033645
  61.5815436 130.8604922  33.7178307  61.6352458 131.4295858  34.4856023
  60.7130217 131.0306807  33.3532345  53.0703355 122.6229908  25.4425693
  52.1400943 122.5614364  25.6595655  53.1660827 122.1005861  24.6462334
  52.9888904 119.1484721  28.0303934  53.2495721 120.0630054  27.9213095
  53.8106076 118.6809164  28.1800547  54.4613829 120.5622478  35.2002759
  55.1336883 120.3539840  34.5515408  53.6343616 120.3644564  34.7607991
  68.7103091 127.3026529  34.7178092  68.9038981 128.2072339  34.9637367
  68.6103709 126.8433948  35.5516677  60.3639401 117.1884419  37.2168420
  59.7167316 117.8874369  37.1232896  61.1340417 117.6220563  37.5844668
  63.7718199 127.4533271  40.2918973  63.6203706 127.2243823  39.3749057
  63.7622879 128.4103873  40.3050318  60.5403536 125.0265184  35.2765239
  61.4695596 125.1776344  35.1034207  60.1194566 125.1149205  34.4213886
  59.3391868 129.0515849  33.0463777  59.2002953 128.6834633  33.9189715
  58.5506464 129.5663488  32.8747735  59.9340020 134.1524945  24.3889313
  60.1091775 133.6812988  25.2034936  59.2472808 134.7790711  24.6170574
  60.8897083 128.4297451  30.4352615  60.5546915 128.3898221  31.3310265
  60.3901028 127.7642167  29.9623025  54.8641327 123.8365081  35.9605196
  54.7261125 123.1045320  36.5616735  55.7746250 123.7473981  35.6789384
  63.8256274 125.7753486  20.7089674  63.2085445 125.0500314  20.6122727
  63.3572763 126.5362846  20.3656749  57.4923627 123.5485041  35.4488876
  58.2023246 122.9078233  35.4075494  57.4492935 123.7997935  36.3715056
  65.4810406 130.4852394  38.3695455  65.4222952 129.8011614  37.7026038
  65.8829924 131.2271384  37.9176081  56.2052561 120.5350258  37.2684515
  55.6689918 120.0840997  37.9206111  55.6169270 120.6696167  36.5254979
  54.5001105 137.3014308  31.1629174  54.7397703 137.9332832  31.8408192
  53.6570301 136.9502348  31.4494533  55.6154820 119.9938910  19.8310979
  54.7384287 119.8727711  19.4673225  56.0912573 119.2024988  19.5789867
  65.4827813 128.4491978  36.6009434  64.5954592 128.1117900  36.7235833
  66.0526364 127.7175009  36.8378200  47.1356960 124.7816070  29.9252486
  47.8228000 124.4677800  29.3373501  46.9805089 125.6857434  29.6519737
  51.9391683 119.6706266  34.3537509  51.8549871 119.0631936  33.6187919
  51.1174389 120.1615284  34.3547006  59.0128967 133.1093430  33.5670678
  58.9399138 133.9148402  34.0789982  58.5706360 133.3085396  32.7418699
  58.8018746 132.3465200  27.0773499  58.0186268 132.8886880  27.1711724
  59.5011491 132.8639180  27.4767740  62.1115396 118.1559830  29.7207705
  62.6084096 117.4029792  29.4008775  61.3402378 118.1924146  29.1550914
  69.9645154 123.8600195  31.3625996  69.9535030 124.7424911  30.9919929
  69.0962533 123.5071746  31.1680533  61.4727650 133.0080264  35.7228836
  62.1855622 133.6427729  35.6504738  60.9817679 133.1044130  34.9068838
  63.1945177 126.9131517  27.2946128  62.2601456 127.0332979  27.1250832
  63.3721846 126.0103984  27.0306138  58.6950365 120.2977213  29.4479389
  58.3248153 119.7448253  30.1360295  59.1909458 119.6935346  28.8954389
  66.5817728 122.7548836  27.8296162  67.0478181 123.5876828  27.7556465
  67.0325229 122.2893818  28.5341421  56.5239564 130.7574708  36.5434407
  57.2249023 131.3911191  36.6963801  56.0534679 131.0989439  35.7830046
  64.6493960 129.0992657  24.8282314  64.9253803 128.9849252  25.7376188
  63.7798458 128.7010142  24.7894487  64.5534391 115.1229423  31.8687063
  63.6397471 115.3533650  32.0369270  64.9827493 115.2067867  32.7201096
  64.3240850 123.3119315  34.3686957  63.6712300 123.5595223  33.7139410
  64.7021230 122.4983453  34.0349435  61.2848024 133.3479008  28.4715128
  61.4670418 132.5300664  28.9342880  62.1081010 133.5646701  28.0340018
  61.6190189 132.2747193  25.7330176  62.1477955 131.7639648  25.1200338
  61.8818409 131.9589724  26.5975709  60.3728423 124.0539126  40.8552995
  59.6969060 123.9533256  41.5255370  61.1956057 123.8978340  41.3188992
  52.1207282 130.2911063  33.4765510  52.7060719 129.5454751  33.6093414
  51.9232120 130.6015019  34.3602174  54.9745937 133.3262310  28.4927952
  54.3056312 133.8108438  28.0091992  54.8358807 133.5731531  29.4071331
  46.7124937 122.8616663  32.1969953  46.7509036 122.3280254  32.9907071
  46.2065229 122.3351868  31.5780930  59.1151206 135.3606054  35.0910611
  59.6669514 135.5237675  35.8559696  59.4557399 135.9510491  34.4190635
  54.0915699 117.7081203  35.6932495  54.1557025 118.5696034  35.2809893
  54.0282819 117.0955205  34.9604854  53.5667971 119.7804336  39.3405529
  54.1940010 119.3981413  39.9543054  52.7095890 119.5618538  39.7061222
  63.9662080 130.1867311  40.9459265  64.5101984 130.7997269  40.4514220
  63.3848925 130.7446890  41.4626278  50.3433514 121.5880765  25.2723884
  50.6386955 120.6791444  25.2190938  49.4421550 121.5668505  24.9504887
  62.2519593 133.3088029  32.0774293  62.1270732 132.5077769  31.5685238
  62.9098684 133.8034223  31.5888263  53.8727761 119.6636762  31.2551433
  53.1514347 120.2772729  31.1158906  54.6621017 120.1994527  31.1768079
  64.3154501 131.1097049  33.7053843  63.3684837 130.9902400  33.6332169
  64.6637274 130.2219547  33.7880104  56.6754075 116.9991188  37.5292085
  57.1988476 117.2453485  38.2918394  56.4566408 117.8311223  37.1095222
  52.0721356 119.2694863  25.3963209  51.7434062 118.3892242  25.2138315
  52.4260726 119.2142531  26.2839599  61.3200935 130.9049765  29.9058195
  61.1725897 129.9766473  30.0865765  62.1454428 130.9269856  29.4215270
  55.1863179 119.5567833  25.7638687  55.5259251 120.0853754  25.0417295
  55.6335299 119.8948239  26.5397254  64.9235056 131.7278324  30.9923068
  65.8481604 131.5221186  30.8547519  64.7550360 131.4794725  31.9012409
  57.8806620 117.9404883  35.2141755  57.5403440 117.1412696  35.6162435
  57.1745626 118.2406594  34.6418588  58.5323091 115.0254196  33.6669078
  59.3549161 114.5514674  33.5447969  58.7761155 115.8044679  34.1667765
  57.1731326 118.0542454  23.9631980  57.8939688 118.4323707  23.4595697
  56.5496630 118.7731331  24.0666958  61.3162449 118.7587603  24.8990312
  61.5326063 119.6412241  24.5979140  60.8356516 118.3673817  24.1695954
  56.0561670 121.7173316  31.4761057  55.9106251 122.0313619  32.3685338
  55.5786874 122.3358217  30.9231955  57.9158053 118.7075864  31.5241946
  57.9019622 117.8116958  31.1874244  58.6330481 118.7146528  32.1580232
  59.7684184 119.1413205  33.5695074  59.5101962 120.0630275  33.5679404
  59.2369224 118.7443639  34.2595538  64.7130373 132.2463992  26.3485159
  64.8867250 131.6810414  25.5959012  65.2059264 133.0464887  26.1664649
  50.5307332 124.2578661  34.4148718  49.9860800 125.0338469  34.5468992
  51.4086682 124.6049465  34.2567839  57.3194949 117.5890245  26.7929517
  57.4410860 116.6606891  26.9920404  57.0296991 117.6028931  25.8807832
  60.1886139 115.2745155  29.9296236  60.2107836 115.3384488  28.9748216
  60.6054198 114.4349664  30.1236743  70.5669764 125.0100415  27.9675459
  71.0100910 124.2607740  27.5694582  69.6896274 125.0010551  27.5849191
  65.7005545 131.5630756  23.4482057  66.3956450 132.1837449  23.6669372
  66.0428695 130.7126107  23.7234435  51.3173354 123.3848557  37.3078875
  50.5755090 123.5331192  37.8943505  50.9966099 123.6456823  36.4445624
  67.5996968 129.0130462  24.9769388  68.1248292 129.3517734  24.2518708
  67.5119321 128.0777477  24.7932523  59.2617017 132.9264535  37.1059265
  59.5704143 132.6813682  37.9781964  60.0592499 133.1311174  36.6178135
  59.2837629 135.0802445  29.3364641  58.8442619 134.5878824  30.0297498
  60.0345746 134.5375413  29.0956717  51.7629968 131.2713986  29.3389270
  52.5887988 130.9717758  28.9587913  51.4124020 130.5021608  29.7879058
  56.7311501 130.6240454  31.4086943  56.1091510 129.9611159  31.1089171
  57.4016368 130.6501586  30.7260591  49.9638573 129.1900312  30.2978203
  49.1270481 128.7622487  30.1162204  49.9362218 129.3832756  31.2348994
  56.8036029 119.1022242  41.0019449  56.8524184 119.9784365  40.6197219
  57.3458543 118.5599635  40.4291092  67.2890874 129.6463365  40.2820586
  66.4986418 129.6287504  39.7425086  67.0524229 130.1851659  41.0369623
  67.4088749 126.4955832  37.5953315  67.4586754 126.3305839  38.5368838
  67.3002673 125.6283091  37.2051196  56.2925008 129.1744377  24.8845404
  56.4413128 129.8579842  24.2312076  57.0991451 129.1549467  25.3994859
  64.6992512 122.4786760  38.9112621  65.6002374 122.3393224  38.6196619
  64.7740486 122.6441214  39.8510799  59.0335317 119.8553614  37.7565808
  58.1638626 120.1487180  37.4848396  59.2694797 120.4394059  38.4773071
  68.9106946 128.9152773  37.8395336  68.6191754 129.2782754  38.6758797
  68.2979077 128.2019781  37.6608668  70.1102628 126.4805653  30.3597907
  70.9449520 126.9195457  30.5235467  70.2461757 126.0044306  29.5406152
  67.1594134 124.0385388  36.3075394  67.6348256 124.2313034  35.4994246
  66.2359700 124.0944574  36.0618778  54.0477641 125.2009555  25.8906473
  53.8023683 124.2971885  26.0886683  54.2173556 125.2026705  24.9485951
  61.7374351 116.0733231  35.2731228  62.2556295 116.8094258  34.9477717
  61.3829484 116.3797225  36.1077987  53.3173289 120.9337913  23.3892634
  52.6242533 121.0082267  22.7332670  53.0725040 120.1698256  23.9114151
  61.9886945 112.4933514  30.7932125  62.2688699 111.8256703  31.4192551
  62.7737552 112.6862609  30.2806789  59.7920414 131.6692508  22.3557151
  59.2194381 132.2882695  21.9027623  60.3653207 132.2191869  22.8897073
  65.8595803 120.9151148  34.5403700  66.8113226 121.0149246  34.5615924
  65.6899254 120.1229416  35.0501784  63.8810183 118.0006731  34.7263101
  63.2860115 118.2811744  34.0309589  63.5959880 118.4900632  35.4979842
  63.0117673 131.9529658  23.4865733  63.9448346 131.8875220  23.6898609
  62.9240886 132.7885925  23.0280266  65.6405690 131.2695528  20.4469681
  65.5619322 130.9355392  21.3405439  66.4615357 131.7617296  20.4461153
  68.3383881 124.1357268  33.6546000  68.3060201 123.1973268  33.8405683
  68.9484505 124.2141304  32.9211824  60.1767212 123.0053321  19.6973204
  61.1226317 122.8759529  19.7661622  59.7981457 122.2667982  20.1742632
  68.4878370 120.9268311  33.7004283  67.9717418 120.1426768  33.5134212
  69.3718318 120.5987028  33.8650802  66.1489097 114.6709327  29.6600095
  65.9513918 114.3624415  30.5443427  66.7588802 115.3970965  29.7898025
  74.1560431 125.1973274  32.7952036  74.8863820 124.9358562  33.3559740
  73.5467377 124.4601996  32.8354104  72.2375728 123.3381137  33.3926488
  71.5108892 123.2037102  32.7842979  71.8223015 123.6457966  34.1983206
  60.0605905 127.0571067  41.1573861  60.9808914 127.2349666  41.3513907
  60.0255488 126.1127112  41.0053560  58.3610129 120.9303297  19.6328089
  57.4541585 120.6336410  19.7090802  58.6386110 120.6333115  18.7662375
  49.2788070 122.2509660  30.0827135  48.9590854 121.3974968  29.7901509
  48.7321498 122.4658238  30.8385103  53.0567977 124.9672101  33.7996642
  53.2753987 125.8989209  33.8184676  53.4693751 124.6080076  34.5851446
  59.9772195 115.4740187  25.7872330  59.1672923 115.1287272  26.1627576
  60.6656612 115.1647730  26.3759942  61.9062743 114.5518233  27.4096627
  62.4593782 114.9713687  28.0686650  62.1432830 113.6253982  27.4519583
  57.9295842 120.5405307  43.1899391  57.8292569 121.4899664  43.1211482
  57.7117384 120.2123546  42.3175461  57.1308914 117.7890232  19.7740068
  57.9928078 118.1145130  20.0335885  57.3159258 117.0021728  19.2613134
  49.1476330 125.8712572  32.0520257  48.4539801 125.4566525  31.5390211
  49.8949321 125.9133108  31.4553676  65.2841550 116.6618759  26.9175291
  64.7040219 117.3203563  26.5353343  65.0177483 115.8396103  26.5062708
  63.7345117 116.0623816  29.1196611  64.2344895 116.1740351  28.3110930
  64.3780725 115.7584869  29.7597420  57.7927112 123.9702446  42.0064452
  57.3094194 124.7702806  42.2128341  57.8788052 123.9810391  41.0531896
  51.0613072 125.8030826  29.9286272  51.0383760 125.9018513  28.9768155
  51.3713709 126.6495976  30.2503438  53.7200450 127.8606981  34.0432886
  54.6743704 127.8290923  33.9762818  53.5212974 127.3997604  34.8583112
  54.3099832 126.4308097  36.6103684  55.1292721 126.9252175  36.6338521
  54.5836640 125.5140065  36.5821251  64.0666428 118.8218849  25.9731639
  63.1792283 119.1068500  25.7551834  64.4820417 118.6612612  25.1258916
  67.4180964 118.8465370  29.6885978  68.1941355 119.3361822  29.9610595
  66.6929099 119.2723424  30.1457848  69.8553523 119.5592989  30.7459919
  70.4498014 119.3188725  30.0353227  69.9280107 118.8400120  31.3733455
  52.0750679 133.4026600  31.0603084  51.9405147 132.6427001  30.4941082
  51.6582741 134.1267500  30.5931873  63.2109642 128.5863524  20.0679659
  63.9145492 128.7913526  20.6837315  62.4872291 129.1540286  20.3328743
  64.0407452 124.3373385  26.1881929  63.9842653 124.7941936  25.3489562
  64.5935795 123.5764069  26.0104772  67.8512258 120.1263117  27.0132049
  67.5949192 119.7259752  27.8440257  67.2265126 120.8406911  26.8882188
  72.1624596 122.8659190  29.5203340  71.6024154 122.9352379  30.2934902
  71.5568099 122.6900175  28.8002837  55.2319805 134.2995917  31.2721527
  55.1152189 135.2441350  31.1700217  54.4112251 133.9969479  31.6607326
  65.1196339 129.0246053  22.1178119  65.9541943 128.5927251  21.9355594
  64.9580682 128.8528067  23.0455014  64.7742231 125.5278166  23.4834459
  64.7191035 125.3622438  22.5422903  64.1488287 126.2354199  23.6396648
  49.5634746 120.7646231  37.3095881  50.2093610 120.2545184  37.7983106
  49.3551897 121.5014912  37.8839306  62.0888139 127.8327078  42.8088021
  62.9579298 128.0067730  42.4474656  61.6094890 128.6521495  42.6863751
  58.0838357 115.0286275  23.0619777  58.0717027 115.9728115  23.2188048
  58.9761779 114.8456421  22.7679238  56.2574319 134.9524179  34.4877455
  57.1601565 134.9847789  34.8043950  56.0311689 134.0224630  34.5023791
  58.0127921 133.7055166  31.1487534  57.0623552 133.7057027  31.0351906
  58.3160407 132.9587900  30.6323568  61.8990476 111.6229052  27.3165714
  61.1322872 111.0687538  27.4622396  62.3101181 111.6950921  28.1779865
  53.9032237 117.9113848  41.4070895  54.7663699 117.5550652  41.6174220
  53.3297648 117.5727742  42.0946299  73.7480614 139.5415704  32.2133296
  74.3859024 139.4222451  31.5096636  73.6301457 140.4896548  32.2721248
  70.5570321 139.4943132  32.1494821  70.2188832 139.3784197  31.2615356
  71.4260089 139.0934297  32.1295827  66.4157136 141.3478608  28.1391712
  65.8522001 141.2568545  27.3707999  66.3009531 140.5278513  28.6194204
  71.0390104 140.6477984  38.1081026  71.0278744 140.2530782  37.2361530
  71.2010743 139.9144056  38.7014798  63.9621568 142.8429800  30.9775932
  64.7542860 142.5020625  30.5622231  64.2018218 142.9524775  31.8978085
  68.6853572 140.8091944  33.6461570  69.2817144 140.5847966  32.9318533
  68.7428543 140.0676690  34.2487018  73.3021883 137.2667158  29.2886504
  74.0884972 136.8486581  28.9376921  73.5660587 138.1713250  29.4568152
  78.7030310 137.2042391  30.1919483  79.4355482 136.6341608  30.4257312
  77.9469666 136.8163991  30.6325988  70.3206430 139.6269632  27.3882825
  69.9564637 139.1000253  28.0995747  71.1773546 139.2368102  27.2149310
  76.2255730 130.9163965  34.6514091  75.8939055 131.7859376  34.4275306
  75.6301344 130.6000249  35.3308122  69.9611917 134.6559532  22.3844174
  70.1286319 135.5239769  22.7514645  69.7709086 134.8186814  21.4605463
  72.7187250 143.1176511  34.0510004  72.4187973 144.0201550  33.9425811
  72.3738309 142.8508694  34.9031157  66.1699731 139.5690308  30.0846708
  65.2450228 139.4366522  30.2924400  66.4184144 140.3484527  30.5816651
  76.1184394 135.6359051  31.7307441  75.2101271 135.5674460  31.4366202
  76.0671989 136.1130996  32.5589267  69.9401137 137.1117190  23.3690840
  69.8200763 137.5574240  24.2076321  69.2453726 137.4602507  22.8104379
  63.5308542 139.2123581  30.9190497  63.6600923 139.4658060  31.8329909
  62.8505994 139.8051289  30.5995152  70.1925259 137.0548697  39.6742339
  69.4158593 137.6142617  39.6645203  70.8315822 137.5405480  40.1957209
  77.9846040 133.8375490  33.5085315  77.3420420 134.1308023  32.8625110
  77.4800968 133.7228410  34.3138512  68.4471632 139.8634150  39.2360306
  69.1886316 140.4019194  38.9595129  67.7408617 140.4900439  39.3931857
  73.9226971 142.0063291  37.8332467  74.3310327 141.5645701  37.0887099
  73.2004233 141.4315918  38.0866660  70.2758041 136.9435897  35.2066024
  71.1219237 137.3675311  35.3500673  70.2156679 136.2869522  35.9004587
  74.2455786 142.5664481  31.5884756  73.6164648 142.7310195  30.8860824
  73.8581448 142.9806091  32.3595720  73.4257487 134.6040266  36.8647198
  73.1818419 135.3582326  36.3281473  73.7017417 134.9825613  37.6994445
  75.3795949 141.1478878  35.5424463  75.5912845 141.7910638  34.8658844
  75.3325698 140.3141195  35.0746393  72.9822178 133.7596699  32.4461035
  72.1206657 134.0577952  32.7377773  73.0084613 133.9767098  31.5142068
  69.7983748 142.3038889  28.8534841  70.2622093 142.5826592  28.0639463
  69.5340546 141.4022334  28.6707932  66.6907829 141.8510371  31.7914604
  67.2609186 142.2797639  31.1532089  67.2815941 141.5692956  32.4898790
  68.7352634 138.4262042  25.6624406  69.4376677 138.8783085  26.1298332
  68.4033262 137.7845861  26.2904299  67.1832995 137.0173798  40.0375616
  66.5531656 137.6990079  40.2711012  67.0769083 136.9056880  39.0928754
  62.4777968 136.6845594  30.9641540  61.6877022 136.9403123  30.4881650
  62.9689215 137.4993932  31.0693580  76.4941777 144.0250834  33.7146821
  77.3159221 143.6231021  33.4329502  76.4904180 143.9219068  34.6662936
  64.4292713 137.0490174  27.9225016  63.6323876 137.1608868  28.4408512
  64.2018305 137.3876826  27.0565907  70.2598381 143.5734877  35.8707531
  70.3242813 144.0355284  36.7065703  69.5509305 142.9432242  35.9989841
  60.7615671 136.9376085  33.3956530  61.0123709 137.8223095  33.6614106
  61.2975219 136.7580686  32.6231622  66.4613738 131.3194564  42.4000867
  66.0680684 130.7660763  43.0748511  67.2779878 131.6305143  42.7907384
  69.3781699 132.7352443  39.9921123  70.1191412 133.3359596  39.9125586
  69.6099622 131.9930081  39.4339166  64.5223037 137.9208811  38.2699353
  64.4076552 137.0194068  38.5706452  63.6667555 138.1672507  37.9184169
  70.1569167 143.6573480  38.7391763  70.6897504 142.8961768  38.5091071
  69.6283248 143.3647132  39.4815918  73.3238862 128.7633546  34.2685405
  72.9803131 129.6535188  34.1924515  73.6917825 128.5735204  33.4054990
  61.3924713 141.0867077  27.0874007  62.2299935 141.4964085  26.8707715
  61.5702980 140.1466519  27.0574201  70.8736256 133.5991858  27.8343078
  70.0177852 133.2098709  27.6548717  71.2863208 133.6783819  26.9742864
  72.4035402 131.1338201  32.2334638  71.9000198 131.0968337  31.4202443
  72.6966009 132.0430944  32.2931295  68.6478288 131.2176931  31.2400820
  69.5131285 131.0219740  30.8806709  68.7155797 130.9887283  32.1670177
  73.0775448 136.6269249  24.6017621  72.7725584 136.9415399  25.4527764
  74.0305890 136.7050669  24.6444954  76.5014726 140.9808493  31.3677621
  75.8438400 141.6707755  31.4557750  77.3055125 141.3704925  31.7111608
  66.2540607 133.4479139  28.6117187  66.8284359 133.2254321  27.8790380
  66.8411590 133.5167834  29.3645788  75.3120185 139.3352866  29.4181563
  75.8252066 139.9682858  29.9203273  75.9621408 138.7354061  29.0524923
  66.5810195 135.4783600  22.6313072  65.7447507 135.8158287  22.9522347
  66.4414964 135.3432580  21.6940209  68.5563275 130.3220388  27.3392256
  67.9027687 130.0069405  26.7148871  68.5143749 129.6996128  28.0652079
  71.7901015 136.8102322  31.6639904  70.8723577 137.0317269  31.5061592
  72.2061159 136.8848632  30.8051611  72.5736063 138.2093737  26.7942584
  73.3207882 138.7215134  26.4849706  72.8427653 137.8877790  27.6546977
  75.0214900 135.2450853  28.7761373  74.2837657 134.7328240  29.1071616
  75.2741674 134.8051235  27.9644650  75.1226528 128.0227105  29.3703142
  75.4285405 127.1624469  29.0829058  75.8479133 128.6144726  29.1702136
  61.4150884 138.4257792  27.7584740  61.2175284 137.8327153  27.0335807
  60.8597548 138.1210002  28.4760679  69.3947607 138.3180899  29.8779334
  69.4496217 137.3654735  29.8021810  68.5838809 138.4740338  30.3620632
  67.3339967 136.9357958  27.6369712  66.5207833 137.2352129  28.0434905
  67.8298962 136.5413647  28.3544195  72.9314179 137.3999783  36.4684606
  73.2863567 137.6271256  37.3279072  73.5786310 137.7318160  35.8461862
  66.8254042 134.5076314  33.2530947  67.4653421 134.3665073  32.5553911
  65.9931573 134.2210827  32.8769549  78.6881296 142.5894746  32.1845207
  79.1217802 142.4970035  33.0328261  79.4012876 142.5652246  31.5465223
  67.6014346 143.8078744  29.3665940  68.3954945 143.3129064  29.1648515
  66.8906038 143.2796607  29.0033645  63.9097110 137.9521826  25.4425693
  62.9794698 137.8906281  25.6595655  64.0054581 137.4297779  24.6462334
  63.8282659 134.4776639  28.0303934  64.0889476 135.3921972  27.9213095
  64.6499831 134.0101081  28.1800547  65.3007584 135.8914396  35.2002759
  65.9730637 135.6831758  34.5515408  64.4737370 135.6936482  34.7607991
  79.5496845 142.6318446  34.7178092  79.7432735 143.5364257  34.9637367
  79.4497463 142.1725865  35.5516677  71.2033156 132.5176337  37.2168420
  70.5561071 133.2166287  37.1232896  71.9734171 132.9512481  37.5844668
  74.6111954 142.7825189  40.2918973  74.4597460 142.5535741  39.3749057
  74.6016633 143.7395790  40.3050318  71.3797290 140.3557102  35.2765239
  72.3089350 140.5068261  35.1034207  70.9588320 140.4441123  34.4213886
  71.7290837 143.7589369  30.4352615  71.3940670 143.7190139  31.3310265
  71.2294783 143.0934085  29.9623025  65.7035081 139.1656999  35.9605196
  65.5654879 138.4337238  36.5616735  66.6140005 139.0765899  35.6789384
  68.3317382 138.8776958  35.4488876  69.0417000 138.2370150  35.4075494
  68.2886690 139.1289853  36.3715056  76.3204160 145.8144312  38.3695455
  76.2616707 145.1303532  37.7026038  76.7223679 146.5563302  37.9176081
  67.0446316 135.8642176  37.2684515  66.5083673 135.4132915  37.9206111
  66.4563024 135.9988085  36.5254979  76.3221568 143.7783896  36.6009434
  75.4348347 143.4409817  36.7235833  76.8920119 143.0466927  36.8378200
  62.7785437 134.9998184  34.3537509  62.6943626 134.3923853  33.6187919
  61.9568143 135.4907202  34.3547006  72.9509151 133.4851747  29.7207705
  73.4477850 132.7321710  29.4008775  72.1796132 133.5216064  29.1550914
  80.8038908 139.1892113  31.3625996  80.7928785 140.0716828  30.9919929
  79.9356288 138.8363664  31.1680533  74.0338932 142.2423435  27.2946128
  73.0995210 142.3624897  27.1250832  74.2115600 141.3395901  27.0306138
  69.5344120 135.6269130  29.4479389  69.1641907 135.0740171  30.1360295
  70.0303212 135.0227264  28.8954389  77.4211483 138.0840754  27.8296162
  77.8871935 138.9168745  27.7556465  77.8718983 137.6185735  28.5341421
  75.3928146 130.4521341  31.8687063  74.4791225 130.6825568  32.0369270
  75.8221247 130.5359785  32.7201096  75.1634604 138.6411233  34.3686957
  74.5106054 138.8887140  33.7139410  75.5414984 137.8275371  34.0349435
  71.2122177 139.3831044  40.8552995  70.5362814 139.2825173  41.5255370
  72.0349811 139.2270258  41.3188992  57.5518691 138.1908581  32.1969953
  57.5902791 137.6572171  32.9907071  57.0458984 137.6643786  31.5780930
  64.9309453 133.0373121  35.6932495  64.9950780 133.8987952  35.2809893
  64.8676574 132.4247123  34.9604854  64.4061726 135.1096254  39.3405529
  65.0333765 134.7273331  39.9543054  63.5489645 134.8910456  39.7061222
  74.8055834 145.5159229  40.9459265  75.3495738 146.1289187  40.4514220
  74.2242679 146.0738807  41.4626278  61.1827269 136.9172683  25.2723884
  61.4780710 136.0083361  25.2190938  60.2815304 136.8960422  24.9504887
  64.7121516 134.9928679  31.2551433  63.9908101 135.6064647  31.1158906
  65.5014771 135.5286444  31.1768079  75.1548256 146.4388967  33.7053843
  74.2078591 146.3194318  33.6332169  75.5031029 145.5511465  33.7880104
  67.5147829 132.3283106  37.5292085  68.0382231 132.5745402  38.2918394
  67.2960162 133.1603141  37.1095222  62.9115110 134.5986780  25.3963209
  62.5827816 133.7184159  25.2138315  63.2654481 134.5434449  26.2839599
  66.0256933 134.8859750  25.7638687  66.3653006 135.4145671  25.0417295
  66.4729054 135.2240156  26.5397254  68.7200374 133.2696801  35.2141755
  68.3797195 132.4704614  35.6162435  68.0139380 133.5698512  34.6418588
  69.3716846 130.3546113  33.6669078  70.1942915 129.8806592  33.5447969
  69.6154910 131.1336597  34.1667765  68.0125080 133.3834372  23.9631980
  68.7333443 133.7615625  23.4595697  67.3890385 134.1023249  24.0666958
  72.1556203 134.0879521  24.8990312  72.3719818 134.9704159  24.5979140
  71.6750270 133.6965734  24.1695954  66.8955425 137.0465234  31.4761057
  66.7500005 137.3605537  32.3685338  66.4180628 137.6650134  30.9231955
  68.7551808 134.0367782  31.5241946  68.7413376 133.1408875  31.1874244
  69.4724236 134.0438446  32.1580232  70.6077938 134.4705122  33.5695074
  70.3495716 135.3922193  33.5679404  70.0762979 134.0735557  34.2595538
  61.3701087 139.5870578  34.4148718  60.8254555 140.3630386  34.5468992
  62.2480437 139.9341383  34.2567839  68.1588704 132.9182162  26.7929517
  68.2804615 131.9898808  26.9920404  67.8690746 132.9320848  25.8807832
  71.0279894 130.6037073  29.9296236  71.0501591 130.6676406  28.9748216
  71.4447953 129.7641581  30.1236743  62.1567109 138.7140475  37.3078875
  61.4148845 138.8623110  37.8943505  61.8359853 138.9748740  36.4445624
  67.6429783 134.4314160  41.0019449  67.6917939 135.3076282  40.6197219
  68.1852297 133.8891553  40.4291092  78.1284629 144.9755283  40.2820586
  77.3380172 144.9579422  39.7425086  77.8917983 145.5143577  41.0369623
  78.2482504 141.8247749  37.5953315  78.2980509 141.6597757  38.5368838
  78.1396427 140.9575008  37.2051196  75.5386266 137.8078677  38.9112621
  76.4396129 137.6685142  38.6196619  75.6134241 137.9733132  39.8510799
  69.8729072 135.1845532  37.7565808  69.0032381 135.4779098  37.4848396
  70.1088552 135.7685977  38.4773071  79.7500701 144.2444691  37.8395336
  79.4585509 144.6074671  38.6758797  79.1372832 143.5311699  37.6608668
  80.9496383 141.8097571  30.3597907  81.7843274 142.2487375  30.5235467
  81.0855512 141.3336224  29.5406152  77.9987889 139.3677305  36.3075394
  78.4742010 139.5604952  35.4994246  77.0753454 139.4236491  36.0618778
  64.8871395 140.5301473  25.8906473  64.6417437 139.6263803  26.0886683
  65.0567310 140.5318623  24.9485951  72.5768105 131.4025149  35.2731228
  73.0950049 132.1386176  34.9477717  72.2223238 131.7089142  36.1077987
  64.1567043 136.2629830  23.3892634  63.4636288 136.3374185  22.7332670
  63.9118795 135.4990174  23.9114151  72.8280700 127.8225432  30.7932125
  73.1082453 127.1548621  31.4192551  73.6131306 128.0154527  30.2806789
  76.6989558 136.2443066  34.5403700  77.6506981 136.3441163  34.5615924
  76.5293008 135.4521334  35.0501784  74.7203937 133.3298649  34.7263101
  74.1253869 133.6103661  34.0309589  74.4353634 133.8192550  35.4979842
  79.1777636 139.4649185  33.6546000  79.1453956 138.5265186  33.8405683
  79.7878259 139.5433222  32.9211824  79.3272124 136.2560229  33.7004283
  78.8111173 135.4718685  33.5134212  80.2112073 135.9278945  33.8650802
  76.9882851 130.0001244  29.6600095  76.7907672 129.6916332  30.5443427
  77.5982557 130.7262883  29.7898025  84.9954186 140.5265192  32.7952036
  85.7257574 140.2650480  33.3559740  84.3861131 139.7893914  32.8354104
  83.0769483 138.6673055  33.3926488  82.3502646 138.5329020  32.7842979
  82.6616770 138.9749883  34.1983206  70.8999659 142.3862984  41.1573861
  71.8202669 142.5641583  41.3513907  70.8649242 141.4419030  41.0053560
  60.1181824 137.5801578  30.0827135  59.7984608 136.7266886  29.7901509
  59.5715252 137.7950156  30.8385103  63.8961732 140.2964019  33.7996642
  64.1147741 141.2281127  33.8184676  64.3087505 139.9371993  34.5851446
  70.8165949 130.8032104  25.7872330  70.0066678 130.4579189  26.1627576
  71.5050366 130.4939648  26.3759942  72.7456498 129.8810151  27.4096627
  73.2987536 130.3005605  28.0686650  72.9826584 128.9545899  27.4519583
  68.7689597 135.8697225  43.1899391  68.6686324 136.8191582  43.1211482
  68.5511139 135.5415464  42.3175461  67.9702668 133.1182150  19.7740068
  68.8321832 133.4437048  20.0335885  68.1553012 132.3313646  19.2613134
  59.9870084 141.2004489  32.0520257  59.2933555 140.7858442  31.5390211
  60.7343075 141.2425026  31.4553676  76.1235305 131.9910676  26.9175291
  75.5433974 132.6495480  26.5353343  75.8571237 131.1688021  26.5062708
  74.5738871 131.3915734  29.1196611  75.0738650 131.5032268  28.3110930
  75.2174479 131.0876787  29.7597420  68.6320867 139.2994364  42.0064452
  68.1487949 140.0994724  42.2128341  68.7181806 139.3102308  41.0531896
  61.9006827 141.1322743  29.9286272  61.8777515 141.2310431  28.9768155
  62.2107463 141.9787894  30.2503438  65.1493587 141.7600014  36.6103684
  65.9686476 142.2544093  36.6338521  65.4230394 140.8431982  36.5821251
  74.9060183 134.1510767  25.9731639  74.0186038 134.4360417  25.7551834
  75.3214172 133.9904530  25.1258916  78.2574719 134.1757288  29.6885978
  79.0335109 134.6653740  29.9610595  77.5322853 134.6015342  30.1457848
  80.6947278 134.8884907  30.7459919  81.2891768 134.6480643  30.0353227
  80.7673861 134.1692037  31.3733455  78.6906012 135.4555034  27.0132049
  78.4342947 135.0551670  27.8440257  78.0658880 136.1698828  26.8882188
  83.0018350 138.1951108  29.5203340  82.4417908 138.2644297  30.2934902
  82.3961854 138.0192092  28.8002837  60.4028501 136.0938148  37.3095881
  61.0487364 135.5837102  37.7983106  60.1945652 136.8306830  37.8839306
  72.9281893 143.1618996  42.8088021  73.7973053 143.3359648  42.4474656
  72.4488645 143.9813412  42.6863751  68.9232111 130.3578193  23.0619777
  68.9110781 131.3020033  23.2188048  69.8155533 130.1748338  22.7679238
  72.7384231 126.9520969  27.3165714  71.9716627 126.3979456  27.4622396
  73.1494936 127.0242838  28.1779865  64.7425992 133.2405765  41.4070895
  65.6057453 132.8842570  41.6174220  64.1691402 132.9019660  42.0946299
  77.3007493 146.6486482  42.4000867  76.9074438 146.0952680  43.0748511
  78.1173633 146.9597060  42.7907384  80.2175454 148.0644361  39.9921123
  80.9585167 148.6651514  39.9125586  80.4493376 147.3221999  39.4339166
  84.1632617 144.0925464  34.2685405  83.8196886 144.9827106  34.1924515
  84.5311579 143.9027122  33.4054990  82.0426910 147.8468255  37.2168420
  81.3954825 148.5458204  37.1232896  82.8127926 148.2804398  37.5844668
  80.2110600 145.6838031  33.6669078  81.0336670 145.2098509  33.5447969
  80.4548664 146.4628515  34.1667765  83.4161860 146.7317067  35.2731228
  83.9343804 147.4678094  34.9477717  83.0616993 147.0381060  36.1077987
  16.8421332  41.0080518  24.8326333  16.8309973  40.6133316  23.9606837
  17.0041972  40.2746591  25.4260104  13.5628593  43.7917630  23.7805517
  13.2718459  44.6963261  23.6652183  14.1985578  43.8334157  24.4949586
  15.9956488  37.4151231  26.3987645  15.2189822  37.9745151  26.3890510
  16.6347051  37.9008014  26.9202515  14.2502860  40.2236684  25.9605612
  14.9917545  40.7621728  25.6840436  13.5439846  40.8502973  26.1177164
  19.7258200  42.3665825  24.5577774  20.1341556  41.9248235  23.8132406
  19.0035462  41.7918452  24.8111967  22.2973006  44.3853368  20.4392127
  23.1190450  43.9833555  20.1574809  22.2935409  44.2821602  21.3908243
  17.4046104  46.2229085  26.5932160  16.9609958  45.4365464  26.2753065
  18.0663317  46.4108236  25.9276051  19.5027342  46.5031885  24.6213561
  19.4845817  47.3240766  24.1293831  20.4247262  46.3785960  24.8463702
  15.9600396  44.0176015  25.4637070  16.4928733  43.2564303  25.2336378
  15.4314477  43.7249666  26.2061224  25.3528074  42.9920981  21.4423399
  25.5463964  43.8966791  21.6882674  25.2528692  42.5328400  22.2761984
  20.4143183  43.1427723  27.0164279  20.2628689  42.9138275  26.0994363
  20.4047862  44.0998325  27.0295625  22.1235389  46.1746846  25.0940761
  22.0647935  45.4906066  24.4271344  22.5254908  46.9165836  24.6421387
  22.1252797  44.1386430  23.3254741  21.2379575  43.8012352  23.4481140
  22.6951348  43.4069461  23.5623506  18.1152633  48.6974716  22.4474143
  18.8280606  49.3322181  22.3750044  17.6242662  48.7938582  21.6314145
  13.1664547  46.4469160  23.2679714  13.8674007  47.0805643  23.4209108
  12.6959662  46.7883891  22.5075353  17.0153406  39.7433578  27.5798301
  16.3394043  39.6427707  28.2500676  17.8381040  39.5872792  28.0434298
  15.7576189  51.0500506  21.8155917  16.3094497  51.2132127  22.5805002
  16.0982382  51.6404943  21.1435942  20.6087063  45.8761763  27.6704572
  21.1526967  46.4891721  27.1759526  20.0273908  46.4341341  28.1871585
  20.9579485  46.7991501  20.4299149  20.0109820  46.6796852  20.3577476
  21.3062258  45.9113999  20.5125411  15.9042000  48.6158987  23.8304572
  16.2129127  48.3708134  24.7027271  16.7017482  48.8205626  23.3423442
  23.9315858  45.3357817  27.0065893  23.1411401  45.3181956  26.4670392
  23.6949212  45.8746111  27.7614929  24.0513733  42.1850283  24.3198621
  24.1011738  42.0200291  25.2614144  23.9427656  41.3177543  23.9296502
  21.3417495  38.1681212  25.6357928  22.2427358  38.0287676  25.3441926
  21.4165470  38.3335666  26.5756106  25.5531929  44.6047225  24.5640643
  25.2616738  44.9677206  25.4004104  24.9404061  43.8914233  24.3853975
  23.8019118  39.7279840  23.0320701  24.2773239  39.9207486  22.2239552
  22.8784683  39.7839025  22.7864085  30.7985414  40.8867726  19.5197343
  31.5288803  40.6253014  20.0805046  30.1892360  40.1496448  19.5599411
  16.7030888  42.7465519  27.8819167  17.6233897  42.9244118  28.0759214
  16.6680471  41.8021564  27.7298866  14.5720826  36.2299759  29.9144697
  14.4717553  37.1794116  29.8456788  14.3542368  35.9017998  29.0420767
  14.4352096  39.6596898  28.7309759  13.9519177  40.4597258  28.9373648
  14.5213035  39.6704843  27.7777203  18.7313122  43.5221530  29.5333328
  19.6004281  43.6962182  29.1719963  18.2519873  44.3415947  29.4109057
  12.8999302  50.6418631  21.2122762  13.8026549  50.6742241  21.5289257
  12.6736672  49.7119082  21.2269097  30.3905598  55.2310156  18.9378603
  31.0284008  55.1116903  18.2341943  30.2726440  56.1791000  18.9966555
  27.1995304  55.1837584  18.8740127  26.8613815  55.0678649  17.9860662
  28.0685072  54.7828749  18.8541133  23.0582120  57.0373060  14.8637018
  22.4946985  56.9462997  14.0953306  22.9434515  56.2172965  15.3439511
  27.6815087  56.3372436  24.8326333  27.6703728  55.9425234  23.9606837
  27.8435726  55.6038508  25.4260104  20.6046551  58.5324252  17.7021239
  21.3967843  58.1915077  17.2867538  20.8443202  58.6419227  18.6223392
  28.6381678  60.7044028  10.1751483  27.9869658  61.2898108   9.7885497
  29.4326041  61.2350223  10.2346521  24.4022348  59.1209547  23.7805517
  24.1112214  60.0255178  23.6652183  25.0379332  59.1626075  24.4949586
  25.3278555  56.4986396  20.3706877  25.9242127  56.2742418  19.6563839
  25.3853526  55.7571141  20.9732324  29.9446866  52.9561610  16.0131811
  30.7309955  52.5381033  15.6622228  30.2085570  53.8607702  16.1813459
  30.1156943  58.3934460  10.7120468  29.4802776  58.4669086  11.4241372
  29.7854350  58.9828059  10.0339547  35.3455293  52.8936843  16.9164789
  36.0780465  52.3236060  17.1502619  34.5894649  52.5058443  17.3571295
  26.9631413  55.3164084  14.1128132  26.5989620  54.7894705  14.8241053
  27.8198529  54.9262553  13.9394617  32.8680714  46.6058417  21.3759398
  32.5364038  47.4753828  21.1520613  32.2726327  46.2894701  22.0553428
  29.3612233  58.8070963  20.7755311  29.0612956  59.7096002  20.6671118
  29.0163293  58.5403146  21.6276463  22.8124715  55.2584760  16.8092015
  21.8875211  55.1260974  17.0169707  23.0609128  56.0378979  17.3061957
  32.7609377  51.3253503  18.4552748  31.8526254  51.2568912  18.1611509
  32.7096973  51.8025448  19.2834573  20.1733526  54.9018033  17.6435804
  20.3025907  55.1552512  18.5575216  19.4930977  55.4945741  17.3240459
  24.3433013  65.5715283  13.7426278  24.2657043  66.5223108  13.8214759
  23.7394656  65.2261156  14.4001205  26.8350243  52.7443149  26.3987645
  26.0583577  53.3037069  26.3890510  27.4740806  53.2299932  26.9202515
  34.6271023  49.5269942  20.2330622  33.9845404  49.8202475  19.5870416
  34.1225952  49.4122862  21.0383818  32.2811187  53.2733115  10.9216481
  33.1929043  53.5060501  10.7464179  31.7720834  53.8570159  10.3591560
  25.0896615  55.5528602  25.9605612  25.8311299  56.0913646  25.6840436
  24.3833600  56.1794891  26.1177164  30.5651955  57.6957743  24.5577774
  30.9735311  57.2540153  23.8132406  29.8429216  57.1210370  24.8111967
  26.9183025  52.6330349  21.9311331  27.7644220  53.0569763  22.0745980
  26.8581662  51.9763974  22.6249894  30.8880769  58.2558933  18.3130063
  30.2589632  58.4204647  17.6106130  30.5006431  58.6700543  19.0841027
  34.7670001  59.1913371  15.6674426  34.0821039  59.5712272  15.1171460
  34.8513850  59.8008698  16.4006374  30.0682470  50.2934718  23.5892504
  29.8243402  51.0476778  23.0526780  30.3442400  50.6720065  24.4239751
  32.0220933  56.8373330  22.2669770  32.2337828  57.4805090  21.5904151
  31.9750681  56.0035647  21.7991700  29.6247162  49.4491151  19.1706342
  28.7631641  49.7472404  19.4623080  29.6509596  49.6661550  18.2387375
  26.4408731  57.9933341  15.5780148  26.9047077  58.2721044  14.7884770
  26.1765529  57.0916786  15.3953238  23.3332812  57.5404823  18.5159911
  23.9034169  57.9692091  17.8777395  23.9240924  57.2587408  19.2144097
  23.8257979  52.7068250  26.7620922  23.1956639  53.3884531  26.9956319
  23.7194067  52.5951332  25.8174060  19.1202951  52.3740046  17.6886846
  18.3302005  52.6297575  17.2126957  19.6114198  53.1888384  17.7938887
  33.1366761  59.7145285  20.4392127  33.9584204  59.3125473  20.1574809
  33.1329164  59.6113520  21.3908243  26.9023364  59.2629329  22.5952838
  26.9667797  59.7249736  23.4311009  26.1934288  58.6326694  22.7235147
  17.4040654  52.6270537  20.1201837  17.6548693  53.5117547  20.3859413
  17.9400203  52.4475138  19.3476929  41.2272754  56.0584034  16.7877099
  40.4736462  55.4891432  16.6321103  41.3620295  56.0246698  17.7347733
  26.6171382  60.9297436  12.4631818  26.4817057  61.7748972  12.8916666
  27.1581194  61.1316714  11.6997752  23.1038721  47.0089016  29.1246173
  22.7105667  46.4555215  29.7993817  23.9204862  47.3199595  29.5152691
  20.0700779  58.4472874  13.0359743  20.5825300  59.2416125  13.1865308
  20.7223492  57.7499165  12.9693345  21.8795664  61.5638631  15.1182496
  22.0562292  62.4856595  14.9303480  22.6752497  61.2497050  15.5476876
  26.0206682  48.4246895  26.7166430  26.7616396  49.0254048  26.6370892
  26.2524605  47.6824533  26.1584472  21.1648020  53.6103262  24.9944659
  21.0501536  52.7088520  25.2951758  20.3092538  53.8566959  24.6429476
  28.2439858  61.5521003  26.5932160  27.8003712  60.7657381  26.2753065
  28.9057072  61.7400153  25.9276051  23.0026979  63.0816804  21.1192839
  23.5534404  62.9533868  20.3469833  22.1638455  63.3811693  20.7687731
  30.3421096  61.8323803  24.6213561  30.3239572  62.6532684  24.1293831
  31.2641016  61.7077878  24.8463702  26.7994150  59.3467932  25.4637070
  27.3322487  58.5856220  25.2336378  26.2708231  59.0541584  26.2061224
  29.9663845  44.4527998  20.9930711  29.6228115  45.3429640  20.9169822
  30.3342808  44.2629656  20.1300296  29.0460386  46.8232653  18.9579945
  28.5425181  46.7862788  18.1447750  29.3390993  47.7325396  19.0176601
  25.2903272  46.9071383  17.9646126  26.1556268  46.7114192  17.6052016
  25.3580781  46.6781735  18.8915483  34.9048402  57.1968964  11.4356320
  34.1277845  56.8580123  10.9911482  35.5839883  57.2021587  10.7611285
  28.1646863  58.4753925  12.9755882  27.6368225  57.7406684  12.6629119
  27.6634366  59.2528601  12.7295850  33.1439709  56.6702945  18.0922928
  32.4863384  57.3602207  18.1803057  33.9480108  57.0599377  18.4356914
  31.9545168  55.0247318  16.1426870  32.4677050  55.6577310  16.6448579
  32.6046392  54.4248513  15.7770230  29.2167542  65.0031642   8.8987541
  28.5429241  65.3063339   9.5072499  29.6033364  65.8060722   8.5492998
  28.4325999  52.4996773  18.3885210  27.5148560  52.7211720  18.2306898
  28.8486142  52.5743084  17.5296918  29.2161047  53.8988189  13.5187891
  29.9632865  54.4109586  13.2095013  29.4852636  53.5772242  14.3792284
  32.7206964  60.0053319  14.2706012  32.2669291  59.1644229  14.3271203
  32.0900931  60.6414718  14.6080793  31.6639884  50.9345305  15.5006680
  30.9262640  50.4222692  15.8316922  31.9166657  50.4945687  14.6889957
  31.1639903  61.8429816  15.2055831  31.4562878  62.4034873  14.4868196
  31.6738524  62.1358377  15.9608990  26.0372591  54.0075350  16.6024640
  26.0921201  53.0549187  16.5267117  25.2263793  54.1634790  17.0865939
  23.9764951  52.6252410  14.3615019  23.1632816  52.9246581  14.7680211
  24.4723945  52.2308099  15.0789501  26.1273529  62.6210167  16.2949284
  26.0849707  62.8471013  15.3657816  27.0436227  62.3873542  16.4435085
  29.5739162  53.0894235  23.1929913  29.9288550  53.3165708  24.0524379
  30.2211294  53.4212611  22.5707168  35.3036899  56.2112671  13.8979242
  35.1654798  56.4014266  12.9700431  34.9473118  56.9732053  14.3547293
  23.4679025  50.1970766  19.9776254  24.1078405  50.0559525  19.2799217
  22.6356556  49.9105279  19.6014856  35.3306279  58.2789198  18.9090513
  35.7642786  58.1864487  19.7573568  36.0437860  58.2546698  18.2710529
  24.2439329  59.4973196  16.0911246  25.0379928  59.0023516  15.8893821
  23.5331022  58.9691059  15.7278952  29.0634174  61.8791292  20.4423614
  29.1171196  62.4482228  21.2101330  28.1948955  62.0493177  20.0777651
  21.9432567  51.5808848  21.9248065  22.6155621  51.3726210  21.2760714
  21.1162354  51.3830934  21.4853298  36.1921828  58.3212898  21.4423399
  36.3857719  59.2258709  21.6882674  36.0922447  57.8620317  22.2761984
  27.8458139  48.2070789  23.9413726  27.1986054  48.9060738  23.8478203
  28.6159155  48.6406933  24.3089974  31.2536937  58.4719641  27.0164279
  31.1022444  58.2430193  26.0994363  31.2441617  59.4290242  27.0295625
  28.0222274  56.0451554  22.0010546  28.9514334  56.1962713  21.8279513
  27.6013304  56.1335574  21.1459192  26.8210605  60.0702218  19.7709084
  26.6821691  59.7021002  20.6435022  26.0325202  60.5849858  19.5993041
  27.4158757  65.1711315  11.1134620  27.5910513  64.6999358  11.9280243
  26.7291545  65.7977081  11.3415881  28.3715820  59.4483821  17.1597921
  28.0365653  59.4084591  18.0555571  27.8719766  58.7828537  16.6868332
  22.3460064  54.8551451  22.6850503  22.2079862  54.1231690  23.2862042
  23.2564988  54.7660351  22.4034690  24.9742365  54.5671410  22.1734182
  25.6841984  53.9264602  22.1320801  24.9311673  54.8184305  23.0960363
  32.9629144  61.5038763  25.0940761  32.9041690  60.8197984  24.4271344
  33.3648662  62.2457753  24.6421387  23.6871299  51.5536628  23.9929822
  23.1508656  51.1027366  24.6451418  23.0988008  51.6882537  23.2500286
  21.9819843  68.3200677  17.8874480  22.2216441  68.9519201  18.5653499
  21.1389039  67.9688717  18.1739840  32.9646551  59.4678347  23.3254741
  32.0773330  59.1304269  23.4481140  33.5345102  58.7361379  23.5623506
  14.6175698  55.8002439  16.6497792  15.3046738  55.4864169  16.0618808
  14.4623827  56.7043804  16.3765044  19.4210420  50.6892636  21.0782816
  19.3368609  50.0818305  20.3433226  18.5993127  51.1801654  21.0792312
  26.4947704  64.1279800  20.2915984  26.4217876  64.9334771  20.8035289
  26.0525098  64.3271766  19.4664006  26.2837484  63.3651570  13.8018806
  25.5005006  63.9073250  13.8957030  26.9830229  63.8825549  14.2013047
  29.5934134  49.1746199  16.4453011  30.0902834  48.4216162  16.1254081
  28.8221116  49.2110516  15.8796220  37.4463892  54.8786565  18.0871303
  37.4353768  55.7611280  17.7165236  36.5781271  54.5258116  17.8925840
  28.9546388  64.0266634  22.4474143  29.6674360  64.6614099  22.3750044
  28.4636417  64.1230500  21.6314145  30.6763915  57.9317886  14.0191435
  29.7420194  58.0519349  13.8496139  30.8540583  57.0290353  13.7551444
  26.1769103  51.3163582  16.1724696  25.8066890  50.7634623  16.8605601
  26.6728195  50.7121716  15.6199696  34.0636466  53.7735206  14.5541469
  34.5296918  54.6063197  14.4801771  34.5143967  53.3080187  15.2586727
  24.0058302  61.7761077  23.2679714  24.7067761  62.4097560  23.4209108
  23.5353416  62.1175809  22.5075353  32.1312697  60.1179027  11.5527621
  32.4072541  60.0035622  12.4621495  31.2617196  59.7196512  11.5139794
  32.0353129  46.1415793  18.5932370  31.1216209  46.3720020  18.7614577
  32.4646230  46.2254237  19.4446402  31.8059587  54.3305685  21.0932264
  31.1531038  54.5781592  20.4384717  32.1839967  53.5169823  20.7594741
  28.7666761  64.3665378  15.1960434  28.9489156  63.5487034  15.6588187
  29.5899747  64.5833070  14.7585324  29.1008927  63.2933563  12.4575483
  29.6296693  62.7826018  11.8445645  29.3637146  62.9776093  13.3221016
  27.8547160  55.0725496  27.5798301  27.1787798  54.9719625  28.2500676
  28.6774794  54.9164710  28.0434298  19.6026020  61.3097432  20.2010816
  20.1879456  60.5641120  20.3338721  19.4050858  61.6201389  21.0847480
  22.4564675  64.3448680  15.2173259  21.7875050  64.8294807  14.7337299
  22.3177544  64.5917900  16.1316637  14.1943674  53.8803033  18.9215260
  14.2327774  53.3466623  19.7152378  13.6883967  53.3538238  18.3026237
  26.5969943  66.3792423  21.8155917  27.1488251  66.5424045  22.5805002
  26.9376137  66.9696861  21.1435942  21.5734437  48.7267573  22.4177802
  21.6375763  49.5882404  22.0055200  21.5101557  48.1141575  21.6850160
  21.0486709  50.7990706  26.0650836  21.6758748  50.4167783  26.6788360
  20.1914628  50.5804907  26.4306529  31.4480818  61.2053681  27.6704572
  31.9920722  61.8183639  27.1759526  30.8667663  61.7633259  28.1871585
  29.7338331  64.3274399  18.8019599  29.6089470  63.5264139  18.2930545
  30.3917422  64.8220592  18.3133569  21.3546499  50.6823131  17.9796740
  20.6333085  51.2959099  17.8404213  22.1439755  51.2180896  17.9013385
  31.7973239  62.1283419  20.4299149  30.8503575  62.0088770  20.3577476
  32.1456012  61.2405917  20.5125411  24.1572812  48.0177558  24.2537391
  24.6807214  48.2639854  25.0163701  23.9385146  48.8497593  23.8340529
  28.8019672  61.9236135  16.6303502  28.6544635  60.9952842  16.8111072
  29.6273166  61.9456226  16.1460577  32.4053794  62.7464694  17.7168374
  33.3300342  62.5407555  17.5792826  32.2369098  62.4981095  18.6257716
  25.3625357  48.9591253  21.9387062  25.0222178  48.1599066  22.3407742
  24.6564364  49.2592964  21.3663895  26.0141829  46.0440565  20.3914385
  26.8367899  45.5701043  20.2693275  26.2579893  46.8231049  20.8913071
  23.5380408  52.7359686  18.2006363  23.3924989  53.0499989  19.0930645
  23.0605612  53.3544586  17.6477262  25.3976791  49.7262234  18.2487253
  25.3838360  48.8303327  17.9119551  26.1149219  49.7332898  18.8825539
  27.2502922  50.1599574  20.2940380  26.9920699  51.0816645  20.2924711
  26.7187962  49.7630009  20.9840845  32.1949110  63.2650361  13.0730466
  32.3685988  62.6996784  12.3204318  32.6878002  64.0651256  12.8909956
  18.0126070  55.2765030  21.1394025  17.4679538  56.0524838  21.2714299
  18.8905420  55.6235835  20.9813146  38.0488502  56.0286784  14.6920766
  38.4919648  55.2794109  14.2939889  37.1715012  56.0196921  14.3094498
  33.1824283  62.5817126  10.1727364  33.8775188  63.2023818  10.3914679
  33.5247433  61.7312477  10.4479742  18.7992092  54.4034927  24.0324182
  18.0573828  54.5517562  24.6188812  18.4784836  54.6643192  23.1690931
  35.0815706  60.0316831  11.7014695  35.6067030  60.3704104  10.9764015
  34.9938059  59.0963846  11.5177830  26.7435755  63.9450905  23.8304572
  27.0522881  63.7000052  24.7027271  27.5411237  64.1497543  23.3423442
  26.7656367  66.0988814  16.0609948  26.3261357  65.6065193  16.7542805
  27.5164484  65.5561782  15.8202023  19.2448706  62.2900355  16.0634576
  20.0706726  61.9904127  15.6833220  18.8942758  61.5207978  16.5124365
  24.2130239  61.6426824  18.1332250  23.5910248  60.9797529  17.8334478
  24.8835106  61.6687955  17.4505898  17.4457311  60.2086682  17.0223510
  16.6089219  59.7808856  16.8407511  17.4180956  60.4019125  17.9594301
  24.2854766  50.1208612  27.7264756  24.3342922  50.9970734  27.3442525
  24.8277281  49.5786005  27.1536399  34.7709612  60.6649735  27.0065893
  33.9805156  60.6473874  26.4670392  34.5342967  61.2038028  27.7614929
  34.8907487  57.5142201  24.3198621  34.9405492  57.3492209  25.2614144
  34.7821410  56.6469460  23.9296502  23.7743746  60.1930747  11.6090710
  23.9231866  60.8766211  10.9557383  24.5810189  60.1735837  12.1240166
  32.1811250  53.4973129  25.6357928  33.0821112  53.3579594  25.3441926
  32.2559224  53.6627584  26.5756106  26.5154055  50.8739984  24.4811114
  25.6457364  51.1673550  24.2093703  26.7513535  51.4580429  25.2018378
  36.3925684  59.9339143  24.5640643  36.1010492  60.2969123  25.4004104
  35.7797815  59.2206151  24.3853975  37.5921366  57.4992022  17.0843213
  38.4268258  57.9381827  17.2480774  37.7280495  57.0230676  16.2651459
  34.6412872  55.0571757  23.0320701  35.1166994  55.2499404  22.2239552
  33.7178438  55.1130943  22.7864085  29.2193089  47.0919601  21.9976535
  29.7375033  47.8280628  21.6723023  28.8648221  47.3983594  22.8323294
  29.4705683  43.5119883  17.5177431  29.7507437  42.8443072  18.1437858
  30.2556290  43.7048979  17.0052095  27.2739151  62.6878877   9.0802458
  26.7013118  63.3069064   8.6272930  27.8471945  63.2378239   9.6142380
  33.3414541  51.9337517  21.2649007  34.2931964  52.0335615  21.2861231
  33.1717992  51.1415786  21.7747091  31.3628921  49.0193101  21.4508407
  30.7678853  49.2998113  20.7554896  31.0778617  49.5087002  22.2225149
  30.4936411  62.9716027  10.2111040  31.4267084  62.9061589  10.4143915
  30.4059624  63.8072294   9.7525573  33.1224428  62.2881898   7.1714988
  33.0438059  61.9541761   8.0650745  33.9434095  62.7803666   7.1706460
  35.8202619  55.1543637  20.3791306  35.7878939  54.2159638  20.5650990
  36.4303243  55.2327674  19.6457131  35.9697107  51.9454681  20.4249589
  35.4536156  51.1613137  20.2379518  36.8537056  51.6173397  20.5896109
  33.6307834  45.6895696  16.3845402  33.4332656  45.3810784  17.2688734
  34.2407540  46.4157335  16.5143332  41.6379169  56.2159644  19.5197343
  42.3682557  55.9544932  20.0805046  41.0286114  55.4788366  19.5599411
  39.7194466  54.3567507  20.1171794  38.9927630  54.2223471  19.5088286
  39.3041753  54.6644335  20.9228512  27.5424642  58.0757436  27.8819167
  28.4627652  58.2536035  28.0759214  27.5074225  57.1313482  27.7298866
  20.5386715  55.9858471  20.5241948  20.7572725  56.9175579  20.5429982
  20.9512489  55.6266445  21.3096752  25.4114580  51.5591677  29.9144697
  25.3111307  52.5086034  29.8456788  25.1936122  51.2309916  29.0420767
  16.6295067  56.8898941  18.7765563  15.9358539  56.4752894  18.2635518
  17.3768058  56.9319478  18.1798982  31.2163854  47.0810186  15.8441918
  31.7163633  47.1926720  15.0356237  31.8599462  46.7771239  16.4842726
  25.2745850  54.9888815  28.7309759  24.7912932  55.7889176  28.9373648
  25.3606789  54.9996760  27.7777203  18.5431810  56.8217195  16.6531578
  18.5202498  56.9204882  15.7013461  18.8532446  57.6682346  16.9748744
  21.2019188  58.8793350  20.7678193  22.1562441  58.8477292  20.7008124
  21.0031711  58.4183974  21.5828419  21.7918570  57.4494466  23.3348990
  22.6111459  57.9438545  23.3583828  22.0655378  56.5326434  23.3066558
  34.8999702  49.8651739  16.4131285  35.6760092  50.3548192  16.6855902
  34.1747836  50.2909794  16.8703155  37.3372261  50.5779359  17.4705226
  37.9316752  50.3375095  16.7598534  37.4098845  49.8586489  18.0978762
  19.5569417  64.4212970  17.7848391  19.4223884  63.6613371  17.2186389
  19.1401479  65.1453870  17.3177179  31.5226190  55.3559754  12.9127236
  31.4661391  55.8128306  12.0734868  32.0754532  54.5950439  12.7350079
  35.3330996  51.1449486  13.7377356  35.0767930  50.7446122  14.5685563
  34.7083864  51.8593280  13.6127495  39.6443334  53.8845560  16.2448647
  39.0842892  53.9538749  17.0180209  39.0386837  53.7086544  15.5248143
  22.7138542  65.3182287  17.9966833  22.5970927  66.2627719  17.8945523
  21.8930989  65.0155848  18.3852632  32.6015077  60.0432422   8.8423426
  33.4360681  59.6113621   8.6600901  32.4399420  59.8714436   9.7700320
  32.2560969  56.5464536  10.2079765  32.2009773  56.3808807   9.2668209
  31.6307024  57.2540569  10.3641955  17.0453484  51.7832600  24.0341187
  17.6912348  51.2731554  24.5228413  16.8370635  52.5201282  24.6084613
  29.5706876  58.8513448  29.5333328  30.4398036  59.0254100  29.1719963
  29.0913628  59.6707864  29.4109057  23.7393057  65.9710549  21.2122762
  24.6420303  66.0034159  21.5289257  23.5130427  65.0411000  21.2269097
  25.4946659  64.7241535  17.8732840  24.5442290  64.7243397  17.7597213
  25.7979145  63.9774270  17.3568875  21.3850975  48.9300217  28.1316202
  22.2482437  48.5737022  28.3419526  20.8116386  48.5914112  28.8191606
  41.2299352  70.5602074  18.9378603  41.8677762  70.4408821  18.2341943
  41.1120195  71.5082917  18.9966555  38.0389058  70.5129502  18.8740127
  37.7007570  70.3970566  17.9860662  38.9078827  70.1120667  18.8541133
  33.8975874  72.3664978  14.8637018  33.3340739  72.2754915  14.0953306
  33.7828269  71.5464882  15.3439511  38.5208841  71.6664353  24.8326333
  38.5097482  71.2717152  23.9606837  38.6829481  70.9330426  25.4260104
  31.4440306  73.8616170  17.7021239  32.2361598  73.5206994  17.2867538
  31.6836956  73.9711145  18.6223392  39.4775433  76.0335946  10.1751483
  38.8263413  76.6190026   9.7885497  40.2719796  76.5642141  10.2346521
  33.4031060  73.1225083  10.5738618  34.1761936  72.5754070  10.4351493
  33.7556459  73.9869332  10.7853079  35.2416102  74.4501465  23.7805517
  34.9505968  75.3547096  23.6652183  35.8773087  74.4917993  24.4949586
  36.1672309  71.8278314  20.3706877  36.7635882  71.6034336  19.6563839
  36.2247281  71.0863059  20.9732324  35.7397338  69.2817749   8.2057067
  35.9922858  68.7599270   7.4440530  34.8021897  69.1183894   8.3083751
  40.7840621  68.2853527  16.0131811  41.5703710  67.8672951  15.6622228
  41.0479325  69.1899620  16.1813459  40.9550698  73.7226378  10.7120468
  40.3196531  73.7961004  11.4241372  40.6248104  74.3119976  10.0339547
  46.1849048  68.2228761  16.9164789  46.9174220  67.6527977  17.1502619
  45.4288403  67.8350361  17.3571295  35.4593626  71.1845855  10.4081442
  35.3429885  70.5090758  11.0762527  35.5695886  70.6978229   9.5913595
  37.8025167  70.6456002  14.1128132  37.4383375  70.1186623  14.8241053
  38.6592283  70.2554471  13.9394617  43.7074468  61.9350335  21.3759398
  43.3757793  62.8045746  21.1520613  43.1120081  61.6186619  22.0553428
  37.4430654  65.6745902   9.1089480  37.6105057  66.5426138   9.4759951
  37.2527823  65.8373183   8.1850769  40.2005988  74.1362881  20.7755311
  39.9006711  75.0387919  20.6671118  39.8557047  73.8695064  21.6276463
  33.6518469  70.5876677  16.8092015  32.7268966  70.4552892  17.0169707
  33.9002882  71.3670897  17.3061957  43.6003131  66.6545421  18.4552748
  42.6920009  66.5860829  18.1611509  43.5490727  67.1317366  19.2834573
  37.4219875  68.1303559  10.0936147  37.3019500  68.5760610  10.9321627
  36.7272464  68.4788877   9.5349685  31.0127280  70.2309951  17.6435804
  31.1419661  70.4844430  18.5575216  30.3324731  70.8237659  17.3240459
  35.1826767  80.9007201  13.7426278  35.1050797  81.8515026  13.8214759
  34.5788411  80.5553073  14.4001205  37.6743997  68.0735066  26.3987645
  36.8977331  68.6328987  26.3890510  38.3134560  68.5591849  26.9202515
  45.4664778  64.8561859  20.2330622  44.8239158  65.1494392  19.5870416
  44.9619706  64.7414780  21.0383818  43.1204941  68.6025032  10.9216481
  44.0322798  68.8352419  10.7464179  42.6114588  69.1862077  10.3591560
  35.9290369  70.8820520  25.9605612  36.6705054  71.4205564  25.6840436
  35.2227355  71.5086809  26.1177164  41.4045709  73.0249660  24.5577774
  41.8129065  72.5832071  23.8132406  40.6822971  72.4502288  24.8111967
  37.7576779  67.9622267  21.9311331  38.6037974  68.3861681  22.0745980
  37.6975417  67.3055891  22.6249894  41.7274524  73.5850851  18.3130063
  41.0983386  73.7496565  17.6106130  41.3400186  73.9992460  19.0841027
  45.6063756  74.5205289  15.6674426  44.9214794  74.9004190  15.1171460
  45.6907605  75.1300615  16.4006374  40.9076224  65.6226635  23.5892504
  40.6637156  66.3768696  23.0526780  41.1836155  66.0011983  24.4239751
  42.8614687  72.1665248  22.2669770  43.0731582  72.8097008  21.5904151
  42.8144435  71.3327564  21.7991700  40.4640916  64.7783068  19.1706342
  39.6025395  65.0764322  19.4623080  40.4903351  64.9953467  18.2387375
  37.2802486  73.3225259  15.5780148  37.7440831  73.6012962  14.7884770
  37.0159284  72.4208704  15.3953238  34.1726567  72.8696741  18.5159911
  34.7427924  73.2984009  17.8777395  34.7634679  72.5879325  19.2144097
  36.2171372  69.4448411  12.3869713  36.9195415  69.8969455  12.8543639
  35.8852000  68.8032230  13.0149606  34.6651733  68.0360168  26.7620922
  34.0350394  68.7176449  26.9956319  34.5587821  67.9243250  25.8174060
  29.9596706  67.7031964  17.6886846  29.1695760  67.9589493  17.2126957
  30.4507953  68.5180302  17.7938887  43.9760515  75.0437203  20.4392127
  44.7977959  74.6417390  20.1574809  43.9722918  74.9405437  21.3908243
  31.9111451  68.0676543  14.6470323  31.1142614  68.1795237  15.1653819
  31.6837043  68.4063195  13.7811214  37.7417119  74.5921246  22.5952838
  37.8061551  75.0541654  23.4311009  37.0328042  73.9618611  22.7235147
  28.2434409  67.9562454  20.1201837  28.4942447  68.8409464  20.3859413
  28.7793957  67.7767056  19.3476929  52.0666508  71.3875952  16.7877099
  51.3130217  70.8183350  16.6321103  52.2014049  71.3538616  17.7347733
  37.4565136  76.2589354  12.4631818  37.3210811  77.1040890  12.8916666
  37.9974949  76.4608632  11.6997752  33.9432476  62.3380934  29.1246173
  33.5499421  61.7847132  29.7993817  34.7598616  62.6491512  29.5152691
  30.9094534  73.7764792  13.0359743  31.4219054  74.5708042  13.1865308
  31.5617246  73.0791082  12.9693345  32.7189418  76.8930548  15.1182496
  32.8956047  77.8148513  14.9303480  33.5146252  76.5788967  15.5476876
  36.8600437  63.7538813  26.7166430  37.6010150  64.3545966  26.6370892
  37.0918360  63.0116451  26.1584472  32.0041775  68.9395180  24.9944659
  31.8895290  68.0380437  25.2951758  31.1486293  69.1858877  24.6429476
  39.0833613  76.8812920  26.5932160  38.6397467  76.0949299  26.2753065
  39.7450826  77.0692071  25.9276051  33.8420734  78.4108722  21.1192839
  34.3928159  78.2825785  20.3469833  33.0032210  78.7103611  20.7687731
  41.1814851  77.1615720  24.6213561  41.1633326  77.9824601  24.1293831
  42.1034771  77.0369796  24.8463702  37.6387905  74.6759850  25.4637070
  38.1716242  73.9148138  25.2336378  37.1101986  74.3833502  26.2061224
  40.8057600  59.7819916  20.9930711  40.4621869  60.6721558  20.9169822
  41.1736562  59.5921573  20.1300296  28.8743450  72.1053446  13.8119314
  29.7118672  72.5150455  13.5953021  29.0521718  71.1652888  13.7819507
  40.7707883  69.7728527   9.5003147  40.2554506  70.5433132   9.7391534
  40.4985191  69.0993663  10.1236208  38.3554994  64.6178228  14.5588385
  37.4996590  64.2285078  14.3794024  38.7681945  64.6970189  13.6988170
  39.8854140  62.1524571  18.9579945  39.3818936  62.1154706  18.1447750
  40.1784747  63.0617314  19.0176601  36.1297026  62.2363301  17.9646126
  36.9950023  62.0406109  17.6052016  36.1974535  62.0073652  18.8915483
  45.7442157  72.5260882  11.4356320  44.9671599  72.1872041  10.9911482
  46.4233638  72.5313505  10.7611285  40.5594186  67.6455619  11.3262928
  40.2544321  67.9601768  12.1773071  41.5124628  67.7237039  11.3690261
  39.0040618  73.8045842  12.9755882  38.4761979  73.0698602  12.6629119
  38.5028120  74.5820519  12.7295850  43.9833464  71.9994863  18.0922928
  43.3257138  72.6894124  18.1803057  44.7873863  72.3891295  18.4356914
  33.7359345  64.4665509  15.3362493  34.3103097  64.2440690  14.6035686
  34.3230328  64.5354203  16.0891095  42.7938922  70.3539236  16.1426870
  43.3070804  70.9869227  16.6448579  43.4440146  69.7540431  15.7770230
  34.0628932  66.4969970   9.3558378  33.2266245  66.8344656   9.6767653
  33.9233702  66.3618949   8.4185515  36.0382013  61.3406758  14.0637563
  35.3846425  61.0255775  13.4394177  35.9962487  60.7182498  14.7897386
  37.1493218  71.6226053   5.9790855  36.2420279  71.3915306   6.1782004
  37.6464250  70.8263672   6.1664836  40.0561297  80.3323560   8.8987541
  39.3822995  80.6355257   9.5072499  40.4427119  81.1352640   8.5492998
  39.2719753  67.8288691  18.3885210  38.3542315  68.0503638  18.2306898
  39.6879897  67.9035002  17.5296918  40.0554801  69.2280107  13.5187891
  40.8026620  69.7401504  13.2095013  40.3246391  68.9064159  14.3792284
  38.3281451  71.7238647  10.5014845  37.4192670  71.4397680  10.5987315
  38.3576535  72.1437726   9.6418152  43.5600719  75.3345237  14.2706012
  43.1063046  74.4936147  14.3271203  42.9294685  75.9706635  14.6080793
  42.5033638  66.2637223  15.5006680  41.7656395  65.7514609  15.8316922
  42.7560412  65.8237605  14.6889957  42.0033658  77.1721734  15.2055831
  42.2956632  77.7326791  14.4868196  42.5132278  77.4650295  15.9608990
  42.6045265  59.0413475  16.0948449  42.9104142  58.1810838  15.8074364
  43.3297870  59.6331095  15.8947443  28.8969622  69.4444162  14.4830047
  28.6994021  68.8513522  13.7581114  28.3416286  69.1396372  15.2005986
  36.8766345  69.3367268  16.6024640  36.9314955  68.3841104  16.5267117
  36.0657547  69.4926707  17.0865939  38.0257539  73.2647391   7.8402923
  37.5876969  72.5483250   7.3808561  38.7667980  73.4923506   7.2788015
  34.8158705  67.9544328  14.3615019  34.0026571  68.2538498  14.7680211
  35.3117699  67.5600017  15.0789501  36.9667283  77.9502085  16.2949284
  36.9243462  78.1762931  15.3657816  37.8829982  77.7165459  16.4435085
  40.4132917  68.4186152  23.1929913  40.7682305  68.6457625  24.0524379
  41.0605048  68.7504529  22.5707168  46.1430654  71.5404588  13.8979242
  46.0048552  71.7306184  12.9700431  45.7866873  72.3023971  14.3547293
  34.3072780  65.5262683  19.9776254  34.9472159  65.3851442  19.2799217
  33.4750310  65.2397197  19.6014856  46.1700033  73.6081115  18.9090513
  46.6036540  73.5156404  19.7573568  46.8831614  73.5838616  18.2710529
  35.0833084  74.8265114  16.0911246  35.8773682  74.3315434  15.8893821
  34.3724776  74.2982977  15.7278952  39.9027928  77.2083209  20.4423614
  39.9564951  77.7774146  21.2101330  39.0342710  77.3785094  20.0777651
  31.3915847  68.9708196  12.1670999  30.4613435  68.9092651  12.3840961
  31.4873319  68.4484148  11.3707640  31.3101396  65.4963008  14.7549241
  31.5708214  66.4108342  14.6458401  32.1318569  65.0287451  14.9045854
  32.7826322  66.9100766  21.9248065  33.4549375  66.7018128  21.2760714
  31.9556108  66.7122852  21.4853298  47.0315583  73.6504816  21.4423399
  47.2251473  74.5550626  21.6882674  46.9316201  73.1912235  22.2761984
  38.6851894  63.5362706  23.9413726  38.0379809  64.2352656  23.8478203
  39.4552909  63.9698850  24.3089974  42.0930692  73.8011559  27.0164279
  41.9416198  73.5722110  26.0994363  42.0835371  74.7582160  27.0295625
  38.8616028  71.3743471  22.0010546  39.7908088  71.5254631  21.8279513
  38.4407058  71.4627492  21.1459192  37.6604360  75.3994136  19.7709084
  37.5215446  75.0312920  20.6435022  36.8718956  75.9141775  19.5993041
  38.2552512  80.5003232  11.1134620  38.4304267  80.0291275  11.9280243
  37.5685300  81.1268998  11.3415881  39.2109575  74.7775738  17.1597921
  38.8759408  74.7376508  18.0555571  38.7113521  74.1120454  16.6868332
  33.1853819  70.1843368  22.6850503  33.0473617  69.4523607  23.2862042
  34.0958742  70.0952269  22.4034690  42.1468767  72.1231773   7.4334981
  41.5297937  71.3978601   7.3368034  41.6785255  72.8841133   7.0902055
  35.8136120  69.8963328  22.1734182  36.5235738  69.2556520  22.1320801
  35.7705428  70.1476223  23.0960363  43.8022898  76.8330681  25.0940761
  43.7435444  76.1489901  24.4271344  44.2042417  77.5749671  24.6421387
  34.5265054  66.8828546  23.9929822  33.9902411  66.4319284  24.6451418
  33.9381762  67.0174455  23.2500286  32.8213597  83.6492595  17.8874480
  33.0610195  84.2811119  18.5653499  31.9782794  83.2980635  18.1739840
  33.9367313  66.3417197   6.5556285  33.0596779  66.2205998   6.1918532
  34.4125066  65.5503275   6.3035174  43.8040306  74.7970265  23.3254741
  42.9167084  74.4596187  23.4481140  44.3738857  74.0653296  23.5623506
  25.4569453  71.1294357  16.6497792  26.1440492  70.8156087  16.0618808
  25.3017581  72.0335721  16.3765044  30.2604175  66.0184553  21.0782816
  30.1762364  65.4110223  20.3433226  29.4386881  66.5093572  21.0792312
  37.3341459  79.4571717  20.2915984  37.2611630  80.2626689  20.8035289
  36.8918852  79.6563683  19.4664006  37.1231239  78.6943487  13.8018806
  36.3398760  79.2365168  13.8957030  37.8223984  79.2117467  14.2013047
  40.4327889  64.5038117  16.4453011  40.9296588  63.7508079  16.1254081
  39.6614870  64.5402434  15.8796220  48.2857646  70.2078482  18.0871303
  48.2747522  71.0903198  17.7165236  47.4175026  69.8550033  17.8925840
  39.7940142  79.3558551  22.4474143  40.5068115  79.9906016  22.3750044
  39.3030171  79.4522417  21.6314145  41.5157669  73.2609804  14.0191435
  40.5813948  73.3811267  13.8496139  41.6934338  72.3582271  13.7551444
  37.0162857  66.6455500  16.1724696  36.6460645  66.0926540  16.8605601
  37.5121950  66.0413633  15.6199696  44.9030221  69.1027123  14.5541469
  45.3690673  69.9355115  14.4801771  45.3537721  68.6372105  15.2586727
  34.8452056  77.1052995  23.2679714  35.5461515  77.7389478  23.4209108
  34.3747171  77.4467726  22.5075353  42.9706452  75.4470945  11.5527621
  43.2466296  75.3327539  12.4621495  42.1010951  75.0488430  11.5139794
  42.8746883  61.4707710  18.5932370  41.9609963  61.7011937  18.7614577
  43.3039985  61.5546154  19.4446402  42.6453342  69.6597602  21.0932264
  41.9924792  69.9073510  20.4384717  43.0233722  68.8461741  20.7594741
  39.6060516  79.6957296  15.1960434  39.7882910  78.8778951  15.6588187
  40.4293502  79.9124988  14.7585324  39.9402681  78.6225481  12.4575483
  40.4690448  78.1117935  11.8445645  40.2030901  78.3068011  13.3221016
  38.6940915  70.4017413  27.5798301  38.0181552  70.3011543  28.2500676
  39.5168549  70.2456627  28.0434298  30.4419774  76.6389350  20.2010816
  31.0273211  75.8933038  20.3338721  30.2444613  76.9493307  21.0847480
  33.2958429  79.6740597  15.2173259  32.6268805  80.1586725  14.7337299
  33.1571299  79.9209818  16.1316637  25.0337429  69.2094950  18.9215260
  25.0721528  68.6758541  19.7152378  24.5277722  68.6830156  18.3026237
  37.4363698  81.7084341  21.8155917  37.9882006  81.8715962  22.5805002
  37.7769891  82.2988779  21.1435942  32.4128191  64.0559491  22.4177802
  32.4769518  64.9174322  22.0055200  32.3495311  63.4433492  21.6850160
  31.8880464  66.1282623  26.0650836  32.5152502  65.7459701  26.6788360
  31.0308382  65.9096825  26.4306529  42.2874572  76.5345598  27.6704572
  42.8314476  77.1475557  27.1759526  41.7061417  77.0925177  28.1871585
  28.6646006  67.9359052  11.9969191  28.9599447  67.0269731  11.9436245
  27.7634042  67.9146792  11.6750193  40.5732085  79.6566316  18.8019599
  40.4483225  78.8556056  18.2930545  41.2311176  80.1512510  18.3133569
  32.1940253  66.0115049  17.9796740  31.4726839  66.6251017  17.8404213
  32.9833509  66.5472814  17.9013385  42.6366994  77.4575337  20.4299149
  41.6897329  77.3380688  20.3577476  42.9849767  76.5697835  20.5125411
  34.9966567  63.3469475  24.2537391  35.5200969  63.5931772  25.0163701
  34.7778900  64.1789510  23.8340529  30.3933848  65.6173150  12.1208516
  30.0646554  64.7370529  11.9383622  30.7473219  65.5620819  13.0084905
  39.6413427  77.2528053  16.6303502  39.4938389  76.3244760  16.8111072
  40.4666920  77.2748143  16.1460577  33.5075671  65.9046120  12.4883994
  33.8471744  66.4332041  11.7662602  33.9547792  66.2426526  13.2642560
  43.2447549  78.0756611  17.7168374  44.1694096  77.8699473  17.5792826
  43.0762852  77.8273013  18.6257716  36.2019112  64.2883171  21.9387062
  35.8615932  63.4890984  22.3407742  35.4958118  64.5884881  21.3663895
  36.8535584  61.3732483  20.3914385  37.6761653  60.8992961  20.2693275
  37.0973647  62.1522967  20.8913071  35.4943818  64.4020741  10.6877287
  36.2152181  64.7801994  10.1841003  34.8709122  65.1209618  10.7912264
  39.6374941  65.1065890  11.6235619  39.8538556  65.9890528  11.3224447
  39.1569008  64.7152104  10.8941261  34.3774163  68.0651604  18.2006363
  34.2318743  68.3791907  19.0930645  33.8999366  68.6836504  17.6477262
  36.2370545  65.0554152  18.2487253  36.2232114  64.1595245  17.9119551
  36.9542974  65.0624815  18.8825539  38.0896676  65.4891492  20.2940380
  37.8314454  66.4108562  20.2924711  37.5581716  65.0921926  20.9840845
  43.0342865  78.5942279  13.0730466  43.2079742  78.0288701  12.3204318
  43.5271756  79.3943174  12.8909956  28.8519825  70.6056948  21.1394025
  28.3073293  71.3816756  21.2714299  29.7299175  70.9527752  20.9813146
  35.6407441  63.9368532  13.5174823  35.7623353  63.0085178  13.7165711
  35.3509484  63.9507218  12.6053139  38.5098632  61.6223442  16.6541543
  38.5320329  61.6862775  15.6993523  38.9266691  60.7827951  16.8482049
  48.8882256  71.3578702  14.6920766  49.3313402  70.6086027  14.2939889
  48.0108766  71.3488838  14.3094498  44.0218037  77.9109043  10.1727364
  44.7168942  78.5315736  10.3914679  44.3641188  77.0604395  10.4479742
  29.6385847  69.7326844  24.0324182  28.8967583  69.8809480  24.6188812
  29.3178591  69.9935110  23.1690931  45.9209460  75.3608749  11.7014695
  46.4460785  75.6996022  10.9764015  45.8331813  74.4255764  11.5177830
  37.5829509  79.2742822  23.8304572  37.8916636  79.0291969  24.7027271
  38.3804991  79.4789461  23.3423442  37.6050121  81.4280732  16.0609948
  37.1655112  80.9357111  16.7542805  38.3558238  80.8853700  15.8202023
  30.0842460  77.6192273  16.0634576  30.9100480  77.3196045  15.6833220
  29.7336512  76.8499895  16.5124365  35.0523993  76.9718741  18.1332250
  34.4304003  76.3089446  17.8334478  35.7228860  76.9979873  17.4505898
  28.2851065  75.5378599  17.0223510  27.4482974  75.1100774  16.8407511
  28.2574711  75.7311043  17.9594301  35.1248521  65.4500529  27.7264756
  35.1736676  66.3262652  27.3442525  35.6671035  64.9077922  27.1536399
  45.6103367  75.9941652  27.0065893  44.8198910  75.9765791  26.4670392
  45.3736721  76.5329946  27.7614929  45.7301242  72.8434119  24.3198621
  45.7799247  72.6784126  25.2614144  45.6215165  71.9761378  23.9296502
  34.6137500  75.5222665  11.6090710  34.7625621  76.2058129  10.9557383
  35.4203944  75.5027755  12.1240166  43.0205004  68.8265047  25.6357928
  43.9214867  68.6871512  25.3441926  43.0952979  68.9919502  26.5756106
  37.3547809  66.2031902  24.4811114  36.4851119  66.4965468  24.2093703
  37.5907290  66.7872347  25.2018378  47.2319438  75.2631060  24.5640643
  46.9404247  75.6261041  25.4004104  46.6191570  74.5498069  24.3853975
  48.4315121  72.8283940  17.0843213  49.2662012  73.2673744  17.2480774
  48.5674250  72.3522593  16.2651459  45.4806627  70.3863675  23.0320701
  45.9560748  70.5791321  22.2239552  44.5572192  70.4422861  22.7864085
  32.3690133  71.5487842  12.6151779  32.1236175  70.6450172  12.8131989
  32.5386048  71.5504993  11.6731257  40.0586843  62.4211519  21.9976535
  40.5768787  63.1572545  21.6723023  39.7041976  62.7275512  22.8323294
  31.6385781  67.2816200  10.1137941  30.9455026  67.3560555   9.4577977
  31.3937533  66.5176543  10.6359458  40.3099437  58.8411801  17.5177431
  40.5901191  58.1734990  18.1437858  41.0950044  59.0340897  17.0052095
  38.1132906  78.0170795   9.0802458  37.5406873  78.6360982   8.6272930
  38.6865699  78.5670157   9.6142380  44.1808296  67.2629435  21.2649007
  45.1325719  67.3627533  21.2861231  44.0111746  66.4707704  21.7747091
  42.2022675  64.3485018  21.4508407  41.6072607  64.6290031  20.7554896
  41.9172372  64.8378919  22.2225149  41.3330166  78.3007945  10.2111040
  42.2660839  78.2353507  10.4143915  41.2453378  79.1364212   9.7525573
  43.9618182  77.6173815   7.1714988  43.8831814  77.2833679   8.0650745
  44.7827849  78.1095583   7.1706460  46.6596373  70.4835555  20.3791306
  46.6272694  69.5451556  20.5650990  47.2696997  70.5619591  19.6457131
  38.4979704  69.3531608   6.4218510  39.4438809  69.2237816   6.4906928
  38.1193949  68.6146270   6.8987938  46.8090862  67.2746598  20.4249589
  46.2929911  66.4905055  20.2379518  47.6930810  66.9465315  20.5896109
  44.4701589  61.0187614  16.3845402  44.2726410  60.7102702  17.2688734
  45.0801294  61.7449253  16.5143332  52.4772923  71.5451562  19.5197343
  53.2076312  71.2836850  20.0805046  51.8679869  70.8080284  19.5599411
  50.5588220  69.6859424  20.1171794  49.8321384  69.5515389  19.5088286
  50.1435507  69.9936253  20.9228512  38.3818397  73.4049354  27.8819167
  39.3021406  73.5827953  28.0759214  38.3467980  72.4605399  27.7298866
  36.6822621  67.2781584   6.3573395  35.7754077  66.9814697   6.4336109
  36.9598602  66.9811402   5.4907682  27.6000562  68.5987948  16.8072442
  27.2803346  67.7453256  16.5146816  27.0533990  68.8136526  17.5630409
  31.3780469  71.3150389  20.5241948  31.5966479  72.2467496  20.5429982
  31.7906243  70.9558363  21.3096752  38.2984687  61.8218474  12.5117637
  37.4885416  61.4765559  12.8872883  38.9869104  61.5126018  13.1005248
  40.2275235  60.8996521  14.1341933  40.7806274  61.3191974  14.7931956
  40.4645322  59.9732269  14.1764889  36.2508335  66.8883594  29.9144697
  36.1505062  67.8377951  29.8456788  36.0329877  66.5601833  29.0420767
  35.4521406  64.1368519   6.4985375  36.3140570  64.4623418   6.7581192
  35.6371750  63.3500015   5.9858440  27.4688822  72.2190859  18.7765563
  26.7752293  71.8044812  18.2635518  28.2161813  72.2611396  18.1798982
  43.6054043  63.0097046  13.6420598  43.0252712  63.6681850  13.2598650
  43.3389975  62.1874390  13.2308015  42.0557609  62.4102104  15.8441918
  42.5557387  62.5218638  15.0356237  42.6993217  62.1063156  16.4842726
  36.1139605  70.3180733  28.7309759  35.6306686  71.1181093  28.9373648
  36.2000544  70.3288678  27.7777203  29.3825564  72.1509113  16.6531578
  29.3596252  72.2496800  15.7013461  29.6926201  72.9974264  16.9748744
  32.0412942  74.2085268  20.7678193  32.9956196  74.1769210  20.7008124
  31.8425466  73.7475892  21.5828419  32.6312324  72.7786384  23.3348990
  33.4505213  73.2730463  23.3583828  32.9049132  71.8618352  23.3066558
  42.3878921  65.1697136  12.6976946  41.5004776  65.4546787  12.4797141
  42.8032910  65.0090900  11.8504223  45.7393457  65.1943657  16.4131285
  46.5153847  65.6840110  16.6855902  45.0141591  65.6201711  16.8703155
  48.1766015  65.9071276  17.4705226  48.7710506  65.6667012  16.7598534
  48.2492599  65.1878407  18.0978762  30.3963171  79.7504887  17.7848391
  30.2617639  78.9905288  17.2186389  29.9795233  80.4745787  17.3177179
  41.5322134  74.9341811   6.7924966  42.2357984  75.1391813   7.4082621
  40.8084783  75.5018573   7.0574049  42.3619944  70.6851672  12.9127236
  42.3055146  71.1420224  12.0734868  42.9148287  69.9242357  12.7350079
  46.1724750  66.4741404  13.7377356  45.9161684  66.0738040  14.5685563
  45.5477618  67.1885198  13.6127495  50.4837088  69.2137477  16.2448647
  49.9236646  69.2830667  17.0180209  49.8780591  69.0378462  15.5248143
  33.5532297  80.6474204  17.9966833  33.4364681  81.5919637  17.8945523
  32.7324743  80.3447766  18.3852632  43.4408831  75.3724340   8.8423426
  44.2754435  74.9405539   8.6600901  43.2793174  75.2006354   9.7700320
  43.0954724  71.8756453  10.2079765  43.0403527  71.7100725   9.2668209
  42.4700779  72.5832486  10.3641955  27.8847239  67.1124518  24.0341187
  28.5306102  66.6023472  24.5228413  27.6764390  67.8493199  24.6084613
  40.4100631  74.1805365  29.5333328  41.2791790  74.3546018  29.1719963
  39.9307382  74.9999782  29.4109057  36.4050849  61.3764562   9.7865084
  36.3929519  62.3206402   9.9433354  37.2974271  61.1934708   9.4924545
  34.5786811  81.3002466  21.2122762  35.4814058  81.3326077  21.5289257
  34.3524181  80.3702917  21.2269097  36.3340413  80.0533453  17.8732840
  35.3836044  80.0535314  17.7597213  36.6372899  79.3066187  17.3568875
  40.2202969  57.9707339  14.0411020  39.4535364  57.4165826  14.1867703
  40.6313674  58.0429208  14.9025172  32.2244730  64.2592135  28.1316202
  33.0876191  63.9028940  28.3419526  31.6510140  63.9206030  28.8191606
  52.0693107  85.8893991  18.9378603  52.7071517  85.7700739  18.2341943
  51.9513949  86.8374835  18.9966555  48.8782813  85.8421419  18.8740127
  48.5401324  85.7262484  17.9860662  49.7472581  85.4412584  18.8541133
  44.7369629  87.6956896  14.8637018  44.1734494  87.6046833  14.0953306
  44.6222024  86.8756800  15.3439511  49.3602596  86.9956271  24.8326333
  49.3491237  86.6009069  23.9606837  49.5223235  86.2622344  25.4260104
  42.2834060  89.1908087  17.7021239  43.0755352  88.8498912  17.2867538
  42.5230711  89.3003062  18.6223392  50.3169187  91.3627863  10.1751483
  49.6657167  91.9481944   9.7885497  51.1113550  91.8934058  10.2346521
  44.2424814  88.4517001  10.5738618  45.0155690  87.9045988  10.4351493
  44.5950213  89.3161250  10.7853079  46.0809857  89.7793383  23.7805517
  45.7899723  90.6839014  23.6652183  46.7166841  89.8209910  24.4949586
  47.0066064  87.1570231  20.3706877  47.6029636  86.9326254  19.6563839
  47.0641035  86.4154977  20.9732324  46.5791092  84.6109667   8.2057067
  46.8316613  84.0891188   7.4440530  45.6415651  84.4475812   8.3083751
  51.6234375  83.6145445  16.0131811  52.4097464  83.1964868  15.6622228
  51.8873079  84.5191537  16.1813459  51.7944452  89.0518295  10.7120468
  51.1590285  89.1252922  11.4241372  51.4641859  89.6411894  10.0339547
  57.0242802  83.5520678  16.9164789  57.7567974  82.9819895  17.1502619
  56.2682158  83.1642279  17.3571295  46.2987381  86.5137773  10.4081442
  46.1823639  85.8382676  11.0762527  46.4089641  86.0270147   9.5913595
  48.6418922  85.9747920  14.1128132  48.2777129  85.4478541  14.8241053
  49.4986038  85.5846389  13.9394617  54.5468223  77.2642252  21.3759398
  54.2151547  78.1337663  21.1520613  53.9513836  76.9478536  22.0553428
  48.2824409  81.0037819   9.1089480  48.4498811  81.8718056   9.4759951
  48.0921578  81.1665101   8.1850769  51.0399742  89.4654798  20.7755311
  50.7400465  90.3679837  20.6671118  50.6950802  89.1986982  21.6276463
  44.4912224  85.9168595  16.8092015  43.5662720  85.7844809  17.0169707
  44.7396637  86.6962814  17.3061957  54.4396886  81.9837339  18.4552748
  53.5313763  81.9152747  18.1611509  54.3884482  82.4609283  19.2834573
  48.2613630  83.4595477  10.0936147  48.1413255  83.9052528  10.9321627
  47.5666218  83.8080795   9.5349685  41.8521035  85.5601869  17.6435804
  41.9813416  85.8136348  18.5575216  41.1718486  86.1529577  17.3240459
  46.0220522  96.2299119  13.7426278  45.9444552  97.1806944  13.8214759
  45.4182165  95.8844991  14.4001205  48.5137752  83.4026984  26.3987645
  47.7371086  83.9620904  26.3890510  49.1528315  83.8883767  26.9202515
  56.3058532  80.1853777  20.2330622  55.6632912  80.4786310  19.5870416
  55.8013461  80.0706697  21.0383818  53.9598696  83.9316950  10.9216481
  54.8716552  84.1644337  10.7464179  53.4508343  84.5153994  10.3591560
  46.7684124  86.2112437  25.9605612  47.5098808  86.7497481  25.6840436
  46.0621109  86.8378726  26.1177164  52.2439464  88.3541578  24.5577774
  52.6522820  87.9123988  23.8132406  51.5216725  87.7794205  24.8111967
  48.5970534  83.2914185  21.9311331  49.4431729  83.7153598  22.0745980
  48.5369171  82.6347809  22.6249894  52.5668278  88.9142769  18.3130063
  51.9377141  89.0788483  17.6106130  52.1793940  89.3284378  19.0841027
  56.4457510  89.8497206  15.6674426  55.7608548  90.2296108  15.1171460
  56.5301359  90.4592533  16.4006374  51.7469979  80.9518553  23.5892504
  51.5030911  81.7060614  23.0526780  52.0229909  81.3303901  24.4239751
  53.7008442  87.4957165  22.2669770  53.9125337  88.1388925  21.5904151
  53.6538190  86.6619482  21.7991700  51.3034671  80.1074986  19.1706342
  50.4419150  80.4056240  19.4623080  51.3297105  80.3245385  18.2387375
  48.1196240  88.6517177  15.5780148  48.5834586  88.9304880  14.7884770
  47.8553038  87.7500621  15.3953238  45.0120321  88.1988658  18.5159911
  45.5821678  88.6275927  17.8777395  45.6028433  87.9171243  19.2144097
  47.0565126  84.7740329  12.3869713  47.7589169  85.2261373  12.8543639
  46.7245755  84.1324148  13.0149606  45.5045488  83.3652086  26.7620922
  44.8744148  84.0468366  26.9956319  45.3981576  83.2535167  25.8174060
  40.7990460  83.0323882  17.6886846  40.0089514  83.2881410  17.2126957
  41.2901707  83.8472220  17.7938887  54.8154270  90.3729121  20.4392127
  55.6371713  89.9709308  20.1574809  54.8116673  90.2697355  21.3908243
  42.7505205  83.3968461  14.6470323  41.9536369  83.5087155  15.1653819
  42.5230798  83.7355113  13.7811214  48.5810873  89.9213164  22.5952838
  48.6455306  90.3833571  23.4311009  47.8721797  89.2910529  22.7235147
  39.0828163  83.2854372  20.1201837  39.3336202  84.1701382  20.3859413
  39.6187711  83.1058974  19.3476929  62.9060263  86.7167869  16.7877099
  62.1523971  86.1475267  16.6321103  63.0407804  86.6830534  17.7347733
  48.2958891  91.5881272  12.4631818  48.1604566  92.4332807  12.8916666
  48.8368703  91.7900549  11.6997752  44.7826230  77.6672851  29.1246173
  44.3893176  77.1139050  29.7993817  45.5992371  77.9783430  29.5152691
  41.7488288  89.1056710  13.0359743  42.2612809  89.8999960  13.1865308
  42.4011001  88.4083000  12.9693345  43.5583173  92.2222466  15.1182496
  43.7349801  93.1440431  14.9303480  44.3540006  91.9080885  15.5476876
  47.6994191  79.0830731  26.7166430  48.4403905  79.6837884  26.6370892
  47.9312114  78.3408368  26.1584472  42.8435529  84.2687098  24.9944659
  42.7289045  83.3672355  25.2951758  41.9880047  84.5150795  24.6429476
  49.9227367  92.2104838  26.5932160  49.4791221  91.4241217  26.2753065
  50.5844581  92.3983989  25.9276051  44.6814488  93.7400640  21.1192839
  45.2321913  93.6117703  20.3469833  43.8425964  94.0395529  20.7687731
  52.0208605  92.4907638  24.6213561  52.0027081  93.3116519  24.1293831
  52.9428525  92.3661713  24.8463702  48.4781659  90.0051768  25.4637070
  49.0109996  89.2440056  25.2336378  47.9495740  89.7125419  26.2061224
  51.6451354  75.1111834  20.9930711  51.3015624  76.0013475  20.9169822
  52.0130317  74.9213491  20.1300296  39.7137205  87.4345364  13.8119314
  40.5512427  87.8442372  13.5953021  39.8915473  86.4944806  13.7819507
  51.6101637  85.1020445   9.5003147  51.0948260  85.8725049   9.7391534
  51.3378945  84.4285581  10.1236208  49.1948748  79.9470145  14.5588385
  48.3390344  79.5576996  14.3794024  49.6075700  80.0262106  13.6988170
  50.7247895  77.4816489  18.9579945  50.2212690  77.4446624  18.1447750
  51.0178502  78.3909231  19.0176601  46.9690781  77.5655218  17.9646126
  47.8343777  77.3698027  17.6052016  47.0368290  77.3365570  18.8915483
  56.5835911  87.8552799  11.4356320  55.8065354  87.5163959  10.9911482
  57.2627392  87.8605422  10.7611285  51.3987940  82.9747537  11.3262928
  51.0938076  83.2893686  12.1773071  52.3518382  83.0528957  11.3690261
  49.8434372  89.1337760  12.9755882  49.3155734  88.3990520  12.6629119
  49.3421875  89.9112436  12.7295850  54.8227218  87.3286781  18.0922928
  54.1650893  88.0186042  18.1803057  55.6267617  87.7183212  18.4356914
  44.5753100  79.7957426  15.3362493  45.1496852  79.5732608  14.6035686
  45.1624082  79.8646121  16.0891095  53.6332677  85.6831153  16.1426870
  54.1464559  86.3161145  16.6448579  54.2833901  85.0832349  15.7770230
  44.9022687  81.8261887   9.3558378  44.0659999  82.1636574   9.6767653
  44.7627456  81.6910867   8.4185515  46.8775767  76.6698675  14.0637563
  46.2240180  76.3547692  13.4394177  46.8356242  76.0474416  14.7897386
  47.9886972  86.9517970   5.9790855  47.0814034  86.7207224   6.1782004
  48.4858004  86.1555590   6.1664836  50.8955051  95.6615477   8.8987541
  50.2216750  95.9647174   9.5072499  51.2820873  96.4644558   8.5492998
  50.1113508  83.1580609  18.3885210  49.1936069  83.3795556  18.2306898
  50.5273651  83.2326919  17.5296918  50.8948556  84.5572024  13.5187891
  51.6420374  85.0693422  13.2095013  51.1640145  84.2356077  14.3792284
  49.1675206  87.0530565  10.5014845  48.2586425  86.7689598  10.5987315
  49.1970289  87.4729644   9.6418152  54.3994473  90.6637155  14.2706012
  53.9456800  89.8228065  14.3271203  53.7688440  91.2998553  14.6080793
  53.3427393  81.5929141  15.5006680  52.6050149  81.0806527  15.8316922
  53.5954166  81.1529522  14.6889957  52.8427412  92.5013651  15.2055831
  53.1350387  93.0618708  14.4868196  53.3526033  92.7942212  15.9608990
  53.4439020  74.3705393  16.0948449  53.7497897  73.5102756  15.8074364
  54.1691625  74.9623013  15.8947443  39.7363376  84.7736079  14.4830047
  39.5387776  84.1805440  13.7581114  39.1810040  84.4688289  15.2005986
  47.7160100  84.6659186  16.6024640  47.7708710  83.7133022  16.5267117
  46.9051302  84.8218625  17.0865939  48.8651293  88.5939309   7.8402923
  48.4270723  87.8775168   7.3808561  49.6061734  88.8215424   7.2788015
  45.6552460  83.2836246  14.3615019  44.8420325  83.5830416  14.7680211
  46.1511454  82.8891934  15.0789501  47.8061038  93.2794002  16.2949284
  47.7637216  93.5054849  15.3657816  48.7223736  93.0457377  16.4435085
  51.2526671  83.7478070  23.1929913  51.6076059  83.9749543  24.0524379
  51.8998803  84.0796447  22.5707168  56.9824408  86.8696506  13.8979242
  56.8442307  87.0598102  12.9700431  56.6260627  87.6315889  14.3547293
  45.1466534  80.8554601  19.9776254  45.7865914  80.7143360  19.2799217
  44.3144065  80.5689114  19.6014856  57.0093788  88.9373033  18.9090513
  57.4430295  88.8448322  19.7573568  57.7225369  88.9130533  18.2710529
  45.9226838  90.1557031  16.0911246  46.7167437  89.6607352  15.8893821
  45.2118531  89.6274895  15.7278952  50.7421683  92.5375127  20.4423614
  50.7958705  93.1066063  21.2101330  49.8736464  92.7077012  20.0777651
  42.2309602  84.3000113  12.1670999  41.3007190  84.2384569  12.3840961
  42.3267074  83.7776066  11.3707640  42.1495151  80.8254926  14.7549241
  42.4101968  81.7400259  14.6458401  42.9712323  80.3579369  14.9045854
  43.6220076  82.2392683  21.9248065  44.2943130  82.0310045  21.2760714
  42.7949863  82.0414769  21.4853298  57.8709337  88.9796734  21.4423399
  58.0645228  89.8842544  21.6882674  57.7709956  88.5204153  22.2761984
  49.5245648  78.8654624  23.9413726  48.8773563  79.5644574  23.8478203
  50.2946664  79.2990768  24.3089974  52.9324446  89.1303476  27.0164279
  52.7809953  88.9014028  26.0994363  52.9229126  90.0874078  27.0295625
  49.7009783  86.7035389  22.0010546  50.6301843  86.8546549  21.8279513
  49.2800813  86.7919410  21.1459192  48.4998114  90.7286053  19.7709084
  48.3609200  90.3604838  20.6435022  47.7112711  91.2433693  19.5993041
  49.0946266  95.8295150  11.1134620  49.2698022  95.3583193  11.9280243
  48.4079054  96.4560916  11.3415881  50.0503329  90.1067656  17.1597921
  49.7153162  90.0668426  18.0555571  49.5507275  89.4412372  16.6868332
  44.0247573  85.5135286  22.6850503  43.8867371  84.7815525  23.2862042
  44.9352497  85.4244186  22.4034690  52.9862521  87.4523690   7.4334981
  52.3691692  86.7270519   7.3368034  52.5179010  88.2133051   7.0902055
  46.6529874  85.2255245  22.1734182  47.3629493  84.5848438  22.1320801
  46.6099182  85.4768140  23.0960363  54.6416653  92.1622599  25.0940761
  54.5829199  91.4781819  24.4271344  55.0436171  92.9041589  24.6421387
  45.3658808  82.2120463  23.9929822  44.8296165  81.7611202  24.6451418
  44.7775517  82.3466372  23.2500286  43.6607352  98.9784513  17.8874480
  43.9003950  99.6103037  18.5653499  42.8176548  98.6272553  18.1739840
  44.7761067  81.6709115   6.5556285  43.8990533  81.5497916   6.1918532
  45.2518820  80.8795193   6.3035174  54.6434060  90.1262183  23.3254741
  53.7560839  89.7888105  23.4481140  55.2132611  89.3945214  23.5623506
  36.2963207  86.4586275  16.6497792  36.9834247  86.1448005  16.0618808
  36.1411336  87.3627639  16.3765044  41.0997929  81.3476471  21.0782816
  41.0156118  80.7402141  20.3433226  40.2780636  81.8385489  21.0792312
  48.1735213  94.7863635  20.2915984  48.1005385  95.5918607  20.8035289
  47.7312607  94.9855601  19.4664006  47.9624993  94.0235405  13.8018806
  47.1792515  94.5657085  13.8957030  48.6617738  94.5409385  14.2013047
  51.2721643  79.8330035  16.4453011  51.7690343  79.0799997  16.1254081
  50.5008625  79.8694351  15.8796220  59.1251401  85.5370400  18.0871303
  59.1141277  86.4195116  17.7165236  58.2568780  85.1841951  17.8925840
  50.6333897  94.6850469  22.4474143  51.3461869  95.3197934  22.3750044
  50.1423926  94.7814335  21.6314145  52.3551424  88.5901722  14.0191435
  51.4207703  88.7103184  13.8496139  52.5328092  87.6874189  13.7551444
  47.8556612  81.9747418  16.1724696  47.4854399  81.4218458  16.8605601
  48.3515704  81.3705551  15.6199696  55.7423975  84.4319041  14.5541469
  56.2084427  85.2647033  14.4801771  56.1931476  83.9664023  15.2586727
  45.6845810  92.4344913  23.2679714  46.3855270  93.0681396  23.4209108
  45.2140925  92.7759644  22.5075353  53.8100206  90.7762862  11.5527621
  54.0860050  90.6619457  12.4621495  52.9404705  90.3780347  11.5139794
  53.7140638  76.7999628  18.5932370  52.8003718  77.0303855  18.7614577
  54.1433739  76.8838072  19.4446402  53.4847096  84.9889520  21.0932264
  52.8318547  85.2365428  20.4384717  53.8627476  84.1753658  20.7594741
  50.4454270  95.0249213  15.1960434  50.6276665  94.2070869  15.6588187
  51.2687256  95.2416905  14.7585324  50.7796436  93.9517398  12.4575483
  51.3084202  93.4409853  11.8445645  51.0424655  93.6359929  13.3221016
  49.5334669  85.7309331  27.5798301  48.8575306  85.6303460  28.2500676
  50.3562303  85.5748545  28.0434298  41.2813529  91.9681268  20.2010816
  41.8666965  91.2224956  20.3338721  41.0838367  92.2785224  21.0847480
  44.1352184  95.0032515  15.2173259  43.4662559  95.4878643  14.7337299
  43.9965053  95.2501735  16.1316637  35.8731183  84.5386868  18.9215260
  35.9115283  84.0050459  19.7152378  35.3671476  84.0122073  18.3026237
  48.2757452  97.0376259  21.8155917  48.8275760  97.2007880  22.5805002
  48.6163646  97.6280696  21.1435942  43.2521946  79.3851408  22.4177802
  43.3163272  80.2466239  22.0055200  43.1889066  78.7725410  21.6850160
  42.7274218  81.4574541  26.0650836  43.3546257  81.0751618  26.6788360
  41.8702137  81.2388743  26.4306529  53.1268327  91.8637516  27.6704572
  53.6708231  92.4767474  27.1759526  52.5455172  92.4217094  28.1871585
  39.5039761  83.2650970  11.9969191  39.7993202  82.3561648  11.9436245
  38.6027797  83.2438709  11.6750193  51.4125840  94.9858234  18.8019599
  51.2876979  94.1847974  18.2930545  52.0704931  95.4804427  18.3133569
  43.0334008  81.3406967  17.9796740  42.3120594  81.9542934  17.8404213
  43.8227264  81.8764731  17.9013385  53.4760748  92.7867254  20.4299149
  52.5291084  92.6672605  20.3577476  53.8243521  91.8989752  20.5125411
  45.8360321  78.6761393  24.2537391  46.3594723  78.9223690  25.0163701
  45.6172655  79.5081428  23.8340529  41.2327602  80.9465068  12.1208516
  40.9040309  80.0662447  11.9383622  41.5866973  80.8912736  13.0084905
  50.4807181  92.5819970  16.6303502  50.3332144  91.6536678  16.8111072
  51.3060675  92.6040061  16.1460577  44.3469426  81.2338037  12.4883994
  44.6865498  81.7623959  11.7662602  44.7941546  81.5718444  13.2642560
  54.0841303  93.4048529  17.7168374  55.0087851  93.1991390  17.5792826
  53.9156607  93.1564930  18.6257716  47.0412866  79.6175088  21.9387062
  46.7009687  78.8182901  22.3407742  46.3351873  79.9176799  21.3663895
  47.6929338  76.7024401  20.3914385  48.5155408  76.2284879  20.2693275
  47.9367402  77.4814884  20.8913071  46.3337573  79.7312659  10.6877287
  47.0545935  80.1093912  10.1841003  45.7102877  80.4501536  10.7912264
  50.4768696  80.4357808  11.6235619  50.6932310  81.3182446  11.3224447
  49.9962763  80.0444021  10.8941261  45.2167917  83.3943521  18.2006363
  45.0712498  83.7083824  19.0930645  44.7393121  84.0128422  17.6477262
  47.0764300  80.3846069  18.2487253  47.0625869  79.4887163  17.9119551
  47.7936728  80.3916733  18.8825539  48.9290431  80.8183409  20.2940380
  48.6708208  81.7400480  20.2924711  48.3975471  80.4213844  20.9840845
  53.8736619  93.9234197  13.0730466  54.0473497  93.3580619  12.3204318
  54.3665511  94.7235091  12.8909956  39.6913579  85.9348866  21.1394025
  39.1467047  86.7108674  21.2714299  40.5692929  86.2819670  20.9813146
  46.4801196  79.2660450  13.5174823  46.6017107  78.3377096  13.7165711
  46.1903238  79.2799136  12.6053139  49.3492386  76.9515360  16.6541543
  49.3714083  77.0154693  15.6993523  49.7660445  76.1119869  16.8482049
  59.7276011  86.6870620  14.6920766  60.1707157  85.9377945  14.2939889
  58.8502521  86.6780756  14.3094498  54.8611792  93.2400961  10.1727364
  55.5562696  93.8607654  10.3914679  55.2034942  92.3896312  10.4479742
  40.4779601  85.0618762  24.0324182  39.7361337  85.2101397  24.6188812
  40.1572345  85.3227028  23.1690931  56.7603215  90.6900667  11.7014695
  57.2854539  91.0287939  10.9764015  56.6725568  89.7547682  11.5177830
  48.4223264  94.6034740  23.8304572  48.7310390  94.3583887  24.7027271
  49.2198746  94.8081379  23.3423442  48.4443876  96.7572650  16.0609948
  48.0048866  96.2649028  16.7542805  49.1951993  96.2145617  15.8202023
  40.9236215  92.9484191  16.0634576  41.7494235  92.6487963  15.6833220
  40.5730267  92.1791813  16.5124365  45.8917748  92.3010659  18.1332250
  45.2697757  91.6381364  17.8334478  46.5622615  92.3271791  17.4505898
  39.1244820  90.8670517  17.0223510  38.2876728  90.4392691  16.8407511
  39.0968465  91.0602960  17.9594301  45.9642275  80.7792447  27.7264756
  46.0130431  81.6554570  27.3442525  46.5064790  80.2369840  27.1536399
  56.4497121  91.3233570  27.0065893  55.6592665  91.3057709  26.4670392
  56.2130476  91.8621864  27.7614929  56.5694996  88.1726037  24.3198621
  56.6193001  88.0076044  25.2614144  56.4608919  87.3053296  23.9296502
  45.4531255  90.8514582  11.6090710  45.6019375  91.5350047  10.9557383
  46.2597698  90.8319672  12.1240166  53.8598758  84.1556965  25.6357928
  54.7608621  84.0163429  25.3441926  53.9346733  84.3211419  26.5756106
  48.1941564  81.5323819  24.4811114  47.3244873  81.8257385  24.2093703
  48.4301044  82.1164264  25.2018378  58.0713193  90.5922978  24.5640643
  57.7798001  90.9552959  25.4004104  57.4585324  89.8789986  24.3853975
  59.2708875  88.1575858  17.0843213  60.1055767  88.5965662  17.2480774
  59.4068004  87.6814511  16.2651459  56.3200381  85.7155593  23.0320701
  56.7954503  85.9083239  22.2239552  55.3965947  85.7714778  22.7864085
  43.2083888  86.8779760  12.6151779  42.9629930  85.9742090  12.8131989
  43.3779802  86.8796910  11.6731257  50.8980598  77.7503436  21.9976535
  51.4162542  78.4864463  21.6723023  50.5435730  78.0567430  22.8323294
  42.4779535  82.6108117  10.1137941  41.7848780  82.6852472   9.4577977
  42.2331287  81.8468461  10.6359458  51.1493192  74.1703719  17.5177431
  51.4294946  73.5026908  18.1437858  51.9343799  74.3632814  17.0052095
  48.9526660  93.3462713   9.0802458  48.3800627  93.9652900   8.6272930
  49.5259454  93.8962074   9.6142380  55.0202050  82.5921353  21.2649007
  55.9719473  82.6919450  21.2861231  54.8505501  81.7999621  21.7747091
  53.0416430  79.6776936  21.4508407  52.4466362  79.9581949  20.7554896
  52.7566126  80.1670837  22.2225149  52.1723920  93.6299863  10.2111040
  53.1054593  93.5645424  10.4143915  52.0847133  94.4656130   9.7525573
  54.8011937  92.9465733   7.1714988  54.7225568  92.6125597   8.0650745
  55.6221604  93.4387501   7.1706460  57.4990128  85.8127472  20.3791306
  57.4666448  84.8743473  20.5650990  58.1090752  85.8911509  19.6457131
  49.3373459  84.6823525   6.4218510  50.2832564  84.5529734   6.4906928
  48.9587704  83.9438187   6.8987938  57.6484616  82.6038516  20.4249589
  57.1323665  81.8196973  20.2379518  58.5324565  82.2757232  20.5896109
  55.3095343  76.3479531  16.3845402  55.1120164  76.0394620  17.2688734
  55.9195049  77.0741170  16.5143332  63.3166678  86.8743479  19.5197343
  64.0470066  86.6128767  20.0805046  62.7073623  86.1372201  19.5599411
  61.3981975  85.0151342  20.1171794  60.6715138  84.8807307  19.5088286
  60.9829262  85.3228170  20.9228512  49.2212151  88.7341272  27.8819167
  50.1415161  88.9119871  28.0759214  49.1861734  87.7897317  27.7298866
  47.5216376  82.6073502   6.3573395  46.6147831  82.3106615   6.4336109
  47.7992357  82.3103320   5.4907682  38.4394316  83.9279865  16.8072442
  38.1197101  83.0745173  16.5146816  37.8927745  84.1428443  17.5630409
  42.2174224  86.6442306  20.5241948  42.4360234  87.5759414  20.5429982
  42.6299998  86.2850281  21.3096752  49.1378442  77.1510392  12.5117637
  48.3279170  76.8057476  12.8872883  49.8262859  76.8417935  13.1005248
  51.0668990  76.2288438  14.1341933  51.6200029  76.6483892  14.7931956
  51.3039076  75.3024186  14.1764889  47.0902089  82.2175512  29.9144697
  46.9898816  83.1669869  29.8456788  46.8723631  81.8893751  29.0420767
  46.2915161  79.4660437   6.4985375  47.1534325  79.7915335   6.7581192
  46.4765505  78.6791933   5.9858440  38.3082576  87.5482777  18.7765563
  37.6146048  87.1336730  18.2635518  39.0555567  87.5903313  18.1798982
  54.4447797  78.3388963  13.6420598  53.8646466  78.9973768  13.2598650
  54.1783730  77.5166308  13.2308015  52.8951363  77.7394021  15.8441918
  53.3951142  77.8510556  15.0356237  53.5386971  77.4355074  16.4842726
  46.9533359  85.6472651  28.7309759  46.4700441  86.4473011  28.9373648
  47.0394298  85.6580596  27.7777203  40.2219319  87.4801030  16.6531578
  40.1990007  87.5788718  15.7013461  40.5319955  88.3266181  16.9748744
  42.8806697  89.5377186  20.7678193  43.8349950  89.5061128  20.7008124
  42.6819220  89.0767809  21.5828419  43.4706079  88.1078302  23.3348990
  44.2898968  88.6022380  23.3583828  43.7442887  87.1910270  23.3066558
  53.2272675  80.4989054  12.6976946  52.3398530  80.7838704  12.4797141
  53.6426664  80.3382817  11.8504223  56.5787211  80.5235575  16.4131285
  57.3547601  81.0132027  16.6855902  55.8535345  80.9493629  16.8703155
  59.0159770  81.2363194  17.4705226  59.6104261  80.9958930  16.7598534
  59.0886354  80.5170325  18.0978762  41.2356926  95.0796805  17.7848391
  41.1011393  94.3197206  17.2186389  40.8188988  95.8037705  17.3177179
  52.3715889  90.2633729   6.7924966  53.0751739  90.4683731   7.4082621
  51.6478537  90.8310490   7.0574049  53.2013699  86.0143590  12.9127236
  53.1448900  86.4712141  12.0734868  53.7542041  85.2534274  12.7350079
  57.0118505  81.8033322  13.7377356  56.7555439  81.4029957  14.5685563
  56.3871373  82.5177116  13.6127495  61.3230843  84.5429395  16.2448647
  60.7630401  84.6122584  17.0180209  60.7174346  84.3670380  15.5248143
  44.3926051  95.9766122  17.9966833  44.2758436  96.9211555  17.8945523
  43.5718498  95.6739684  18.3852632  54.2802586  90.7016258   8.8423426
  55.1148190  90.2697456   8.6600901  54.1186929  90.5298271   9.7700320
  53.9348478  87.2048371  10.2079765  53.8797282  87.0392642   9.2668209
  53.3094533  87.9124404  10.3641955  38.7240993  82.4416435  24.0341187
  39.3699857  81.9315389  24.5228413  38.5158144  83.1785117  24.6084613
  51.2494385  89.5097283  29.5333328  52.1185545  89.6837935  29.1719963
  50.7701137  90.3291700  29.4109057  47.2444604  76.7056480   9.7865084
  47.2323273  77.6498320   9.9433354  48.1368025  76.5226625   9.4924545
  45.4180566  96.6294384  21.2122762  46.3207812  96.6617994  21.5289257
  45.1917936  95.6994835  21.2269097  47.1734168  95.3825370  17.8732840
  46.2229799  95.3827232  17.7597213  47.4766654  94.6358105  17.3568875
  51.0596723  73.2999257  14.0411020  50.2929119  72.7457743  14.1867703
  51.4707428  73.3721125  14.9025172  43.0638484  79.5884053  28.1316202
  43.9269946  79.2320857  28.3419526  42.4903895  79.2497947  28.8191606
  62.9086861 101.2185909  18.9378603  63.5465271 101.0992656  18.2341943
  62.7907704 102.1666753  18.9966555  59.7176567 101.1713337  18.8740127
  59.3795079 101.0554402  17.9860662  60.5866336 100.7704502  18.8541133
  55.5763383 103.0248813  14.8637018  55.0128248 102.9338750  14.0953306
  55.4615778 102.2048718  15.3439511  60.1996350 102.3248189  24.8326333
  60.1884991 101.9300987  23.9606837  60.3616990 101.5914261  25.4260104
  53.1227815 104.5200005  17.7021239  53.9149107 104.1790830  17.2867538
  53.3624465 104.6294980  18.6223392  61.1562942 106.6919781  10.1751483
  60.5050921 107.2773861   9.7885497  61.9507305 107.2225976  10.2346521
  55.0818569 103.7808918  10.5738618  55.8549445 103.2337905  10.4351493
  55.4343968 104.6453168  10.7853079  56.9203611 105.1085300  23.7805517
  56.6293477 106.0130931  23.6652183  57.5560596 105.1501828  24.4949586
  57.8459818 102.4862149  20.3706877  58.4423391 102.2618171  19.6563839
  57.9034790 101.7446894  20.9732324  57.4184847  99.9401584   8.2057067
  57.6710367  99.4183106   7.4440530  56.4809406  99.7767730   8.3083751
  62.4628130  98.9437363  16.0131811  63.2491219  98.5256786  15.6622228
  62.7266834  99.8483455  16.1813459  62.6338207 104.3810213  10.7120468
  61.9984040 104.4544840  11.4241372  62.3035613 104.9703812  10.0339547
  67.8636557  98.8812596  16.9164789  68.5961729  98.3111813  17.1502619
  67.1075912  98.4934196  17.3571295  57.1381135 101.8429690  10.4081442
  57.0217394 101.1674594  11.0762527  57.2483395 101.3562064   9.5913595
  59.4812676 101.3039837  14.1128132  59.1170884 100.7770458  14.8241053
  60.3379792 100.9138306  13.9394617  65.3861977  92.5934170  21.3759398
  65.0545302  93.4629581  21.1520613  64.7907590  92.2770454  22.0553428
  59.1218163  96.3329737   9.1089480  59.2892566  97.2009974   9.4759951
  58.9315332  96.4957019   8.1850769  61.8793497 104.7946716  20.7755311
  61.5794220 105.6971755  20.6671118  61.5344556 104.5278899  21.6276463
  55.3305978 101.2460513  16.8092015  54.4056474 101.1136727  17.0169707
  55.5790391 102.0254732  17.3061957  65.2790640  97.3129256  18.4552748
  64.3707518  97.2444665  18.1611509  65.2278236  97.7901201  19.2834573
  59.1007384  98.7887395  10.0936147  58.9807009  99.2344445  10.9321627
  58.4059973  99.1372712   9.5349685  52.6914789 100.8893786  17.6435804
  52.8207170 101.1428265  18.5575216  52.0112240 101.4821494  17.3240459
  56.8614276 111.5591036  13.7426278  56.7838306 112.5098861  13.8214759
  56.2575920 111.2136909  14.4001205  59.3531506  98.7318902  26.3987645
  58.5764840  99.2912822  26.3890510  59.9922069  99.2175685  26.9202515
  67.1452287  95.5145695  20.2330622  66.5026667  95.8078228  19.5870416
  66.6407215  95.3998615  21.0383818  64.7992450  99.2608868  10.9216481
  65.7110307  99.4936255  10.7464179  64.2902097  99.8445912  10.3591560
  57.6077878 101.5404355  25.9605612  58.3492563 102.0789399  25.6840436
  56.9014864 102.1670644  26.1177164  63.0833218 103.6833496  24.5577774
  63.4916574 103.2415906  23.8132406  62.3610480 103.1086123  24.8111967
  59.4364288  98.6206102  21.9311331  60.2825483  99.0445516  22.0745980
  59.3762926  97.9639727  22.6249894  63.4062033 104.2434686  18.3130063
  62.7770895 104.4080400  17.6106130  63.0187695 104.6576296  19.0841027
  67.2851265 105.1789124  15.6674426  66.6002303 105.5588025  15.1171460
  67.3695114 105.7884451  16.4006374  62.5863733  96.2810471  23.5892504
  62.3424665  97.0352531  23.0526780  62.8623664  96.6595818  24.4239751
  64.5402196 102.8249083  22.2669770  64.7519091 103.4680843  21.5904151
  64.4931944 101.9911400  21.7991700  62.1428425  95.4366904  19.1706342
  61.2812904  95.7348157  19.4623080  62.1690860  95.6537303  18.2387375
  58.9589995 103.9809094  15.5780148  59.4228340 104.2596797  14.7884770
  58.6946793 103.0792539  15.3953238  55.8514076 103.5280576  18.5159911
  56.4215433 103.9567844  17.8777395  56.4422187 103.2463161  19.2144097
  57.8958881 100.1032247  12.3869713  58.5982924 100.5553290  12.8543639
  57.5639509  99.4616066  13.0149606  56.3439242  98.6944003  26.7620922
  55.7137903  99.3760284  26.9956319  56.2375330  98.5827085  25.8174060
  51.6384215  98.3615799  17.6886846  50.8483269  98.6173328  17.2126957
  52.1295462  99.1764137  17.7938887  65.6548024 105.7021039  20.4392127
  66.4765468 105.3001226  20.1574809  65.6510427 105.5989273  21.3908243
  53.5898960  98.7260379  14.6470323  52.7930123  98.8379073  15.1653819
  53.3624552  99.0647031  13.7811214  59.4204628 105.2505082  22.5952838
  59.4849060 105.7125489  23.4311009  58.7115551 104.6202447  22.7235147
  49.9221918  98.6146290  20.1201837  50.1729956  99.4993300  20.3859413
  50.4581466  98.4350891  19.3476929  73.7454017 102.0459787  16.7877099
  72.9917726 101.4767185  16.6321103  73.8801558 102.0122452  17.7347733
  59.1352645 106.9173189  12.4631818  58.9998320 107.7624725  12.8916666
  59.6762458 107.1192467  11.6997752  55.6219985  92.9964769  29.1246173
  55.2286930  92.4430968  29.7993817  56.4386125  93.3075348  29.5152691
  52.5882043 104.4348627  13.0359743  53.1006563 105.2291878  13.1865308
  53.2404755 103.7374918  12.9693345  54.3976927 107.5514384  15.1182496
  54.5743556 108.4732348  14.9303480  55.1933761 107.2372803  15.5476876
  58.5387946  94.4122648  26.7166430  59.2797659  95.0129801  26.6370892
  58.7705869  93.6700286  26.1584472  53.6829284  99.5979016  24.9944659
  53.5682799  98.6964273  25.2951758  52.8273802  99.8442712  24.6429476
  60.7621122 107.5396756  26.5932160  60.3184976 106.7533134  26.2753065
  61.4238335 107.7275906  25.9276051  55.5208243 109.0692557  21.1192839
  56.0715668 108.9409621  20.3469833  54.6819719 109.3687446  20.7687731
  62.8602360 107.8199556  24.6213561  62.8420835 108.6408437  24.1293831
  63.7822280 107.6953631  24.8463702  59.3175414 105.3343685  25.4637070
  59.8503751 104.5731973  25.2336378  58.7889495 105.0417337  26.2061224
  62.4845109  90.4403751  20.9930711  62.1409378  91.3305393  20.9169822
  62.8524071  90.2505409  20.1300296  50.5530959 102.7637282  13.8119314
  51.3906181 103.1734290  13.5953021  50.7309227 101.8236724  13.7819507
  62.4495392 100.4312362   9.5003147  61.9342015 101.2016967   9.7391534
  62.1772700  99.7577498  10.1236208  60.0342503  95.2762063  14.5588385
  59.1784099  94.8868913  14.3794024  60.4469454  95.3554024  13.6988170
  61.5641649  92.8108406  18.9579945  61.0606445  92.7738542  18.1447750
  61.8572256  93.7201149  19.0176601  57.8084535  92.8947136  17.9646126
  58.6737532  92.6989945  17.6052016  57.8762044  92.6657488  18.8915483
  67.4229666 103.1844717  11.4356320  66.6459108 102.8455876  10.9911482
  68.1021147 103.1897340  10.7611285  62.2381695  98.3039454  11.3262928
  61.9331830  98.6185604  12.1773071  63.1912137  98.3820874  11.3690261
  60.6828127 104.4629678  12.9755882  60.1549488 103.7282437  12.6629119
  60.1815629 105.2404354  12.7295850  65.6620973 102.6578698  18.0922928
  65.0044647 103.3477960  18.1803057  66.4661372 103.0475130  18.4356914
  55.4146854  95.1249344  15.3362493  55.9890606  94.9024525  14.6035686
  56.0017837  95.1938038  16.0891095  64.4726431 101.0123071  16.1426870
  64.9858313 101.6453063  16.6448579  65.1227655 100.4124266  15.7770230
  55.7416441  97.1553805   9.3558378  54.9053754  97.4928492   9.6767653
  55.6021211  97.0202785   8.4185515  57.7169522  91.9990593  14.0637563
  57.0633934  91.6839610  13.4394177  57.6749996  91.3766333  14.7897386
  58.8280727 102.2809888   5.9790855  57.9207788 102.0499141   6.1782004
  59.3251759 101.4847507   6.1664836  61.7348806 110.9907395   8.8987541
  61.0610504 111.2939092   9.5072499  62.1214628 111.7936476   8.5492998
  60.9507262  98.4872526  18.3885210  60.0329824  98.7087473  18.2306898
  61.3667406  98.5618837  17.5296918  61.7342310  99.8863942  13.5187891
  62.4814129 100.3985339  13.2095013  62.0033900  99.5647995  14.3792284
  60.0068960 102.3822483  10.5014845  59.0980179 102.0981516  10.5987315
  60.0364044 102.8021561   9.6418152  65.2388228 105.9929072  14.2706012
  64.7850555 105.1519982  14.3271203  64.6082194 106.6290471  14.6080793
  64.1821147  96.9221058  15.5006680  63.4443904  96.4098445  15.8316922
  64.4347921  96.4821440  14.6889957  63.6821167 107.8305569  15.2055831
  63.9744141 108.3910626  14.4868196  64.1919787 108.1234130  15.9608990
  64.2832774  89.6997310  16.0948449  64.5891651  88.8394674  15.8074364
  65.0085379  90.2914931  15.8947443  50.5757131 100.1027997  14.4830047
  50.3781530  99.5097358  13.7581114  50.0203795  99.7980207  15.2005986
  58.5553854  99.9951103  16.6024640  58.6102464  99.0424940  16.5267117
  57.7445056 100.1510543  17.0865939  59.7045048 103.9231227   7.8402923
  59.2664478 103.2067085   7.3808561  60.4455489 104.1507341   7.2788015
  56.4946214  98.6128163  14.3615019  55.6814080  98.9122334  14.7680211
  56.9905208  98.2183852  15.0789501  58.6454792 108.6085920  16.2949284
  58.6030971 108.8346766  15.3657816  59.5617491 108.3749295  16.4435085
  62.0920426  99.0769988  23.1929913  62.4469814  99.3041461  24.0524379
  62.7392557  99.4088364  22.5707168  67.8218163 102.1988424  13.8979242
  67.6836061 102.3890020  12.9700431  67.4654382 102.9607806  14.3547293
  55.9860289  96.1846519  19.9776254  56.6259668  96.0435278  19.2799217
  55.1537819  95.8981032  19.6014856  67.8487542 104.2664951  18.9090513
  68.2824049 104.1740240  19.7573568  68.5619123 104.2422451  18.2710529
  56.7620593 105.4848949  16.0911246  57.5561191 104.9899269  15.8893821
  56.0512285 104.9566812  15.7278952  61.5815437 107.8667045  20.4423614
  61.6352460 108.4357981  21.2101330  60.7130219 108.0368930  20.0777651
  53.0703356  99.6292031  12.1670999  52.1400944  99.5676486  12.3840961
  53.1660828  99.1067984  11.3707640  52.9888905  96.1546844  14.7549241
  53.2495723  97.0692177  14.6458401  53.8106078  95.6871286  14.9045854
  54.4613831  97.5684601  21.9248065  55.1336884  97.3601963  21.2760714
  53.6343617  97.3706687  21.4853298  68.7103092 104.3088651  21.4423399
  68.9038982 105.2134462  21.6882674  68.6103710 103.8496070  22.2761984
  60.3639403  94.1946542  23.9413726  59.7167318  94.8936491  23.8478203
  61.1340418  94.6282686  24.3089974  63.7718201 104.4595394  27.0164279
  63.6203707 104.2305946  26.0994363  63.7622880 105.4165995  27.0295625
  60.5403537 102.0327307  22.0010546  61.4695597 102.1838466  21.8279513
  60.1194567 102.1211327  21.1459192  59.3391869 106.0577971  19.7709084
  59.2002954 105.6896756  20.6435022  58.5506465 106.5725611  19.5993041
  59.9340021 111.1587068  11.1134620  60.1091776 110.6875111  11.9280243
  59.2472809 111.7852834  11.3415881  60.8897084 105.4359574  17.1597921
  60.5546917 105.3960344  18.0555571  60.3901030 104.7704290  16.6868332
  54.8641328 100.8427204  22.6850503  54.7261126 100.1107443  23.2862042
  55.7746251 100.7536104  22.4034690  63.8256276 102.7815608   7.4334981
  63.2085446 102.0562436   7.3368034  63.3572764 103.5424968   7.0902055
  57.4923629 100.5547163  22.1734182  58.2023247  99.9140355  22.1320801
  57.4492937 100.8060058  23.0960363  65.4810407 107.4914517  25.0940761
  65.4222953 106.8073737  24.4271344  65.8829926 108.2333507  24.6421387
  56.2052563  97.5412381  23.9929822  55.6689920  97.0903120  24.6451418
  55.6169271  97.6758290  23.2500286  54.5001106 114.3076430  17.8874480
  54.7397704 114.9394955  18.5653499  53.6570303 113.9564470  18.1739840
  55.6154822  97.0001032   6.5556285  54.7384288  96.8789833   6.1918532
  56.0912575  96.2087111   6.3035174  65.4827815 105.4554100  23.3254741
  64.5954593 105.1180022  23.4481140  66.0526366 104.7237132  23.5623506
  47.1356962 101.7878192  16.6497792  47.8228001 101.4739922  16.0618808
  46.9805090 102.6919557  16.3765044  51.9391684  96.6768389  21.0782816
  51.8549873  96.0694058  20.3433226  51.1174390  97.1677407  21.0792312
  59.0128968 110.1155553  20.2915984  58.9399139 110.9210524  20.8035289
  58.5706361 110.3147519  19.4664006  58.8018748 109.3527323  13.8018806
  58.0186269 109.8949003  13.8957030  59.5011493 109.8701302  14.2013047
  62.1115398  95.1621952  16.4453011  62.6084097  94.4091915  16.1254081
  61.3402379  95.1986269  15.8796220  69.9645155 100.8662318  18.0871303
  69.9535031 101.7487033  17.7165236  69.0962534 100.5133869  17.8925840
  61.4727651 110.0142387  22.4474143  62.1855624 110.6489852  22.3750044
  60.9817680 110.1106253  21.6314145  63.1945178 103.9193640  14.0191435
  62.2601457 104.0395102  13.8496139  63.3721847 103.0166106  13.7551444
  58.6950366  97.3039335  16.1724696  58.3248154  96.7510376  16.8605601
  59.1909459  96.6997469  15.6199696  66.5817730  99.7610959  14.5541469
  67.0478182 100.5938950  14.4801771  67.0325230  99.2955940  15.2586727
  56.5239565 107.7636830  23.2679714  57.2249024 108.3973313  23.4209108
  56.0534680 108.1051562  22.5075353  64.6493961 106.1054780  11.5527621
  64.9253805 105.9911375  12.4621495  63.7798460 105.7072265  11.5139794
  64.5534392  92.1291546  18.5932370  63.6397472  92.3595773  18.7614577
  64.9827494  92.2129990  19.4446402  64.3240851 100.3181438  21.0932264
  63.6712301 100.5657345  20.4384717  64.7021231  99.5045576  20.7594741
  61.2848025 110.3541131  15.1960434  61.4670419 109.5362787  15.6588187
  62.1081011 110.5708823  14.7585324  61.6190190 109.2809316  12.4575483
  62.1477957 108.7701771  11.8445645  61.8818410 108.9651846  13.3221016
  60.3728424 101.0601249  27.5798301  59.6969061 100.9595378  28.2500676
  61.1956058 100.9040463  28.0434298  52.1207283 107.2973185  20.2010816
  52.7060720 106.5516873  20.3338721  51.9232121 107.6077142  21.0847480
  54.9745938 110.3324433  15.2173259  54.3056314 110.8170560  14.7337299
  54.8358808 110.5793653  16.1316637  46.7124938  99.8678786  18.9215260
  46.7509037  99.3342376  19.7152378  46.2065231  99.3413991  18.3026237
  59.1151207 112.3668176  21.8155917  59.6669515 112.5299798  22.5805002
  59.4557400 112.9572614  21.1435942  54.0915700  94.7143326  22.4177802
  54.1557027  95.5758157  22.0055200  54.0282820  94.1017328  21.6850160
  53.5667973  96.7866459  26.0650836  54.1940011  96.4043536  26.6788360
  52.7095891  96.5680661  26.4306529  63.9662081 107.1929434  27.6704572
  64.5101985 107.8059392  27.1759526  63.3848926 107.7509012  28.1871585
  50.3433515  98.5942888  11.9969191  50.6386956  97.6853566  11.9436245
  49.4421551  98.5730627  11.6750193  62.2519594 110.3150152  18.8019599
  62.1270734 109.5139892  18.2930545  62.9098685 110.8096345  18.3133569
  53.8727762  96.6698884  17.9796740  53.1514348  97.2834852  17.8404213
  54.6621018  97.2056649  17.9013385  64.3154503 108.1159172  20.4299149
  63.3684838 107.9964523  20.3577476  64.6637276 107.2281670  20.5125411
  56.6754076  94.0053311  24.2537391  57.1988478  94.2515607  25.0163701
  56.4566409  94.8373346  23.8340529  52.0721357  96.2756985  12.1208516
  51.7434063  95.3954364  11.9383622  52.4260728  96.2204654  13.0084905
  61.3200936 107.9111888  16.6303502  61.1725898 106.9828595  16.8111072
  62.1454429 107.9331979  16.1460577  55.1863180  96.5629955  12.4883994
  55.5259253  97.0915876  11.7662602  55.6335301  96.9010361  13.2642560
  64.9235058 108.7340447  17.7168374  65.8481605 108.5283308  17.5792826
  64.7550361 108.4856848  18.6257716  57.8806621  94.9467006  21.9387062
  57.5403441  94.1474819  22.3407742  57.1745627  95.2468717  21.3663895
  58.5323093  92.0316318  20.3914385  59.3549162  91.5576796  20.2693275
  58.7761156  92.8106802  20.8913071  57.1731327  95.0604577  10.6877287
  57.8939690  95.4385830  10.1841003  56.5496631  95.7793454  10.7912264
  61.3162450  95.7649726  11.6235619  61.5326065  96.6474364  11.3224447
  60.8356517  95.3735939  10.8941261  56.0561672  98.7235439  18.2006363
  55.9106252  99.0375742  19.0930645  55.5786875  99.3420339  17.6477262
  57.9158054  95.7137987  18.2487253  57.9019623  94.8179080  17.9119551
  58.6330482  95.7208651  18.8825539  59.7684185  96.1475327  20.2940380
  59.5101963  97.0692398  20.2924711  59.2369225  95.7505762  20.9840845
  64.7130374 109.2526114  13.0730466  64.8867251 108.6872537  12.3204318
  65.2059265 110.0527009  12.8909956  50.5307334 101.2640783  21.1394025
  49.9860802 102.0400591  21.2714299  51.4086684 101.6111588  20.9813146
  57.3194950  94.5952367  13.5174823  57.4410862  93.6669013  13.7165711
  57.0296993  94.6091053  12.6053139  60.1886141  92.2807278  16.6541543
  60.2107838  92.3446611  15.6993523  60.6054200  91.4411786  16.8482049
  70.5669765 102.0162537  14.6920766  71.0100911 101.2669862  14.2939889
  69.6896275 102.0072674  14.3094498  65.7005546 108.5692879  10.1727364
  66.3956451 109.1899571  10.3914679  66.0428696 107.7188230  10.4479742
  51.3173356 100.3910680  24.0324182  50.5755092 100.5393315  24.6188812
  50.9966100 100.6518945  23.1690931  67.5996969 106.0192584  11.7014695
  68.1248294 106.3579857  10.9764015  67.5119322 105.0839600  11.5177830
  59.2617018 109.9326658  23.8304572  59.5704145 109.6875805  24.7027271
  60.0592500 110.1373296  23.3423442  59.2837630 112.0864567  16.0609948
  58.8442621 111.5940946  16.7542805  60.0345747 111.5437535  15.8202023
  51.7629969 108.2776108  16.0634576  52.5887989 107.9779880  15.6833220
  51.4124021 107.5083731  16.5124365  56.7311502 107.6302577  18.1332250
  56.1091512 106.9673282  17.8334478  57.4016369 107.6563708  17.4505898
  49.9638574 106.1962435  17.0223510  49.1270483 105.7684609  16.8407511
  49.9362220 106.3894878  17.9594301  56.8036030  96.1084365  27.7264756
  56.8524185  96.9846487  27.3442525  57.3458544  95.5661758  27.1536399
  67.2890876 106.6525488  27.0065893  66.4986419 106.6349627  26.4670392
  67.0524230 107.1913782  27.7614929  67.4088751 103.5017954  24.3198621
  67.4586756 103.3367962  25.2614144  67.3002674 102.6345213  23.9296502
  56.2925009 106.1806500  11.6090710  56.4413130 106.8641964  10.9557383
  57.0991453 106.1611590  12.1240166  64.6992513  99.4848882  25.6357928
  65.6002376  99.3455347  25.3441926  64.7740487  99.6503337  26.5756106
  59.0335318  96.8615737  24.4811114  58.1638628  97.1549303  24.2093703
  59.2694799  97.4456182  25.2018378  68.9106947 105.9214896  24.5640643
  68.6191756 106.2844876  25.4004104  68.2979079 105.2081904  24.3853975
  70.1102630 103.4867776  17.0843213  70.9449521 103.9257580  17.2480774
  70.2461759 103.0106429  16.2651459  67.1594136 101.0447510  23.0320701
  67.6348257 101.2375157  22.2239552  66.2359701 101.1006696  22.7864085
  54.0477642 102.2071678  12.6151779  53.8023684 101.3034008  12.8131989
  54.2173557 102.2088828  11.6731257  61.7374352  93.0795354  21.9976535
  62.2556296  93.8156381  21.6723023  61.3829485  93.3859347  22.8323294
  53.3173290  97.9400035  10.1137941  52.6242535  98.0144390   9.4577977
  53.0725042  97.1760379  10.6359458  61.9886946  89.4995636  17.5177431
  62.2688700  88.8318826  18.1437858  62.7737553  89.6924732  17.0052095
  59.7920415 108.6754630   9.0802458  59.2194382 109.2944817   8.6272930
  60.3653208 109.2253992   9.6142380  65.8595805  97.9213270  21.2649007
  66.8113228  98.0211368  21.2861231  65.6899255  97.1291539  21.7747091
  63.8810184  95.0068854  21.4508407  63.2860116  95.2873866  20.7554896
  63.5959881  95.4962755  22.2225149  63.0117675 108.9591780  10.2111040
  63.9448348 108.8937342  10.4143915  62.9240887 109.7948047   9.7525573
  65.6405691 108.2757651   7.1714988  65.5619323 107.9417514   8.0650745
  66.4615358 108.7679419   7.1706460  68.3383882 101.1419390  20.3791306
  68.3060203 100.2035391  20.5650990  68.9484506 101.2203427  19.6457131
  60.1767213 100.0115443   6.4218510  61.1226318  99.8821651   6.4906928
  59.7981458  99.2730105   6.8987938  68.4878371  97.9330434  20.4249589
  67.9717420  97.1488890  20.2379518  69.3718319  97.6049150  20.5896109
  66.1489098  91.6771449  16.3845402  65.9513919  91.3686537  17.2688734
  66.7588803  92.4033088  16.5143332  74.1560432 102.2035397  19.5197343
  74.8863821 101.9420685  20.0805046  73.5467378 101.4664119  19.5599411
  72.2375729 100.3443260  20.1171794  71.5108893 100.2099224  19.5088286
  71.8223016 100.6520088  20.9228512  60.0605906 104.0633189  27.8819167
  60.9808915 104.2411788  28.0759214  60.0255489 103.1189235  27.7298866
  58.3610130  97.9365419   6.3573395  57.4541586  97.6398532   6.4336109
  58.6386111  97.6395238   5.4907682  49.2788071  99.2571783  16.8072442
  48.9590855  98.4037091  16.5146816  48.7321499  99.4720361  17.5630409
  53.0567978 101.9734224  20.5241948  53.2753988 102.9051332  20.5429982
  53.4693752 101.6142198  21.3096752  59.9772196  92.4802309  12.5117637
  59.1672924  92.1349394  12.8872883  60.6656613  92.1709853  13.1005248
  61.9062744  91.5580356  14.1341933  62.4593783  91.9775809  14.7931956
  62.1432831  90.6316104  14.1764889  57.9295844  97.5467430  29.9144697
  57.8292571  98.4961787  29.8456788  57.7117386  97.2185669  29.0420767
  57.1308915  94.7952355   6.4985375  57.9928079  95.1207253   6.7581192
  57.3159259  94.0083851   5.9858440  49.1476331 102.8774694  18.7765563
  48.4539802 102.4628647  18.2635518  49.8949322 102.9195231  18.1798982
  65.2841552  93.6680881  13.6420598  64.7040221  94.3265685  13.2598650
  65.0177484  92.8458226  13.2308015  63.7345118  93.0685939  15.8441918
  64.2344896  93.1802473  15.0356237  64.3780726  92.7646992  16.4842726
  57.7927114 100.9764568  28.7309759  57.3094195 101.7764929  28.9373648
  57.8788053 100.9872513  27.7777203  51.0613073 102.8092948  16.6531578
  51.0383761 102.9080635  15.7013461  51.3713710 103.6558099  16.9748744
  53.7200451 104.8669103  20.7678193  54.6743705 104.8353046  20.7008124
  53.5212975 104.4059727  21.5828419  54.3099833 103.4370219  23.3348990
  55.1292722 103.9314298  23.3583828  54.5836641 102.5202187  23.3066558
  64.0666430  95.8280972  12.6976946  63.1792285  96.1130622  12.4797141
  64.4820419  95.6674735  11.8504223  67.4180966  95.8527493  16.4131285
  68.1941356  96.3423945  16.6855902  66.6929100  96.2785547  16.8703155
  69.8553524  96.5655112  17.4705226  70.4498015  96.3250848  16.7598534
  69.9280108  95.8462242  18.0978762  52.0750680 110.4088723  17.7848391
  51.9405148 109.6489124  17.2186389  51.6582742 111.1329623  17.3177179
  63.2109643 105.5925646   6.7924966  63.9145493 105.7975649   7.4082621
  62.4872292 106.1602408   7.0574049  64.0407453 101.3435507  12.9127236
  63.9842655 101.8004059  12.0734868  64.5935796 100.5826192  12.7350079
  67.8512259  97.1325239  13.7377356  67.5949193  96.7321875  14.5685563
  67.2265127  97.8469033  13.6127495  72.1624597  99.8721313  16.2448647
  71.6024155  99.9414502  17.0180209  71.5568100  99.6962297  15.5248143
  55.2319806 111.3058040  17.9966833  55.1152190 112.2503472  17.8945523
  54.4112252 111.0031601  18.3852632  65.1196340 106.0308175   8.8423426
  65.9541944 105.5989374   8.6600901  64.9580683 105.8590189   9.7700320
  64.7742233 102.5340289  10.2079765  64.7191036 102.3684560   9.2668209
  64.1488288 103.2416322  10.3641955  49.5634748  97.7708353  24.0341187
  50.2093611  97.2607307  24.5228413  49.3551899  98.5077035  24.6084613
  62.0888140 104.8389201  29.5333328  62.9579299 105.0129853  29.1719963
  61.6094891 105.6583617  29.4109057  58.0838358  92.0348398   9.7865084
  58.0717028  92.9790238   9.9433354  58.9761780  91.8518543   9.4924545
  56.2574320 111.9586302  21.2122762  57.1601567 111.9909912  21.5289257
  56.0311690 111.0286753  21.2269097  58.0127922 110.7117288  17.8732840
  57.0623553 110.7119150  17.7597213  58.3160408 109.9650023  17.3568875
  61.8990478  88.6291174  14.0411020  61.1322873  88.0749661  14.1867703
  62.3101183  88.7013043  14.9025172  53.9032239  94.9175970  28.1316202
  54.7663700  94.5612775  28.3419526  53.3297649  94.5789865  28.8191606
  73.7480616 116.5477827  18.9378603  74.3859025 116.4284574  18.2341943
  73.6301458 117.4958670  18.9966555  70.5570322 116.5005255  18.8740127
  70.2188833 116.3846319  17.9860662  71.4260090 116.0996420  18.8541133
  66.4157138 118.3540731  14.8637018  65.8522003 118.2630668  14.0953306
  66.3009533 117.5340636  15.3439511  71.0390105 117.6540106  24.8326333
  71.0278746 117.2592905  23.9606837  71.2010744 116.9206179  25.4260104
  63.9621569 119.8491923  17.7021239  64.7542861 119.5082747  17.2867538
  64.2018220 119.9586898  18.6223392  67.7597366 120.4377218  23.7805517
  67.4687232 121.3422849  23.6652183  68.3954350 120.4793746  24.4949586
  68.6853573 117.8154067  20.3706877  69.2817145 117.5910089  19.6563839
  68.7428544 117.0738812  20.9732324  73.3021884 114.2729280  16.0131811
  74.0884973 113.8548704  15.6622228  73.5660588 115.1775373  16.1813459
  78.7030311 114.2104514  16.9164789  79.4355483 113.6403730  17.1502619
  77.9469667 113.8226114  17.3571295  70.3206431 116.6331755  14.1128132
  69.9564638 116.1062376  14.8241053  71.1773547 116.2430224  13.9394617
  76.2255731 107.9226088  21.3759398  75.8939056 108.7921499  21.1520613
  75.6301345 107.6062372  22.0553428  69.9611918 111.6621655   9.1089480
  70.1286320 112.5301891   9.4759951  69.7709087 111.8248936   8.1850769
  72.7187251 120.1238634  20.7755311  72.4187974 121.0263672  20.6671118
  72.3738311 119.8570817  21.6276463  66.1699732 116.5752431  16.8092015
  65.2450229 116.4428645  17.0169707  66.4184146 117.3546650  17.3061957
  76.1184395 112.6421174  18.4552748  75.2101272 112.5736582  18.1611509
  76.0671991 113.1193119  19.2834573  69.9401139 114.1179312  10.0936147
  69.8200764 114.5636363  10.9321627  69.2453727 114.4664630   9.5349685
  63.5308544 116.2185704  17.6435804  63.6600925 116.4720183  18.5575216
  62.8505995 116.8113412  17.3240459  70.1925261 114.0610819  26.3987645
  69.4158595 114.6204740  26.3890510  70.8315824 114.5467602  26.9202515
  77.9846041 110.8437612  20.2330622  77.3420421 111.1370145  19.5870416
  77.4800970 110.7290533  21.0383818  68.4471633 116.8696273  25.9605612
  69.1886317 117.4081317  25.6840436  67.7408618 117.4962562  26.1177164
  73.9226973 119.0125413  24.5577774  74.3310329 118.5707824  23.8132406
  73.2004234 118.4378041  24.8111967  70.2758043 113.9498020  21.9311331
  71.1219238 114.3737434  22.0745980  70.2156680 113.2931644  22.6249894
  74.2455787 119.5726604  18.3130063  73.6164650 119.7372318  17.6106130
  73.8581449 119.9868213  19.0841027  73.4257488 111.6102388  23.5892504
  73.1818420 112.3644449  23.0526780  73.7017418 111.9887736  24.4239751
  75.3795951 118.1541001  22.2669770  75.5912846 118.7972761  21.5904151
  75.3325699 117.3203317  21.7991700  72.9822180 110.7658821  19.1706342
  72.1206659 111.0640075  19.4623080  73.0084614 110.9829220  18.2387375
  69.7983749 119.3101012  15.5780148  70.2622095 119.5888715  14.7884770
  69.5340547 118.4084457  15.3953238  66.6907830 118.8572494  18.5159911
  67.2609187 119.2859762  17.8777395  67.2815942 118.5755078  19.2144097
  68.7352635 115.4324164  12.3869713  69.4376678 115.8845208  12.8543639
  68.4033264 114.7907983  13.0149606  67.1832997 114.0235921  26.7620922
  66.5531657 114.7052202  26.9956319  67.0769085 113.9119003  25.8174060
  62.4777969 113.6907717  17.6886846  61.6877023 113.9465246  17.2126957
  62.9689216 114.5056055  17.7938887  76.4941779 121.0312956  20.4392127
  77.3159222 120.6293143  20.1574809  76.4904182 120.9281190  21.3908243
  64.4292714 114.0552296  14.6470323  63.6323878 114.1670991  15.1653819
  64.2018307 114.3938948  13.7811214  70.2598382 120.5796999  22.5952838
  70.3242815 121.0417407  23.4311009  69.5509306 119.9494364  22.7235147
  60.7615672 113.9438207  20.1201837  61.0123710 114.8285217  20.3859413
  61.2975220 113.7642809  19.3476929  66.4613739 108.3256687  29.1246173
  66.0680685 107.7722885  29.7993817  67.2779880 108.6367265  29.5152691
  63.4275797 119.7640545  13.0359743  63.9400318 120.5583795  13.1865308
  64.0798510 119.0666835  12.9693345  65.2370682 122.8806301  15.1182496
  65.4137310 123.8024266  14.9303480  66.0327515 122.5664721  15.5476876
  69.3781700 109.7414566  26.7166430  70.1191414 110.3421719  26.6370892
  69.6099623 108.9992204  26.1584472  64.5223038 114.9270933  24.9944659
  64.4076554 114.0256190  25.2951758  63.6667556 115.1734630  24.6429476
  71.6014876 122.8688673  26.5932160  71.1578730 122.0825052  26.2753065
  72.2632090 123.0567824  25.9276051  66.3601997 124.3984475  21.1192839
  66.9109422 124.2701538  20.3469833  65.5213473 124.6979364  20.7687731
  73.6996114 123.1491473  24.6213561  73.6814590 123.9700354  24.1293831
  74.6216034 123.0245549  24.8463702  70.1569168 120.6635603  25.4637070
  70.6897505 119.9023891  25.2336378  69.6283249 120.3709255  26.2061224
  73.3238863 105.7695669  20.9930711  72.9803133 106.6597311  20.9169822
  73.6917826 105.5797327  20.1300296  61.3924714 118.0929199  13.8119314
  62.2299936 118.5026208  13.5953021  61.5702982 117.1528641  13.7819507
  70.8736257 110.6053981  14.5588385  70.0177853 110.2160831  14.3794024
  71.2863209 110.6845942  13.6988170  72.4035404 108.1400324  18.9579945
  71.9000199 108.1030459  18.1447750  72.6966011 109.0493067  19.0176601
  68.6478290 108.2239054  17.9646126  69.5131286 108.0281862  17.6052016
  68.7155798 107.9949406  18.8915483  73.0775449 113.6331372  11.3262928
  72.7725585 113.9477521  12.1773071  74.0305891 113.7112792  11.3690261
  76.5014727 117.9870616  18.0922928  75.8438402 118.6769877  18.1803057
  77.3055126 118.3767048  18.4356914  66.2540609 110.4541262  15.3362493
  66.8284361 110.2316443  14.6035686  66.8411591 110.5229956  16.0891095
  75.3120186 116.3414989  16.1426870  75.8252068 116.9744980  16.6448579
  75.9621410 115.7416184  15.7770230  66.5810196 112.4845723   9.3558378
  65.7447508 112.8220409   9.6767653  66.4414965 112.3494702   8.4185515
  68.5563276 107.3282511  14.0637563  67.9027689 107.0131528  13.4394177
  68.5143751 106.7058251  14.7897386  71.7901017 113.8164444  18.3885210
  70.8723578 114.0379391  18.2306898  72.2061160 113.8910755  17.5296918
  72.5736064 115.2155860  13.5187891  73.3207883 115.7277257  13.2095013
  72.8427654 114.8939913  14.3792284  75.0214902 112.2512976  15.5006680
  74.2837658 111.7390362  15.8316922  75.2741675 111.8113358  14.6889957
  75.1226529 105.0289228  16.0948449  75.4285406 104.1686591  15.8074364
  75.8479134 105.6206848  15.8947443  61.4150885 115.4319915  14.4830047
  61.2175285 114.8389275  13.7581114  60.8597549 115.1272125  15.2005986
  69.3947609 115.3243021  16.6024640  69.4496218 114.3716858  16.5267117
  68.5838811 115.4802460  17.0865939  67.3339969 113.9420081  14.3615019
  66.5207834 114.2414251  14.7680211  67.8298963 113.5475770  15.0789501
  69.4848547 123.9377838  16.2949284  69.4424725 124.1638684  15.3657816
  70.4011245 123.7041212  16.4435085  72.9314180 114.4061905  23.1929913
  73.2863568 114.6333378  24.0524379  73.5786312 114.7380282  22.5707168
  66.8254043 111.5138436  19.9776254  67.4653423 111.3727195  19.2799217
  65.9931574 111.2272950  19.6014856  78.6881297 119.5956868  18.9090513
  79.1217804 119.5032157  19.7573568  79.4012878 119.5714369  18.2710529
  67.6014347 120.8140867  16.0911246  68.3954946 120.3191187  15.8893821
  66.8906040 120.2858730  15.7278952  72.4209192 123.1958962  20.4423614
  72.4746214 123.7649899  21.2101330  71.5523973 123.3660847  20.0777651
  63.9097111 114.9583949  12.1670999  62.9794699 114.8968404  12.3840961
  64.0054583 114.4359901  11.3707640  63.8282660 111.4838761  14.7549241
  64.0889477 112.3984095  14.6458401  64.6499832 111.0163204  14.9045854
  65.3007585 112.8976519  21.9248065  65.9730639 112.6893881  21.2760714
  64.4737372 112.6998605  21.4853298  79.5496846 119.6380569  21.4423399
  79.7432737 120.5426379  21.6882674  79.4497465 119.1787988  22.2761984
  71.2033157 109.5238459  23.9413726  70.5561072 110.2228409  23.8478203
  71.9734173 109.9574603  24.3089974  74.6111955 119.7887312  27.0164279
  74.4597462 119.5597863  26.0994363  74.6016635 120.7457913  27.0295625
  71.3797292 117.3619224  22.0010546  72.3089352 117.5130384  21.8279513
  70.9588322 117.4503245  21.1459192  70.1785623 121.3869889  19.7709084
  70.0396709 121.0188673  20.6435022  69.3900220 121.9017528  19.5993041
  71.7290838 120.7651491  17.1597921  71.3940671 120.7252261  18.0555571
  71.2294784 120.0996207  16.6868332  65.7035082 116.1719122  22.6850503
  65.5654880 115.4399360  23.2862042  66.6140006 116.0828022  22.4034690
  68.3317383 115.8839081  22.1734182  69.0417002 115.2432273  22.1320801
  68.2886691 116.1351976  23.0960363  76.3204162 122.8206434  25.0940761
  76.2616708 122.1365654  24.4271344  76.7223680 123.5625424  24.6421387
  67.0446317 112.8704299  23.9929822  66.5083674 112.4195037  24.6451418
  66.4563025 113.0050208  23.2500286  65.3394861 129.6368348  17.8874480
  65.5791459 130.2686872  18.5653499  64.4964057 129.2856388  18.1739840
  76.3221569 120.7846018  23.3254741  75.4348348 120.4471940  23.4481140
  76.8920120 120.0529049  23.5623506  57.9750716 117.1170110  16.6497792
  58.6621756 116.8031840  16.0618808  57.8198845 118.0211475  16.3765044
  62.7785438 112.0060306  21.0782816  62.6943627 111.3985976  20.3433226
  61.9568145 112.4969325  21.0792312  69.8522722 125.4447470  20.2915984
  69.7792894 126.2502442  20.8035289  69.4100116 125.6439436  19.4664006
  72.9509152 110.4913870  16.4453011  73.4477852 109.7383832  16.1254081
  72.1796134 110.5278187  15.8796220  80.8038910 116.1954235  18.0871303
  80.7928786 117.0778951  17.7165236  79.9356289 115.8425786  17.8925840
  72.3121406 125.3434304  22.4474143  73.0249378 125.9781769  22.3750044
  71.8211435 125.4398170  21.6314145  74.0338933 119.2485557  14.0191435
  73.0995212 119.3687020  13.8496139  74.2115601 118.3458024  13.7551444
  69.5344121 112.6331253  16.1724696  69.1641908 112.0802293  16.8605601
  70.0303213 112.0289386  15.6199696  77.4211484 115.0902876  14.5541469
  77.8871936 115.9230868  14.4801771  77.8718985 114.6247858  15.2586727
  67.3633319 123.0928748  23.2679714  68.0642779 123.7265231  23.4209108
  66.8928434 123.4343480  22.5075353  75.3928147 107.4583463  18.5932370
  74.4791227 107.6887690  18.7614577  75.8221248 107.5421908  19.4446402
  75.1634605 115.6473355  21.0932264  74.5106056 115.8949263  20.4384717
  75.5414985 114.8337494  20.7594741  71.2122178 116.3893166  27.5798301
  70.5362815 116.2887296  28.2500676  72.0349812 116.2332380  28.0434298
  62.9601038 122.6265103  20.2010816  63.5454474 121.8808791  20.3338721
  62.7625876 122.9369060  21.0847480  65.8139693 125.6616350  15.2173259
  65.1450068 126.1462478  14.7337299  65.6752562 125.9085571  16.1316637
  57.5518692 115.1970703  18.9215260  57.5902792 114.6634294  19.7152378
  57.0458985 114.6705909  18.3026237  69.9544961 127.6960094  21.8155917
  70.5063269 127.8591715  22.5805002  70.2951155 128.2864532  21.1435942
  64.9309455 110.0435244  22.4177802  64.9950781 110.9050075  22.0055200
  64.8676575 109.4309245  21.6850160  64.4061727 112.1158376  26.0650836
  65.0333766 111.7335454  26.6788360  63.5489646 111.8972578  26.4306529
  74.8055836 122.5221351  27.6704572  75.3495740 123.1351310  27.1759526
  74.2242681 123.0800930  28.1871585  61.1827270 113.9234805  11.9969191
  61.4780711 113.0145484  11.9436245  60.2815306 113.9022545  11.6750193
  73.0913349 125.6442069  18.8019599  72.9664488 124.8431809  18.2930545
  73.7492440 126.1388263  18.3133569  64.7121517 111.9990802  17.9796740
  63.9908103 112.6126770  17.8404213  65.5014773 112.5348567  17.9013385
  75.1548257 123.4451090  20.4299149  74.2078593 123.3256441  20.3577476
  75.5031030 122.5573588  20.5125411  67.5147830 109.3345228  24.2537391
  68.0382232 109.5807525  25.0163701  67.2960164 110.1665263  23.8340529
  62.9115111 111.6048903  12.1208516  62.5827818 110.7246282  11.9383622
  63.2654482 111.5496572  13.0084905  72.1594690 123.2403806  16.6303502
  72.0119653 122.3120513  16.8111072  72.9848184 123.2623896  16.1460577
  66.0256935 111.8921873  12.4883994  66.3653007 112.4207794  11.7662602
  66.4729055 112.2302279  13.2642560  68.7200375 110.2758924  21.9387062
  68.3797196 109.4766737  22.3407742  68.0139382 110.5760634  21.3663895
  69.3716847 107.3608236  20.3914385  70.1942917 106.8868714  20.2693275
  69.6154911 108.1398720  20.8913071  68.0125082 110.3896494  10.6877287
  68.7333444 110.7677747  10.1841003  67.3890386 111.1085371  10.7912264
  72.1556205 111.0941643  11.6235619  72.3719819 111.9766281  11.3224447
  71.6750272 110.7027857  10.8941261  66.8955426 114.0527357  18.2006363
  66.7500007 114.3667660  19.0930645  66.4180630 114.6712257  17.6477262
  68.7551809 111.0429905  18.2487253  68.7413378 110.1470998  17.9119551
  69.4724237 111.0500568  18.8825539  70.6077940 111.4767245  20.2940380
  70.3495717 112.3984315  20.2924711  70.0762980 111.0797679  20.9840845
  61.3701088 116.5932701  21.1394025  60.8254556 117.3692509  21.2714299
  62.2480438 116.9403505  20.9813146  68.1588705 109.9244285  13.5174823
  68.2804616 108.9960931  13.7165711  67.8690747 109.9382971  12.6053139
  71.0279895 107.6099195  16.6541543  71.0501592 107.6738528  15.6993523
  71.4447954 106.7703704  16.8482049  62.1567110 115.7202597  24.0324182
  61.4148846 115.8685233  24.6188812  61.8359854 115.9810863  23.1690931
  70.1010773 125.2618576  23.8304572  70.4097899 125.0167722  24.7027271
  70.8986255 125.4665214  23.3423442  62.6023724 123.6068026  16.0634576
  63.4281744 123.3071798  15.6833220  62.2517776 122.8375648  16.5124365
  67.5705257 122.9594494  18.1332250  66.9485266 122.2965199  17.8334478
  68.2410124 122.9855626  17.4505898  60.8032329 121.5254352  17.0223510
  59.9664237 121.0976527  16.8407511  60.7755974 121.7186796  17.9594301
  67.6429784 111.4376282  27.7264756  67.6917940 112.3138405  27.3442525
  68.1852299 110.8953675  27.1536399  78.1284630 121.9817406  27.0065893
  77.3380174 121.9641544  26.4670392  77.8917985 122.5205699  27.7614929
  78.2482505 118.8309872  24.3198621  78.2980510 118.6659879  25.2614144
  78.1396428 117.9637131  23.9296502  75.5386267 114.8140800  25.6357928
  76.4396130 114.6747265  25.3441926  75.6134242 114.9795255  26.5756106
  69.8729073 112.1907655  24.4811114  69.0032382 112.4841221  24.2093703
  70.1088553 112.7748100  25.2018378  79.7500702 121.2506813  24.5640643
  79.4585510 121.6136794  25.4004104  79.1372833 120.5373822  24.3853975
  80.9496384 118.8159693  17.0843213  81.7843276 119.2549497  17.2480774
  81.0855513 118.3398346  16.2651459  77.9987890 116.3739428  23.0320701
  78.4742012 116.5667074  22.2239552  77.0753456 116.4298614  22.7864085
  64.8871397 117.5363595  12.6151779  64.6417439 116.6325925  12.8131989
  65.0567311 117.5380746  11.6731257  72.5768107 108.4087272  21.9976535
  73.0950050 109.1448299  21.6723023  72.2223239 108.7151265  22.8323294
  64.1567044 113.2691953  10.1137941  63.4636289 113.3436308   9.4577977
  63.9118796 112.5052296  10.6359458  72.8280701 104.8287554  17.5177431
  73.1082455 104.1610743  18.1437858  73.6131308 105.0216650  17.0052095
  76.6989559 113.2505188  21.2649007  77.6506982 113.3503286  21.2861231
  76.5293010 112.4583457  21.7747091  74.7203939 110.3360771  21.4508407
  74.1253871 110.6165784  20.7554896  74.4353635 110.8254672  22.2225149
  79.1777637 116.4711308  20.3791306  79.1453957 115.5327309  20.5650990
  79.7878261 116.5495345  19.6457131  79.3272125 113.2622351  20.4249589
  78.8111174 112.4780808  20.2379518  80.2112074 112.9341068  20.5896109
  76.9882852 107.0063367  16.3845402  76.7907673 106.6978455  17.2688734
  77.5982558 107.7325006  16.5143332  84.9954187 117.5327315  19.5197343
  85.7257575 117.2712603  20.0805046  84.3861132 116.7956037  19.5599411
  83.0769484 115.6735177  20.1171794  82.3502647 115.5391142  19.5088286
  82.6616771 115.9812006  20.9228512  70.8999660 119.3925107  27.8819167
  71.8202670 119.5703706  28.0759214  70.8649243 118.4481152  27.7298866
  60.1181825 114.5863701  16.8072442  59.7984610 113.7329009  16.5146816
  59.5715254 114.8012279  17.5630409  63.8961733 117.3026142  20.5241948
  64.1147743 118.2343249  20.5429982  64.3087507 116.9434116  21.3096752
  70.8165951 107.8094227  12.5117637  70.0066679 107.4641312  12.8872883
  71.5050368 107.5001771  13.1005248  72.7456499 106.8872274  14.1341933
  73.2987538 107.3067727  14.7931956  72.9826585 105.9608022  14.1764889
  68.7689598 112.8759347  29.9144697  68.6686325 113.8253704  29.8456788
  68.5511140 112.5477586  29.0420767  67.9702670 110.1244272   6.4985375
  68.8321834 110.4499171   6.7581192  68.1553014 109.3375768   5.9858440
  59.9870085 118.2066612  18.7765563  59.2933557 117.7920565  18.2635518
  60.7343076 118.2487149  18.1798982  76.1235306 108.9972799  13.6420598
  75.5433975 109.6557603  13.2598650  75.8571239 108.1750143  13.2308015
  74.5738872 108.3977857  15.8441918  75.0738651 108.5094391  15.0356237
  75.2174480 108.0938909  16.4842726  68.6320868 116.3056486  28.7309759
  68.1487950 117.1056846  28.9373648  68.7181807 116.3164431  27.7777203
  61.9006828 118.1384866  16.6531578  61.8777516 118.2372553  15.7013461
  62.2107464 118.9850017  16.9748744  64.5594206 120.1961021  20.7678193
  65.5137459 120.1644963  20.7008124  64.3606729 119.7351645  21.5828419
  65.1493588 118.7662137  23.3348990  65.9686477 119.2606216  23.3583828
  65.4230396 117.8494105  23.3066558  74.9060184 111.1572889  12.6976946
  74.0186039 111.4422540  12.4797141  75.3214173 110.9966653  11.8504223
  78.2574720 111.1819410  16.4131285  79.0335110 111.6715863  16.6855902
  77.5322854 111.6077464  16.8703155  80.6947279 111.8947029  17.4705226
  81.2891770 111.6542765  16.7598534  80.7673863 111.1754160  18.0978762
  62.9144435 125.7380640  17.7848391  62.7798902 124.9781041  17.2186389
  62.4976497 126.4621540  17.3177179  78.6906014 112.4617157  13.7377356
  78.4342948 112.0613793  14.5685563  78.0658882 113.1760951  13.6127495
  83.0018352 115.2013230  16.2448647  82.4417910 115.2706420  17.0180209
  82.3961855 115.0254215  15.5248143  66.0713560 126.6349957  17.9966833
  65.9545945 127.5795390  17.8945523  65.2506007 126.3323519  18.3852632
  60.4028502 113.1000271  24.0341187  61.0487366 112.5899225  24.5228413
  60.1945653 113.8368952  24.6084613  72.9281894 120.1681118  29.5333328
  73.7973054 120.3421771  29.1719963  72.4488646 120.9875535  29.4109057
  68.9232113 107.3640315   9.7865084  68.9110782 108.3082155   9.9433354
  69.8155534 107.1810461   9.4924545  67.0968075 127.2878219  21.2122762
  67.9995321 127.3201830  21.5289257  66.8705445 126.3578670  21.2269097
  68.8521677 126.0409206  17.8732840  67.9017308 126.0411067  17.7597213
  69.1554163 125.2941940  17.3568875  72.7384232 103.9583092  14.0411020
  71.9716628 103.4041579  14.1867703  73.1494937 104.0304961  14.9025172
  64.7425993 110.2467888  28.1316202  65.6057455 109.8904693  28.3419526
  64.1691404 109.9081783  28.8191606  81.0319015 129.3902737  26.3987645
  80.2552349 129.9496657  26.3890510  81.6709578 129.8759520  26.9202515
  79.2865387 132.1988190  25.9605612  80.0280072 132.7373234  25.6840436
  78.5802373 132.8254479  26.1177164  84.2651242 126.9394306  23.5892504
  84.0212174 127.6936367  23.0526780  84.5411173 127.3179654  24.4239751
  78.0226751 129.3527839  26.7620922  77.3925412 130.0344120  26.9956319
  77.9162839 129.2410920  25.8174060  71.6009427 129.2730125  20.1201837
  71.8517465 130.1577135  20.3859413  72.1368975 129.0934727  19.3476929
  77.3007494 123.6548605  29.1246173  76.9074439 123.1014803  29.7993817
  78.1173634 123.9659183  29.5152691  80.2175455 125.0706484  26.7166430
  80.9585168 125.6713637  26.6370892  80.4493378 124.3284121  26.1584472
  75.3616793 130.2562851  24.9944659  75.2470308 129.3548108  25.2951758
  74.5061311 130.5026548  24.6429476  84.1632618 121.0987587  20.9930711
  83.8196887 121.9889228  20.9169822  84.5311580 120.9089244  20.1300296
  76.1401340 128.2268436  21.9248065  76.8124393 128.0185798  21.2760714
  75.3131126 128.0290522  21.4853298  82.0426912 124.8530377  23.9413726
  81.3954827 125.5520327  23.8478203  82.8127927 125.2866521  24.3089974
  76.5428837 131.5011039  22.6850503  76.4048635 130.7691278  23.2862042
  77.4533760 131.4119939  22.4034690  77.8840072 128.1996216  23.9929822
  77.3477429 127.7486955  24.6451418  77.2956780 128.3342125  23.2500286
  73.6179193 127.3352224  21.0782816  73.5337382 126.7277894  20.3433226
  72.7961899 127.8261242  21.0792312  82.0515933 131.7185084  27.5798301
  81.3756570 131.6179213  28.2500676  82.8743567 131.5624298  28.0434298
  68.3912447 130.5262621  18.9215260  68.4296546 129.9926212  19.7152378
  67.8852740 129.9997826  18.3026237  75.7703209 125.3727161  22.4177802
  75.8344536 126.2341992  22.0055200  75.7070329 124.7601163  21.6850160
  75.2455482 127.4450294  26.0650836  75.8727520 127.0627371  26.6788360
  74.3883400 127.2264496  26.4306529  78.3541585 124.6637146  24.2537391
  78.8775987 124.9099443  25.0163701  78.1353918 125.4957181  23.8340529
  79.5594130 125.6050841  21.9387062  79.2190950 124.8058654  22.3407742
  78.8533136 125.9052552  21.3663895  80.2110602 122.6900154  20.3914385
  81.0336671 122.2160632  20.2693275  80.4548665 123.4690637  20.8913071
  72.2094843 131.9224619  21.1394025  71.6648311 132.6984427  21.2714299
  73.0874193 132.2695423  20.9813146  72.9960865 131.0494515  24.0324182
  72.2542601 131.1977150  24.6188812  72.6753609 131.3102781  23.1690931
  78.4823539 126.7668200  27.7264756  78.5311694 127.6430323  27.3442525
  79.0246053 126.2245593  27.1536399  80.7122827 127.5199572  24.4811114
  79.8426137 127.8133138  24.2093703  80.9482308 128.1040017  25.2018378
  83.4161861 123.7379189  21.9976535  83.9343805 124.4740216  21.6723023
  83.0616994 124.0443183  22.8323294  81.7393415 134.7217025  27.8819167
  82.6596424 134.8995624  28.0759214  81.7042998 133.7773070  27.7298866
  79.6083353 128.2051265  29.9144697  79.5080080 129.1545622  29.8456788
  79.3904895 127.8769504  29.0420767  79.4714623 131.6348404  28.7309759
  78.9881704 132.4348764  28.9373648  79.5575562 131.6456349  27.7777203
  71.2422257 128.4292188  24.0341187  71.8881120 127.9191142  24.5228413
  71.0339408 129.1660870  24.6084613  83.7675649 135.4973036  29.5333328
  84.6366808 135.6713688  29.1719963  83.2882400 136.3167453  29.4109057
  75.5819748 125.5759806  28.1316202  76.4451209 125.2196610  28.3419526
  75.0085158 125.2373700  28.8191606  38.5208843  48.6726476  11.5571640
  38.5097483  48.2779274  10.6852143  38.6829482  47.9392549  12.1505411
  35.2416104  51.4563588  10.5050823  34.9505970  52.3609219  10.3897490
  35.8773088  51.4980115  11.2194893  37.6743998  45.0797189  13.1232952
  36.8977332  45.6391109  13.1135816  38.3134561  45.5653972  13.6447822
  35.9290371  47.8882642  12.6850919  36.6705055  48.4267686  12.4085742
  35.2227356  48.5148931  12.8422471  41.4045710  50.0311783  11.2823080
  41.8129066  49.5894193  10.5377713  40.6822972  49.4564410  11.5357273
  43.9760516  52.0499326   7.1637434  44.7977960  51.6479513   6.8820115
  43.9722919  51.9467560   8.1153550  39.0833614  53.8875043  13.3177467
  38.6397468  53.1011422  12.9998371  39.7450827  54.0754194  12.6521357
  41.1814852  54.1677843  11.3458868  41.1633327  54.9886724  10.8539137
  42.1034772  54.0431918  11.5709009  37.6387906  51.6821972  12.1882376
  38.1716243  50.9210261  11.9581684  37.1101987  51.3895624  12.9306531
  47.0315584  50.6566938   8.1668706  47.2251474  51.5612749   8.4127980
  46.9316202  50.1974358   9.0007291  42.0930693  50.8073681  13.7409586
  41.9416199  50.5784233  12.8239670  42.0835372  51.7644283  13.7540931
  43.8022900  53.8392804  11.8186068  43.7435446  53.1552024  11.1516651
  44.2042418  54.5811794  11.3666694  43.8040307  51.8032388  10.0500048
  42.9167086  51.4658309  10.1726447  44.3738858  51.0715419  10.2868813
  39.7940144  56.3620674   9.1719450  40.5068116  56.9968139   9.0995351
  39.3030172  56.4584540   8.3559451  34.8452057  54.1115118   9.9925020
  35.5461517  54.7451600  10.1454415  34.3747172  54.4529849   9.2320660
  38.6940916  47.4079536  14.3043608  38.0181553  47.3073665  14.9745983
  39.5168550  47.2518750  14.7679605  37.4363699  58.7146463   8.5401224
  37.9882007  58.8778085   9.3050309  37.7769893  59.3050901   7.8681249
  42.2874573  53.5407721  14.3949878  42.8314477  54.1537679  13.9004833
  41.7061418  54.0987299  14.9116891  42.6366995  54.4637459   7.1544456
  41.6897330  54.3442810   7.0822783  42.9849768  53.5759957   7.2370717
  37.5829510  56.2804945  10.5549878  37.8916637  56.0354092  11.4272578
  38.3804992  56.4851584  10.0668748  45.6103368  53.0003775  13.7311199
  44.8198912  52.9827914  13.1915699  45.3736722  53.5392069  14.4860236
  45.7301243  49.8496241  11.0443928  45.7799248  49.6846249  11.9859451
  45.6215166  48.9823500  10.6541809  43.0205005  45.8327169  12.3603235
  43.9214868  45.6933634  12.0687233  43.0952980  45.9981624  13.3001412
  47.2319440  52.2693183  11.2885950  46.9404248  52.6323164  12.1249411
  46.6191571  51.5560191  11.1099282  45.4806628  47.3925798   9.7566008
  45.9560750  47.5853444   8.9484859  44.5572193  47.4484983   9.5109391
  52.4772925  48.5513684   6.2442650  53.2076313  48.2898972   6.8050353
  51.8679870  47.8142406   6.2844718  38.3818398  50.4111476  14.6064474
  39.3021408  50.5890075  14.8004520  38.3467981  49.4667522  14.4544173
  36.2508336  43.8945717  16.6390004  36.1505063  44.8440074  16.5702095
  36.0329878  43.5663956  15.7666074  36.1139606  47.3242856  15.4555066
  35.6306688  48.1243216  15.6618955  36.2000545  47.3350801  14.5022510
  40.4100632  51.1867488  16.2578635  41.2791792  51.3608140  15.8965270
  39.9307384  52.0061905  16.1354364  34.5786812  58.3064589   7.9368068
  35.4814059  58.3388199   8.2534563  34.3524182  57.3765040   7.9514404
  52.0693108  62.8956114   5.6623909  52.7071518  62.7762861   4.9587249
  51.9513951  63.8436958   5.7211861  48.8782814  62.8483542   5.5985434
  48.5401326  62.7324607   4.7105969  49.7472582  62.4474707   5.5786440
  44.7369630  64.7019018   1.5882325  44.1734495  64.6108955   0.8198613
  44.6222025  63.8818923   2.0684817  49.3602597  64.0018394  11.5571640
  49.3491238  63.6071192  10.6852143  49.5223237  63.2684466  12.1505411
  42.2834062  66.1970210   4.4266545  43.0755354  65.8561035   4.0112845
  42.5230712  66.3065185   5.3468699  50.3169189  68.3689986  -3.1003210
  49.6657168  68.9544066  -3.4869196  51.1113551  68.8996181  -3.0408173
  46.0809858  66.7855505  10.5050823  45.7899724  67.6901136  10.3897490
  46.7166843  66.8272033  11.2194893  47.0066065  64.1632354   7.0952183
  47.6029637  63.9388376   6.3809146  47.0641037  63.4217099   7.6977631
  51.6234376  60.6207568   2.7377117  52.4097466  60.2026991   2.3867534
  51.8873081  61.5253660   2.9058766  51.7944454  66.0580418  -2.5634226
  51.1590287  66.1315044  -1.8513321  51.4641860  66.6474017  -3.2415147
  57.0242803  60.5582801   3.6410096  57.7567975  59.9882018   3.8747925
  56.2682159  60.1704401   4.0816601  48.6418923  62.9810042   0.8373438
  48.2777130  62.4540663   1.5486360  49.4986039  62.5908511   0.6639924
  54.5468224  54.2704375   8.1004704  54.2151549  55.1399786   7.8765919
  53.9513837  53.9540659   8.7798735  51.0399743  66.4716921   7.5000617
  50.7400466  67.3741960   7.3916424  50.6950803  66.2049104   8.3521770
  44.4912225  62.9230718   3.5337322  43.5662721  62.7906932   3.7415013
  44.7396638  63.7024937   4.0307264  54.4396887  58.9899461   5.1798055
  53.5313764  58.9214870   4.8856815  54.3884483  59.4671406   6.0079880
  41.8521036  62.5663991   4.3681111  41.9813417  62.8198470   5.2820522
  41.1718487  63.1591699   4.0485766  46.0220523  73.2361241   0.4671585
  45.9444553  74.1869066   0.5460065  45.4182167  72.8907114   1.1246511
  48.5137753  60.4089107  13.1232952  47.7371087  60.9683027  13.1135816
  49.1528316  60.8945890  13.6447822  56.3058534  57.1915900   6.9575928
  55.6632914  57.4848433   6.3115723  55.8013462  57.0768820   7.7629125
  53.9598697  60.9379073  -2.3538212  54.8716553  61.1706459  -2.5290515
  53.4508344  61.5216117  -2.9163134  46.7684125  63.2174560  12.6850919
  47.5098810  63.7559604  12.4085742  46.0621111  63.8440849  12.8422471
  52.2439465  65.3603701  11.2823080  52.6522821  64.9186111  10.5377713
  51.5216726  64.7856328  11.5357273  48.5970535  60.2976307   8.6556637
  49.4431730  60.7215721   8.7991286  48.5369173  59.6409932   9.3495200
  52.5668279  65.9204891   5.0375369  51.9377142  66.0850605   4.3351437
  52.1793942  66.3346501   5.8086333  56.4457511  66.8559329   2.3919733
  55.7608550  67.2358230   1.8416766  56.5301361  67.4654656   3.1251681
  51.7469980  57.9580676  10.3137811  51.5030912  58.7122736   9.7772087
  52.0229911  58.3366023  11.1485058  53.7008443  64.5019288   8.9915076
  53.9125338  65.1451048   8.3149458  53.6538191  63.6681605   8.5237007
  51.3034672  57.1137109   5.8951649  50.4419151  57.4118362   6.1868386
  51.3297107  57.3307508   4.9632681  48.1196241  65.6579299   2.3025454
  48.5834587  65.9367002   1.5130077  47.8553039  64.7562744   2.1198545
  45.0120322  65.2050781   5.2405218  45.5821679  65.6338049   4.6022702
  45.6028434  64.9233365   5.9389403  45.5045489  60.3714208  13.4866229
  44.8744150  61.0530489  13.7201626  45.3981577  60.2597290  12.5419367
  40.7990461  60.0386004   4.4132153  40.0089515  60.2943533   3.9372264
  41.2901709  60.8534342   4.5184193  54.8154271  67.3791243   7.1637434
  55.6371715  66.9771431   6.8820115  54.8116674  67.2759478   8.1153550
  48.5810874  66.9275287   9.3198144  48.6455307  67.3895694  10.1556316
  47.8721798  66.2972652   9.4480454  39.0828164  60.2916495   6.8447144
  39.3336203  61.1763505   7.1104720  39.6187713  60.1121096   6.0722236
  62.9060264  63.7229992   3.5122405  62.1523972  63.1537390   3.3566410
  63.0407805  63.6892656   4.4593040  48.2958892  68.5943394  -0.8122875
  48.1604567  69.4394930  -0.3838028  48.8368705  68.7962672  -1.5756942
  44.7826232  54.6734974  15.8491480  44.3893177  54.1201173  16.5239124
  45.5992372  54.9845553  16.2397997  41.7488289  66.1118832  -0.2394950
  42.2612810  66.9062083  -0.0889386  42.4011002  65.4145123  -0.3061349
  43.5583174  69.2284589   1.8427803  43.7349802  70.1502553   1.6548787
  44.3540008  68.9143008   2.2722183  47.6994193  56.0892853  13.4411736
  48.4403906  56.6900006  13.3616199  47.9312115  55.3470491  12.8829779
  42.8435531  61.2749220  11.7189966  42.7289046  60.3734478  12.0197065
  41.9880048  61.5212917  11.3674783  49.9227368  69.2166961  13.3177467
  49.4791223  68.4303339  12.9998371  50.5844582  69.4046111  12.6521357
  44.6814490  70.7462762   7.8438145  45.2321915  70.6179826   7.0715139
  43.8425965  71.0457651   7.4933038  52.0208606  69.4969761  11.3458868
  52.0027082  70.3178642  10.8539137  52.9428527  69.3723836  11.5709009
  48.4781661  67.0113890  12.1882376  49.0109997  66.2502178  11.9581684
  47.9495742  66.7187542  12.9306531  51.6451356  52.1173956   7.7176018
  51.3015625  53.0075598   7.6415129  52.0130318  51.9275614   6.8545603
  50.7247896  54.4878611   5.6825251  50.2212692  54.4508746   4.8693057
  51.0178503  55.3971354   5.7421908  46.9690782  54.5717341   4.6891433
  47.8343779  54.3760150   4.3297323  47.0368291  54.3427693   5.6160790
  56.5835912  64.8614922  -1.8398373  55.8065355  64.5226081  -2.2843211
  57.2627393  64.8667545  -2.5143408  49.8434373  66.1399883  -0.2998812
  49.3155735  65.4052642  -0.6125574  49.3421876  66.9174559  -0.5458843
  54.8227219  64.3348903   4.8168235  54.1650894  65.0248165   4.9048363
  55.6267619  64.7245335   5.1602221  53.6332678  62.6893276   2.8672176
  54.1464560  63.3223268   3.3693886  54.2833902  62.0894471   2.5015536
  50.8955052  72.6677600  -4.3767152  50.2216751  72.9709297  -3.7682195
  51.2820874  73.4706680  -4.7261695  50.1113509  60.1642731   5.1130517
  49.1936070  60.3857678   4.9552205  50.5273653  60.2389042   4.2542224
  50.8948557  61.5634147   0.2433197  51.6420376  62.0755544  -0.0659681
  51.1640146  61.2418200   1.1037591  54.3994474  67.6699277   0.9951319
  53.9456801  66.8290187   1.0516510  53.7688441  68.3060676   1.3326099
  53.3427394  58.5991263   2.2251986  52.6050151  58.0868649   2.5562229
  53.5954167  58.1591645   1.4135263  52.8427414  69.5075774   1.9301137
  53.1350388  70.0680831   1.2113503  53.3526034  69.8004335   2.6854296
  47.7160101  61.6721308   3.3269947  47.7708711  60.7195145   3.2512423
  46.9051303  61.8280747   3.8111245  45.6552461  60.2898368   1.0860326
  44.8420326  60.5892539   1.4925518  46.1511455  59.8954057   1.8034808
  47.8061039  70.2856125   3.0194590  47.7637218  70.5116971   2.0903122
  48.7223738  70.0519500   3.1680392  51.2526673  60.7540193   9.9175220
  51.6076060  60.9811666  10.7769685  51.8998804  61.0858569   9.2952475
  56.9824410  63.8758628   0.6224549  56.8442308  64.0660224  -0.3054262
  56.6260628  64.6378011   1.0792600  45.1466536  57.8616724   6.7021561
  45.7865915  57.7205483   6.0044524  44.3144066  57.5751237   6.3260163
  57.0093789  65.9435155   5.6335820  57.4430296  65.8510445   6.4818874
  57.7225370  65.9192656   4.9955836  45.9226840  67.1619154   2.8156553
  46.7167438  66.6669474   2.6139128  45.2118532  66.6337017   2.4524259
  50.7421684  69.5437250   7.1668921  50.7958706  70.1128186   7.9346637
  49.8736465  69.7139135   6.8022958  43.6220077  59.2454806   8.6493372
  44.2943131  59.0372168   8.0006021  42.7949864  59.0476892   8.2098604
  57.8709339  65.9858856   8.1668706  58.0645229  66.8904667   8.4127980
  57.7709957  65.5266275   9.0007291  49.5245649  55.8716747  10.6659033
  48.8773564  56.5706696  10.5723509  50.2946665  56.3052891  11.0335281
  52.9324447  66.1365599  13.7409586  52.7809954  65.9076151  12.8239670
  52.9229127  67.0936200  13.7540931  49.7009784  63.7097512   8.7255853
  50.6301844  63.8608671   8.5524820  49.2800814  63.7981532   7.8704499
  48.4998116  67.7348176   6.4954390  48.3609201  67.3666960   7.3680328
  47.7112712  68.2495815   6.3238348  49.0946268  72.8357273  -2.1620073
  49.2698023  72.3645316  -1.3474451  48.4079056  73.4623039  -1.9338813
  50.0503331  67.1129779   3.8843228  49.7153163  67.0730549   4.7800878
  49.5507276  66.4474495   3.4113638  44.0247575  62.5197409   9.4095809
  43.8867373  61.7877648  10.0107348  44.9352498  62.4306309   9.1279997
  46.6529875  62.2317368   8.8979489  47.3629494  61.5910560   8.8566107
  46.6099184  62.4830263   9.8205670  54.6416654  69.1684721  11.8186068
  54.5829200  68.4843942  11.1516651  55.0436172  69.9103711  11.3666694
  45.3658809  59.2182586  10.7175128  44.8296166  58.7673324  11.3696725
  44.7775518  59.3528495   9.9745593  43.6607353  75.9846635   4.6119787
  43.9003951  76.6165159   5.2898805  42.8176549  75.6334675   4.8985146
  54.6434061  67.1324305  10.0500048  53.7560840  66.7950227  10.1726447
  55.2132612  66.4007337  10.2868813  36.2963208  63.4648397   3.3743099
  36.9834248  63.1510127   2.7864114  36.1411337  64.3689762   3.1010350
  41.0997931  58.3538594   7.8028123  41.0156119  57.7464263   7.0678533
  40.2780637  58.8447612   7.8037619  48.1735215  71.7925758   7.0161291
  48.1005386  72.5980729   7.5280595  47.7312608  71.9917724   6.1909312
  47.9624994  71.0297528   0.5264112  47.1792516  71.5719208   0.6202337
  48.6617739  71.5471507   0.9258354  51.2721644  56.8392157   3.1698318
  51.7690344  56.0862120   2.8499388  50.5008626  56.8756474   2.6041527
  59.1251402  62.5432523   4.8116609  59.1141278  63.4257238   4.4410542
  58.2568781  62.1904074   4.6171146  50.6333898  71.6912592   9.1719450
  51.3461870  72.3260057   9.0995351  50.1423927  71.7876458   8.3559451
  52.3551425  65.5963844   0.7436741  51.4207704  65.7165307   0.5741446
  52.5328094  64.6936311   0.4796751  47.8556613  58.9809540   2.8970002
  47.4854401  58.4280581   3.5850908  48.3515706  58.3767674   2.3445002
  55.7423976  61.4381164   1.2786775  56.2084429  62.2709155   1.2047078
  56.1931477  60.9726145   1.9832034  45.6845812  69.4407035   9.9925020
  46.3855271  70.0743518  10.1454415  45.2140927  69.7821767   9.2320660
  53.8100208  67.7824985  -1.7227073  54.0860051  67.6681580  -0.8133199
  52.9404706  67.3842470  -1.7614900  53.7140639  53.8061751   5.3177677
  52.8003719  54.0365978   5.4859884  54.1433741  53.8900195   6.1691709
  53.4847098  61.9951643   7.8177571  52.8318548  62.2427550   7.1630023
  53.8627478  61.1815781   7.4840048  50.4454272  72.0311336   1.9205741
  50.6276666  71.2132992   2.3833493  51.2687258  72.2479028   1.4830631
  50.7796437  70.9579521  -0.8179211  51.3084204  70.4471976  -1.4309048
  51.0424657  70.6422051   0.0466323  49.5334671  62.7371454  14.3043608
  48.8575308  62.6365583  14.9745983  50.3562305  62.5810667  14.7679605
  41.2813530  68.9743390   6.9256123  41.8666967  68.2287078   7.0584027
  41.0838368  69.2847347   7.8092787  44.1352185  72.0094638   1.9418565
  43.4662560  72.4940765   1.4582605  43.9965055  72.2563858   2.8561944
  35.8731185  61.5448990   5.6460566  35.9115284  61.0112581   6.4397684
  35.3671477  61.0184196   5.0271543  48.2757454  74.0438381   8.5401224
  48.8275762  74.2070003   9.3050309  48.6163647  74.6342819   7.8681249
  43.2521947  56.3913531   9.1423108  43.3163273  57.2528362   8.7300506
  43.1889067  55.7787533   8.4095467  42.7274219  58.4636664  12.7896143
  43.3546258  58.0813741  13.4033667  41.8702138  58.2450865  13.1551835
  53.1268328  68.8699639  14.3949878  53.6708232  69.4829597  13.9004833
  52.5455173  69.4279217  14.9116891  51.4125841  71.9920357   5.5264906
  51.2876980  71.1910097   5.0175851  52.0704932  72.4866550   5.0378876
  43.0334009  58.3469089   4.7042046  42.3120595  58.9605057   4.5649519
  43.8227265  58.8826854   4.6258692  53.4760749  69.7929377   7.1544456
  52.5291085  69.6734728   7.0822783  53.8243522  68.9051875   7.2370717
  45.8360323  55.6823516  10.9782698  46.3594724  55.9285812  11.7409007
  45.6172656  56.5143551  10.5585835  50.4807183  69.5882093   3.3548808
  50.3332145  68.6598800   3.5356378  51.3060676  69.6102184   2.8705883
  54.0841304  70.4110652   4.4413681  55.0087852  70.2053513   4.3038132
  53.9156608  70.1627053   5.3503023  47.0412868  56.6237211   8.6632368
  46.7009688  55.8245024   9.0653048  46.3351874  56.9238922   8.0909202
  47.6929339  53.7086523   7.1159691  48.5155409  53.2347001   6.9938582
  47.9367403  54.4877007   7.6158378  45.2167918  60.4005644   4.9251670
  45.0712499  60.7145947   5.8175952  44.7393122  61.0190544   4.3722569
  47.0764301  57.3908192   4.9732560  47.0625870  56.4949285   4.6364858
  47.7936729  57.3978856   5.6070846  48.9290432  57.8245532   7.0185687
  48.6708210  58.7462603   7.0170018  48.3975472  57.4275967   7.7086151
  53.8736621  70.9296319  -0.2024228  54.0473498  70.3642742  -0.9550375
  54.3665512  71.7297214  -0.3844738  39.6913580  62.9410988   7.8639331
  39.1467048  63.7170796   7.9959606  40.5692930  63.2881793   7.7058453
  59.7276012  63.6932742   1.4166072  60.1707158  62.9440067   1.0185195
  58.8502522  63.6842878   1.0339804  54.8611793  70.2463084  -3.1027329
  55.5562698  70.8669776  -2.8840015  55.2034943  69.3958435  -2.8274951
  40.4779602  62.0680885  10.7569488  39.7361338  62.2163520  11.3434119
  40.1572347  62.3289150   9.8936238  56.7603216  67.6962789  -1.5739998
  57.2854540  68.0350062  -2.2990678  56.6725569  66.7609804  -1.7576864
  48.4223265  71.6096863  10.5549878  48.7310391  71.3646010  11.4272578
  49.2198747  71.8143501  10.0668748  48.4443877  73.7634772   2.7855255
  48.0048867  73.2711151   3.4788111  49.1951994  73.2207740   2.5447330
  40.9236216  69.9546313   2.7879883  41.7494236  69.6550085   2.4078526
  40.5730268  69.1853936   3.2369671  45.8917749  69.3072781   4.8577556
  45.2697758  68.6443486   4.5579784  46.5622616  69.3333913   4.1751204
  39.1244821  67.8732640   3.7468816  38.2876729  67.4454814   3.5652818
  39.0968466  68.0665083   4.6839608  45.9642277  57.7854569  14.4510062
  46.0130432  58.6616692  14.0687832  46.5064791  57.2431963  13.8781706
  56.4497122  68.3295693  13.7311199  55.6592666  68.3119832  13.1915699
  56.2130477  68.8683986  14.4860236  56.5694997  65.1788159  11.0443928
  56.6193002  65.0138167  11.9859451  56.4608921  64.3115418  10.6541809
  45.4531256  67.8576705  -1.6663983  45.6019376  68.5412169  -2.3197310
  46.2597699  67.8381795  -1.1514527  53.8598760  61.1619087  12.3603235
  54.7608622  61.0225552  12.0687233  53.9346734  61.3273542  13.3001412
  48.1941565  58.5385942  11.2056421  47.3244874  58.8319508  10.9339010
  48.4301045  59.1226387  11.9263685  58.0713194  67.5985101  11.2885950
  57.7798002  67.9615081  12.1249411  57.4585325  66.8852109  11.1099282
  59.2708876  65.1637980   3.8088520  60.1055768  65.6027784   3.9726080
  59.4068005  64.6876634   2.9896766  56.3200382  62.7217715   9.7566008
  56.7954504  62.9145362   8.9484859  55.3965948  62.7776901   9.5109391
  50.8980599  54.7565559   8.7221841  51.4162543  55.4926586   8.3968330
  50.5435732  55.0629552   9.5568601  51.1493193  51.1765841   4.2422738
  51.4294947  50.5089030   4.8683165  51.9343800  51.3694937   3.7297402
  48.9526662  70.3524835  -4.1952236  48.3800629  70.9715022  -4.6481764
  49.5259455  70.9024197  -3.6612314  55.0202051  59.5983475   7.9894313
  55.9719474  59.6981573   8.0106537  54.8505502  58.8061744   8.4992398
  53.0416431  56.6839059   8.1753714  52.4466363  56.9644071   7.4800203
  52.7566128  57.1732959   8.9470455  52.1723921  70.6361985  -3.0643653
  53.1054595  70.5707547  -2.8610778  52.0847134  71.4718252  -3.5229121
  54.8011938  69.9527856  -6.1039706  54.7225570  69.6187719  -5.2103948
  55.6221605  70.4449624  -6.1048233  57.4990129  62.8189595   7.1036613
  57.4666449  61.8805596   7.2896297  58.1090753  62.8973632   6.3702438
  57.6484618  59.6100638   7.1494896  57.1323666  58.8259095   6.9624825
  58.5324566  59.2819355   7.3141415  55.3095345  53.3541654   3.1090709
  55.1120166  53.0456742   3.9934041  55.9195050  54.0803293   3.2388639
  63.3166679  63.8805602   6.2442650  64.0470068  63.6190890   6.8050353
  62.7073625  63.1434324   6.2844718  61.3981976  62.0213464   6.8417101
  60.6715140  61.8869429   6.2333592  60.9829263  62.3290293   7.6473819
  49.2212153  65.7403394  14.6064474  50.1415162  65.9181993  14.8004520
  49.1861736  64.7959440  14.4544173  42.2174225  63.6504429   7.2487255
  42.4360235  64.5821537   7.2675289  42.6299999  63.2912403   8.0342059
  47.0902090  59.2237635  16.6390004  46.9898817  60.1731992  16.5702095
  46.8723633  58.8955873  15.7666074  38.3082578  64.5544899   5.5010870
  37.6146049  64.1398852   4.9880824  39.0555569  64.5965436   4.9044289
  52.8951365  54.7456144   2.5687225  53.3951143  54.8572678   1.7601543
  53.5386973  54.4417197   3.2088033  46.9533361  62.6534773  15.4555066
  46.4700442  63.4535134  15.6618955  47.0394300  62.6642718  14.5022510
  40.2219320  64.4863153   3.3776885  40.1990008  64.5850840   2.4258768
  40.5319957  65.3328304   3.6994051  42.8806698  66.5439308   7.4923499
  43.8349952  66.5123250   7.4253431  42.6819222  66.0829932   8.3073725
  43.4706080  65.1140424  10.0594297  44.2898969  65.6084503  10.0829134
  43.7442888  64.1972392  10.0311865  56.5787212  57.5297697   3.1376592
  57.3547603  58.0194150   3.4101209  55.8535347  57.9555752   3.5948461
  59.0159771  58.2425317   4.1950532  59.6104262  58.0021053   3.4843841
  59.0886355  57.5232447   4.8224069  41.2356927  72.0858928   4.5093697
  41.1011395  71.3259328   3.9431695  40.8188989  72.8099827   4.0422486
  53.2013700  63.0205712  -0.3627457  53.1448901  63.4774264  -1.2019825
  53.7542043  62.2596397  -0.5404615  57.0118506  58.8095444   0.4622662
  56.7555440  58.4092080   1.2930870  56.3871374  59.5239238   0.3372801
  61.3230844  61.5491518   2.9693954  60.7630402  61.6184707   3.7425516
  60.7174347  61.3732502   2.2493450  44.3926053  72.9828245   4.7212140
  44.2758437  73.9273677   4.6190830  43.5718499  72.6801806   5.1097939
  54.2802587  67.7078380  -4.4331267  55.1148191  67.2759579  -4.6153793
  54.1186930  67.5360394  -3.5054373  53.9348479  64.2110494  -3.0674928
  53.8797283  64.0454765  -4.0086484  53.3094535  64.9186527  -2.9112738
  38.7240994  59.4478558  10.7586494  39.3699858  58.9377512  11.2473719
  38.5158145  60.1847240  11.3329919  51.2494387  66.5159406  16.2578635
  52.1185546  66.6900058  15.8965270  50.7701138  67.3353822  16.1354364
  45.4180567  73.6356507   7.9368068  46.3207814  73.6680117   8.2534563
  45.1917937  72.7056957   7.9514404  47.1734169  72.3887493   4.5978147
  46.2229800  72.3889355   4.4842519  47.4766655  71.6420228   4.0814182
  43.0638485  56.5946175  14.8561508  43.9269947  56.2382980  15.0664833
  42.4903896  56.2560070  15.5436913  62.9086862  78.2248031   5.6623909
  63.5465272  78.1054779   4.9587249  62.7907705  79.1728875   5.7211861
  59.7176569  78.1775460   5.5985434  59.3795080  78.0616524   4.7105969
  60.5866337  77.7766625   5.5786440  55.5763384  80.0310936   1.5882325
  55.0128249  79.9400873   0.8198613  55.4615779  79.2110840   2.0684817
  60.1996352  79.3310311  11.5571640  60.1884992  78.9363110  10.6852143
  60.3616991  78.5976384  12.1505411  53.1227816  81.5262128   4.4266545
  53.9149108  81.1852952   4.0112845  53.3624466  81.6357103   5.3468699
  61.1562943  83.6981904  -3.1003210  60.5050923  84.2835984  -3.4869196
  61.9507306  84.2288099  -3.0408173  55.0818570  80.7871041  -2.7016076
  55.8549446  80.2400028  -2.8403200  55.4343969  81.6515290  -2.4901614
  56.9203613  82.1147423  10.5050823  56.6293479  83.0193054  10.3897490
  57.5560597  82.1563951  11.2194893  57.8459820  79.4924272   7.0952183
  58.4423392  79.2680294   6.3809146  57.9034791  78.7509017   7.6977631
  57.4184848  76.9463707  -5.0697626  57.6710369  76.4245228  -5.8314163
  56.4809407  76.7829852  -4.9670942  62.4628131  75.9499485   2.7377117
  63.2491220  75.5318908   2.3867534  62.7266835  76.8545577   2.9058766
  62.6338208  81.3872336  -2.5634226  61.9984041  81.4606962  -1.8513321
  62.3035615  81.9765934  -3.2415147  67.8636558  75.8874719   3.6410096
  68.5961730  75.3173935   3.8747925  67.1075914  75.4996319   4.0816601
  57.1381137  78.8491813  -2.8673251  57.0217395  78.1736716  -2.1992167
  57.2483397  78.3624187  -3.6841098  59.4812678  78.3101960   0.8373438
  59.1170885  77.7832581   1.5486360  60.3379794  77.9200429   0.6639924
  65.3861978  69.5996293   8.1004704  65.0545303  70.4691704   7.8765919
  64.7907592  69.2832577   8.7798735  59.1218165  73.3391860  -4.1665213
  59.2892567  74.2072096  -3.7994742  58.9315334  73.5019141  -5.0903924
  61.8793498  81.8008839   7.5000617  61.5794221  82.7033877   7.3916424
  61.5344557  81.5341022   8.3521770  55.3305979  78.2522635   3.5337322
  54.4056476  78.1198850   3.7415013  55.5790392  79.0316855   4.0307264
  65.2790642  74.3191379   5.1798055  64.3707519  74.2506787   4.8856815
  65.2278237  74.7963324   6.0079880  59.1007385  75.7949517  -3.1818546
  58.9807011  76.2406568  -2.3433066  58.4059974  76.1434835  -3.7405008
  52.6914790  77.8955909   4.3681111  52.8207171  78.1490388   5.2820522
  52.0112242  78.4883617   4.0485766  56.8614278  88.5653159   0.4671585
  56.7838307  89.5160984   0.5460065  56.2575921  88.2199031   1.1246511
  59.3531507  75.7381024  13.1232952  58.5764841  76.2974945  13.1135816
  59.9922070  76.2237807  13.6447822  67.1452288  72.5207817   6.9575928
  66.5026668  72.8140350   6.3115723  66.6407217  72.4060738   7.7629125
  64.7992452  76.2670990  -2.3538212  65.7110308  76.4998377  -2.5290515
  64.2902099  76.8508035  -2.9163134  57.6077880  78.5466478  12.6850919
  58.3492564  79.0851522  12.4085742  56.9014865  79.1732766  12.8422471
  63.0833219  80.6895618  11.2823080  63.4916575  80.2478029  10.5377713
  62.3610481  80.1148246  11.5357273  59.4364289  75.6268225   8.6556637
  60.2825485  76.0507639   8.7991286  59.3762927  74.9701849   9.3495200
  63.4062034  81.2496809   5.0375369  62.7770896  81.4142523   4.3351437
  63.0187696  81.6638418   5.8086333  67.2851266  82.1851247   2.3919733
  66.6002304  82.5650148   1.8416766  67.3695115  82.7946573   3.1251681
  62.5863735  73.2872593  10.3137811  62.3424667  74.0414654   9.7772087
  62.8623665  73.6657941  11.1485058  64.5402197  79.8311206   8.9915076
  64.7519093  80.4742966   8.3149458  64.4931946  78.9973522   8.5237007
  62.1428426  72.4429026   5.8951649  61.2812905  72.7410280   6.1868386
  62.1690861  72.6599425   4.9632681  58.9589996  80.9871217   2.3025454
  59.4228341  81.2658920   1.5130077  58.6946794  80.0854661   2.1198545
  55.8514077  80.5342698   5.2405218  56.4215434  80.9629967   4.6022702
  56.4422189  80.2525283   5.9389403  57.8958882  77.1094369  -0.8884981
  58.5982925  77.5615413  -0.4211054  57.5639510  76.4678188  -0.2605087
  56.3439243  75.7006126  13.4866229  55.7137904  76.3822407  13.7201626
  56.2375331  75.5889208  12.5419367  51.6384216  75.3677922   4.4132153
  50.8483270  75.6235450   3.9372264  52.1295463  76.1826260   4.5184193
  65.6548025  82.7083161   7.1637434  66.4765469  82.3063348   6.8820115
  65.6510428  82.6051395   8.1153550  53.5898961  75.7322501   1.3715630
  52.7930125  75.8441195   1.8899125  53.3624553  76.0709153   0.5056520
  59.4204629  82.2567204   9.3198144  59.4849061  82.7187612  10.1556316
  58.7115553  81.6264569   9.4480454  49.9221919  75.6208412   6.8447144
  50.1729957  76.5055422   7.1104720  50.4581467  75.4413014   6.0722236
  73.7454018  79.0521910   3.5122405  72.9917727  78.4829308   3.3566410
  73.8801560  79.0184574   4.4593040  59.1352647  83.9235312  -0.8122875
  58.9998321  84.7686848  -0.3838028  59.6762459  84.1254590  -1.5756942
  55.6219986  70.0026892  15.8491480  55.2286932  69.4493090  16.5239124
  56.4386126  70.3137470  16.2397997  52.5882044  81.4410750  -0.2394950
  53.1006564  82.2354000  -0.0889386  53.2404757  80.7437040  -0.3061349
  54.3976929  84.5576506   1.8427803  54.5743557  85.4794471   1.6548787
  55.1933762  84.2434925   2.2722183  58.5387947  71.4184771  13.4411736
  59.2797661  72.0191924  13.3616199  58.7705870  70.6762409  12.8829779
  53.6829285  76.6041138  11.7189966  53.5682800  75.7026395  12.0197065
  52.8273803  76.8504835  11.3674783  60.7621123  84.5458878  13.3177467
  60.3184977  83.7595257  12.9998371  61.4238336  84.7338029  12.6521357
  55.5208244  86.0754680   7.8438145  56.0715669  85.9471743   7.0715139
  54.6819720  86.3749569   7.4933038  62.8602361  84.8261678  11.3458868
  62.8420836  85.6470559  10.8539137  63.7822281  84.7015754  11.5709009
  59.3175415  82.3405808  12.1882376  59.8503752  81.5794096  11.9581684
  58.7889496  82.0479460  12.9306531  62.4845110  67.4465874   7.7176018
  62.1409379  68.3367515   7.6415129  62.8524073  67.2567531   6.8545603
  50.5530961  79.7699404   0.5364620  51.3906183  80.1796413   0.3198328
  50.7309228  78.8298846   0.5064814  62.4495393  77.4374485  -3.7751547
  61.9342016  78.2079090  -3.5363159  62.1772701  76.7639621  -3.1518485
  60.0342504  72.2824186   1.2833692  59.1784100  71.8931036   1.1039330
  60.4469456  72.3616146   0.4233477  61.5641650  69.8170529   5.6825251
  61.0606446  69.7800664   4.8693057  61.8572257  70.7263272   5.7421908
  57.8084536  69.9009259   4.6891433  58.6737533  69.7052067   4.3297323
  57.8762045  69.6719610   5.6160790  67.4229667  80.1906840  -1.8398373
  66.6459110  79.8517999  -2.2843211  68.1021148  80.1959463  -2.5143408
  62.2381696  75.3101577  -1.9491766  61.9331832  75.6247726  -1.0981622
  63.1912138  75.3882997  -1.9064433  60.6828128  81.4691800  -0.2998812
  60.1549489  80.7344560  -0.6125574  60.1815631  82.2466477  -0.5458843
  65.6620974  79.6640821   4.8168235  65.0044648  80.3540082   4.9048363
  66.4661373  80.0537253   5.1602221  55.4146855  72.1311467   2.0607800
  55.9890607  71.9086648   1.3280993  56.0017838  72.2000161   2.8136401
  64.4726433  78.0185193   2.8672176  64.9858314  78.6515185   3.3693886
  65.1227657  77.4186389   2.5015536  55.7416443  74.1615928  -3.9196315
  54.9053755  74.4990614  -3.5987040  55.6021212  74.0264907  -4.8569178
  57.7169523  69.0052715   0.7882869  57.0633935  68.6901733   0.1639484
  57.6749997  68.3828456   1.5142692  58.8280728  79.2872011  -7.2963839
  57.9207790  79.0561264  -7.0972690  59.3251760  78.4909630  -7.1089857
  61.7348807  87.9969518  -4.3767152  61.0610506  88.3001215  -3.7682195
  62.1214629  88.7998598  -4.7261695  60.9507263  75.4934649   5.1130517
  60.0329825  75.7149596   4.9552205  61.3667407  75.5680960   4.2542224
  61.7342311  76.8926065   0.2433197  62.4814130  77.4047462  -0.0659681
  62.0033901  76.5710117   1.1037591  60.0068961  79.3884605  -2.7739849
  59.0980181  79.1043638  -2.6767379  60.0364045  79.8083684  -3.6336542
  65.2388229  82.9991195   0.9951319  64.7850556  82.1582105   1.0516510
  64.6082196  83.6352593   1.3326099  64.1821148  73.9283181   2.2251986
  63.4443905  73.4160567   2.5562229  64.4347922  73.4883563   1.4135263
  63.6821168  84.8367692   1.9301137  63.9744142  85.3972749   1.2113503
  64.1919789  85.1296253   2.6854296  64.2832776  66.7059433   2.8193756
  64.5891653  65.8456796   2.5319671  65.0085381  67.2977053   2.6192750
  50.5757132  77.1090120   1.2075354  50.3781532  76.5159480   0.4826420
  50.0203796  76.8042330   1.9251292  58.5553855  77.0013226   3.3269947
  58.6102465  76.0487062   3.2512423  57.7445058  77.1572665   3.8111245
  59.7045049  80.9293349  -5.4351770  59.2664479  80.2129208  -5.8946133
  60.4455490  81.1569464  -5.9966679  56.4946215  75.6190286   1.0860326
  55.6814081  75.9184456   1.4925518  56.9905210  75.2245975   1.8034808
  58.6454793  85.6148043   3.0194590  58.6030972  85.8408889   2.0903122
  59.5617492  85.3811417   3.1680392  62.0920427  76.0832110   9.9175220
  62.4469815  76.3103583  10.7769685  62.7392558  76.4150487   9.2952475
  67.8218164  79.2050546   0.6224549  67.6836063  79.3952142  -0.3054262
  67.4654383  79.9669929   1.0792600  55.9860290  73.1908641   6.7021561
  56.6259669  73.0497400   6.0044524  55.1537821  72.9043155   6.3260163
  67.8487544  81.2727073   5.6335820  68.2824050  81.1802362   6.4818874
  68.5619124  81.2484574   4.9955836  56.7620594  82.4911072   2.8156553
  57.5561193  81.9961392   2.6139128  56.0512286  81.9628935   2.4524259
  61.5815439  84.8729167   7.1668921  61.6352461  85.4420104   7.9346637
  60.7130220  85.0431052   6.8022958  53.0703358  76.6354153  -1.1083694
  52.1400946  76.5738609  -0.8913732  53.1660830  76.1130106  -1.9047053
  52.9888907  73.1608966   1.4794547  53.2495724  74.0754300   1.3703708
  53.8106079  72.6933409   1.6291160  54.4613832  74.5746723   8.6493372
  55.1336885  74.3664086   8.0006021  53.6343618  74.3768809   8.2098604
  68.7103093  81.3150774   8.1668706  68.9038983  82.2196584   8.4127980
  68.6103711  80.8558193   9.0007291  60.3639404  71.2008664  10.6659033
  59.7167319  71.8998614  10.5723509  61.1340419  71.6344808  11.0335281
  63.7718202  81.4657517  13.7409586  63.6203708  81.2368068  12.8239670
  63.7622881  82.4228118  13.7540931  60.5403538  79.0389429   8.7255853
  61.4695598  79.1900589   8.5524820  60.1194568  79.1273450   7.8704499
  59.3391870  83.0640094   6.4954390  59.2002956  82.6958878   7.3680328
  58.5506466  83.5787733   6.3238348  59.9340022  88.1649190  -2.1620073
  60.1091778  87.6937233  -1.3474451  59.2472810  88.7914956  -1.9338813
  60.8897085  82.4421696   3.8843228  60.5546918  82.4022466   4.7800878
  60.3901031  81.7766412   3.4113638  54.8641329  77.8489326   9.4095809
  54.7261127  77.1169565  10.0107348  55.7746253  77.7598227   9.1279997
  63.8256277  79.7877731  -5.8419712  63.2085447  79.0624559  -5.9386660
  63.3572765  80.5487091  -6.1852638  57.4923630  77.5609286   8.8979489
  58.2023248  76.9202478   8.8566107  57.4492938  77.8122181   9.8205670
  65.4810409  84.4976639  11.8186068  65.4222955  83.8135859  11.1516651
  65.8829927  85.2395629  11.3666694  56.2052564  74.5474504  10.7175128
  55.6689921  74.0965242  11.3696725  55.6169272  74.6820412   9.9745593
  54.5001107  91.3138553   4.6119787  54.7397706  91.9457077   5.2898805
  53.6570304  90.9626593   4.8985146  55.6154823  74.0063155  -6.7198408
  54.7384289  73.8851956  -7.0836161  56.0912576  73.2149233  -6.9719519
  65.4827816  82.4616223  10.0500048  64.5954595  82.1242145  10.1726447
  66.0526367  81.7299254  10.2868813  47.1356963  78.7940315   3.3743099
  47.8228003  78.4802045   2.7864114  46.9805092  79.6981679   3.1010350
  51.9391685  73.6830511   7.8028123  51.8549874  73.0756181   7.0678533
  51.1174391  74.1739530   7.8037619  59.0128969  87.1217675   7.0161291
  58.9399141  87.9272647   7.5280595  58.5706362  87.3209641   6.1909312
  58.8018749  86.3589445   0.5264112  58.0186271  86.9011126   0.6202337
  59.5011494  86.8763425   0.9258354  62.1115399  72.1684075   3.1698318
  62.6084098  71.4154037   2.8499388  61.3402380  72.2048392   2.6041527
  69.9645156  77.8724440   4.8116609  69.9535033  78.7549156   4.4410542
  69.0962536  77.5195991   4.6171146  61.4727653  87.0204509   9.1719450
  62.1855625  87.6551974   9.0995351  60.9817681  87.1168375   8.3559451
  63.1945180  80.9255762   0.7436741  62.2601458  81.0457225   0.5741446
  63.3721848  80.0228229   0.4796751  58.6950368  74.3101458   2.8970002
  58.3248155  73.7572498   3.5850908  59.1909460  73.7059591   2.3445002
  66.5817731  76.7673081   1.2786775  67.0478183  77.6001073   1.2047078
  67.0325231  76.3018063   1.9832034  56.5239566  84.7698953   9.9925020
  57.2249026  85.4035436  10.1454415  56.0534681  85.1113684   9.2320660
  64.6493962  83.1116903  -1.7227073  64.9253806  82.9973497  -0.8133199
  63.7798461  82.7134388  -1.7614900  64.5534394  69.1353668   5.3177677
  63.6397473  69.3657895   5.4859884  64.9827495  69.2192112   6.1691709
  64.3240852  77.3243560   7.8177571  63.6712302  77.5719468   7.1630023
  64.7021232  76.5107699   7.4840048  61.2848026  87.3603254   1.9205741
  61.4670421  86.5424909   2.3833493  62.1081012  87.5770946   1.4830631
  61.6190192  86.2871439  -0.8179211  62.1477958  85.7763893  -1.4309048
  61.8818411  85.9713969   0.0466323  60.3728425  78.0663371  14.3043608
  59.6969062  77.9657501  14.9745983  61.1956059  77.9102585  14.7679605
  52.1207284  84.3035308   6.9256123  52.7060721  83.5578996   7.0584027
  51.9232123  84.6139265   7.8092787  54.9745940  87.3386555   1.9418565
  54.3056315  87.8232683   1.4582605  54.8358809  87.5855776   2.8561944
  46.7124939  76.8740908   5.6460566  46.7509039  76.3404499   6.4397684
  46.2065232  76.3476114   5.0271543  59.1151208  89.3730299   8.5401224
  59.6669516  89.5361920   9.3050309  59.4557402  89.9634737   7.8681249
  54.0915701  71.7205449   9.1423108  54.1557028  72.5820280   8.7300506
  54.0282822  71.1079450   8.4095467  53.5667974  73.7928581  12.7896143
  54.1940013  73.4105659  13.4033667  52.7095893  73.5742783  13.1551835
  63.9662082  84.1991556  14.3949878  64.5101986  84.8121515  13.9004833
  63.3848927  84.7571135  14.9116891  50.3433517  75.6005010  -1.2785502
  50.6386958  74.6915689  -1.3318449  49.4421552  75.5792750  -1.6004500
  62.2519595  87.3212274   5.5264906  62.1270735  86.5202014   5.0175851
  62.9098686  87.8158468   5.0378876  53.8727764  73.6761007   4.7042046
  53.1514349  74.2896975   4.5649519  54.6621019  74.2118772   4.6258692
  64.3154504  85.1221294   7.1544456  63.3684839  85.0026646   7.0822783
  64.6637277  84.2343792   7.2370717  56.6754077  71.0115433  10.9782698
  57.1988479  71.2577730  11.7409007  56.4566410  71.8435468  10.5585835
  52.0721358  73.2819108  -1.1546177  51.7434064  72.4016487  -1.3371071
  52.4260729  73.2266777  -0.2669788  61.3200937  84.9174011   3.3548808
  61.1725899  83.9890718   3.5356378  62.1454431  84.9394101   2.8705883
  55.1863181  73.5692078  -0.7870700  55.5259254  74.0977999  -1.5092091
  55.6335302  73.9072484  -0.0112133  64.9235059  85.7402569   4.4413681
  65.8481606  85.5345431   4.3038132  64.7550362  85.4918971   5.3503023
  57.8806622  71.9529128   8.6632368  57.5403443  71.1536942   9.0653048
  57.1745628  72.2530839   8.0909202  58.5323094  69.0378441   7.1159691
  59.3549163  68.5638919   6.9938582  58.7761158  69.8168925   7.6158378
  57.1731328  72.0666699  -2.5877407  57.8939691  72.4447952  -3.0913690
  56.5496633  72.7855576  -2.4842429  61.3162451  72.7711848  -1.6519074
  61.5326066  73.6536486  -1.9530246  60.8356519  72.3798062  -2.3813433
  56.0561673  75.7297562   4.9251670  55.9106253  76.0437865   5.8175952
  55.5786876  76.3482462   4.3722569  57.9158056  72.7200110   4.9732560
  57.9019624  71.8241203   4.6364858  58.6330484  72.7270773   5.6070846
  59.7684186  73.1537450   7.0185687  59.5101964  74.0754520   7.0170018
  59.2369227  72.7567884   7.7086151  64.7130375  86.2588237  -0.2024228
  64.8867253  85.6934659  -0.9550375  65.2059266  87.0589132  -0.3844738
  50.5307335  78.2702906   7.8639331  49.9860803  79.0462714   7.9959606
  51.4086685  78.6173710   7.7058453  57.3194952  71.6014490   0.2420130
  57.4410863  70.6731136   0.4411017  57.0296994  71.6153176  -0.6701555
  60.1886142  69.2869400   3.3786850  60.2107839  69.3508733   2.4238829
  60.6054201  68.4473909   3.5727356  70.5669766  79.0224660   1.4166072
  71.0100912  78.2731985   1.0185195  69.6896277  79.0134796   1.0339804
  65.7005548  85.5755001  -3.1027329  66.3956452  86.1961694  -2.8840015
  66.0428698  84.7250352  -2.8274951  51.3173357  77.3972802  10.7569488
  50.5755093  77.5455438  11.3434119  50.9966101  77.6581068   9.8936238
  67.5996971  83.0254707  -1.5739998  68.1248295  83.3641980  -2.2990678
  67.5119323  82.0901722  -1.7576864  59.2617019  86.9388780  10.5549878
  59.5704146  86.6937927  11.4272578  60.0592501  87.1435419  10.0668748
  59.2837631  89.0926690   2.7855255  58.8442622  88.6003069   3.4788111
  60.0345748  88.5499658   2.5447330  51.7629970  85.2838231   2.7879883
  52.5887990  84.9842003   2.4078526  51.4124022  84.5145853   3.2369671
  56.7311504  84.6364699   4.8577556  56.1091513  83.9735404   4.5579784
  57.4016371  84.6625831   4.1751204  49.9638575  83.2024557   3.7468816
  49.1270484  82.7746732   3.5652818  49.9362221  83.3957001   4.6839608
  56.8036031  73.1146487  14.4510062  56.8524187  73.9908610  14.0687832
  57.3458545  72.5723880  13.8781706  67.2890877  83.6587610  13.7311199
  66.4986420  83.6411749  13.1915699  67.0524231  84.1975904  14.4860236
  67.4088752  80.5080077  11.0443928  67.4586757  80.3430084  11.9859451
  67.3002675  79.6407336  10.6541809  56.2925011  83.1868622  -1.6663983
  56.4413131  83.8704087  -2.3197310  57.0991454  83.1673713  -1.1514527
  64.6992514  76.4911005  12.3603235  65.6002377  76.3517470  12.0687233
  64.7740489  76.6565460  13.3001412  59.0335320  73.8677860  11.2056421
  58.1638629  74.1611426  10.9339010  59.2694800  74.4518305  11.9263685
  68.9106949  82.9277018  11.2885950  68.6191757  83.2906999  12.1249411
  68.2979080  82.2144027  11.1099282  70.1102631  80.4929898   3.8088520
  70.9449522  80.9319702   3.9726080  70.2461760  80.0168551   2.9896766
  67.1594137  78.0509633   9.7566008  67.6348259  78.2437279   8.9484859
  66.2359702  78.1068819   9.5109391  54.0477644  79.2133800  -0.6602914
  53.8023685  78.3096130  -0.4622704  54.2173558  79.2150951  -1.6023436
  61.7374353  70.0857477   8.7221841  62.2556297  70.8218503   8.3968330
  61.3829486  70.3921470   9.5568601  53.3173291  74.9462158  -3.1616753
  52.6242536  75.0206513  -3.8176717  53.0725043  74.1822501  -2.6395236
  61.9886948  66.5057759   4.2422738  62.2688701  65.8380948   4.8683165
  62.7737554  66.6986855   3.7297402  59.7920416  85.6816753  -4.1952236
  59.2194383  86.3006940  -4.6481764  60.3653210  86.2316115  -3.6612314
  65.8595806  74.9275393   7.9894313  66.8113229  75.0273491   8.0106537
  65.6899256  74.1353662   8.4992398  63.8810185  72.0130976   8.1753714
  63.2860117  72.2935989   7.4800203  63.5959882  72.5024877   8.9470455
  63.0117676  85.9653903  -3.0643653  63.9448349  85.8999465  -2.8610778
  62.9240889  86.8010170  -3.5229121  65.6405693  85.2819773  -6.1039706
  65.5619324  84.9479637  -5.2103948  66.4615359  85.7741541  -6.1048233
  68.3383884  78.1481513   7.1036613  68.3060204  77.2097513   7.2896297
  68.9484507  78.2265549   6.3702438  60.1767215  77.0177566  -6.8536183
  61.1226319  76.8883774  -6.7847765  59.7981460  76.2792228  -6.3766755
  68.4878372  74.9392556   7.1494896  67.9717421  74.1551013   6.9624825
  69.3718321  74.6111273   7.3141415  66.1489099  68.6833572   3.1090709
  65.9513920  68.3748660   3.9934041  66.7588805  69.4095211   3.2388639
  74.1560434  79.2097520   6.2442650  74.8863822  78.9482808   6.8050353
  73.5467379  78.4726242   6.2844718  72.2375731  77.3505382   6.8417101
  71.5108894  77.2161347   6.2333592  71.8223018  77.6582211   7.6473819
  60.0605907  81.0695312  14.6064474  60.9808917  81.2473911  14.8004520
  60.0255490  80.1251357  14.4544173  58.3610132  74.9427542  -6.9181298
  57.4541587  74.6460655  -6.8418584  58.6386113  74.6457360  -7.7847012
  49.2788072  76.2633905   3.5317748  48.9590856  75.4099214   3.2392122
  48.7321500  76.4782484   4.2875716  53.0567980  78.9796346   7.2487255
  53.2753989  79.9113454   7.2675289  53.4693753  78.6204321   8.0342059
  59.9772197  69.4864432  -0.7637057  59.1672926  69.1411517  -0.3881811
  60.6656614  69.1771976  -0.1749445  61.9062746  68.5642479   0.8587240
  62.4593784  68.9837932   1.5177263  62.1432832  67.6378227   0.9010196
  57.9295845  74.5529552  16.6390004  57.8292572  75.5023909  16.5702095
  57.7117387  74.2247791  15.7666074  57.1308916  71.8014477  -6.7769319
  57.9928080  72.1269376  -6.5173501  57.3159260  71.0145973  -7.2896253
  49.1476332  79.8836817   5.5010870  48.4539804  79.4690770   4.9880824
  49.8949323  79.9257353   4.9044289  65.2841553  70.6743004   0.3665904
  64.7040222  71.3327808  -0.0156043  65.0177485  69.8520348  -0.0446678
  63.7345119  70.0748061   2.5687225  64.2344898  70.1864596   1.7601543
  64.3780727  69.7709114   3.2088033  57.7927115  77.9826691  15.4555066
  57.3094197  78.7827051  15.6618955  57.8788054  77.9934636  14.5022510
  51.0613075  79.8155071   3.3776885  51.0383763  79.9142758   2.4258768
  51.3713711  80.6620222   3.6994051  53.7200452  81.8731226   7.4923499
  54.6743706  81.8415168   7.4253431  53.5212976  81.4121850   8.3073725
  54.3099835  80.4432342  10.0594297  55.1292724  80.9376421  10.0829134
  54.5836642  79.5264310  10.0311865  64.0666431  72.8343094  -0.5777747
  63.1792286  73.1192745  -0.7957553  64.4820420  72.6736858  -1.4250471
  67.4180967  72.8589615   3.1376592  68.1941357  73.3486068   3.4101209
  66.6929101  73.2847669   3.5948461  69.8553526  73.5717234   4.1950532
  70.4498016  73.3312970   3.4843841  69.9280109  72.8524365   4.8224069
  52.0750681  87.4150845   4.5093697  51.9405149  86.6551246   3.9431695
  51.6582744  88.1391745   4.0422486  63.2109644  82.5987769  -6.4829727
  63.9145494  82.8037771  -5.8672072  62.4872293  83.1664531  -6.2180644
  64.0407455  78.3497630  -0.3627457  63.9842656  78.8066182  -1.2019825
  64.5935797  77.5888315  -0.5404615  67.8512260  74.1387362   0.4622662
  67.5949195  73.7383998   1.2930870  67.2265129  74.8531156   0.3372801
  72.1624598  76.8783435   2.9693954  71.6024156  76.9476625   3.7425516
  71.5568102  76.7024420   2.2493450  55.2319807  88.3120162   4.7212140
  55.1152191  89.2565595   4.6190830  54.4112253  88.0093724   5.1097939
  65.1196342  83.0370298  -4.4331267  65.9541946  82.6051496  -4.6153793
  64.9580685  82.8652312  -3.5054373  64.7742234  79.5402411  -3.0674928
  64.7191038  79.3746683  -4.0086484  64.1488289  80.2478444  -2.9112738
  49.5634749  74.7770476  10.7586494  50.2093612  74.2669430  11.2473719
  49.3551900  75.5139157  11.3329919  62.0888141  81.8451323  16.2578635
  62.9579301  82.0191975  15.8965270  61.6094893  82.6645740  16.1354364
  58.0838359  69.0410520  -3.4889610  58.0717029  69.9852360  -3.3321339
  58.9761781  68.8580666  -3.7830149  56.2574321  88.9648424   7.9368068
  57.1601568  88.9972034   8.2534563  56.0311691  88.0348875   7.9514404
  58.0127923  87.7179411   4.5978147  57.0623554  87.7181272   4.4842519
  58.3160409  86.9712145   4.0814182  61.8990479  65.6353297   0.7656327
  61.1322875  65.0811784   0.9113009  62.3101184  65.7075166   1.6270479
  53.9032240  71.9238093  14.8561508  54.7663701  71.5674898  15.0664833
  53.3297651  71.5851988  15.5436913  73.7480617  93.5539949   5.6623909
  74.3859027  93.4346696   4.9587249  73.6301460  94.5020793   5.7211861
  70.5570323  93.5067377   5.5985434  70.2188835  93.3908442   4.7105969
  71.4260091  93.1058542   5.5786440  66.4157139  95.3602854   1.5882325
  65.8522004  95.2692791   0.8198613  66.3009534  94.5402758   2.0684817
  71.0390106  94.6602229  11.5571640  71.0278747  94.2655027  10.6852143
  71.2010746  93.9268302  12.1505411  63.9621571  96.8554045   4.4266545
  64.7542863  96.5144870   4.0112845  64.2018221  96.9649020   5.3468699
  67.7597367  97.4439341  10.5050823  67.4687233  98.3484972  10.3897490
  68.3954352  97.4855868  11.2194893  68.6853574  94.8216189   7.0952183
  69.2817146  94.5972212   6.3809146  68.7428546  94.0800935   7.6977631
  73.3021885  91.2791403   2.7377117  74.0884975  90.8610826   2.3867534
  73.5660590  92.1837495   2.9058766  78.7030312  91.2166636   3.6410096
  79.4355484  90.6465853   3.8747925  77.9469668  90.8288237   4.0816601
  70.3206432  93.6393878   0.8373438  69.9564639  93.1124499   1.5486360
  71.1773548  93.2492347   0.6639924  76.2255733  84.9288210   8.1004704
  75.8939058  85.7983621   7.8765919  75.6301346  84.6124494   8.7798735
  69.9611919  88.6683777  -4.1665213  70.1286321  89.5364014  -3.7994742
  69.7709088  88.8311059  -5.0903924  72.7187252  97.1300756   7.5000617
  72.4187975  98.0325795   7.3916424  72.3738312  96.8632939   8.3521770
  66.1699734  93.5814553   3.5337322  65.2450230  93.4490767   3.7415013
  66.4184147  94.3608772   4.0307264  76.1184396  89.6483296   5.1798055
  75.2101273  89.5798705   4.8856815  76.0671992  90.1255241   6.0079880
  69.9401140  91.1241435  -3.1818546  69.8200765  91.5698486  -2.3433066
  69.2453728  91.4726753  -3.7405008  63.5308545  93.2247827   4.3681111
  63.6600926  93.4782306   5.2820522  62.8505996  93.8175535   4.0485766
  70.1925262  91.0672942  13.1232952  69.4158596  91.6266862  13.1135816
  70.8315825  91.5529725  13.6447822  77.9846042  87.8499735   6.9575928
  77.3420423  88.1432268   6.3115723  77.4800971  87.7352655   7.7629125
  68.4471634  93.8758395  12.6850919  69.1886319  94.4143439  12.4085742
  67.7408620  94.5024684  12.8422471  73.9226974  96.0187536  11.2823080
  74.3310330  95.5769946  10.5377713  73.2004235  95.4440163  11.5357273
  70.2758044  90.9560143   8.6556637  71.1219239  91.3799556   8.7991286
  70.2156682  90.2993767   9.3495200  74.2455788  96.5788726   5.0375369
  73.6164651  96.7434441   4.3351437  73.8581451  96.9930336   5.8086333
  73.4257489  88.6164511  10.3137811  73.1818421  89.3706572   9.7772087
  73.7017420  88.9949859  11.1485058  75.3795952  95.1603123   8.9915076
  75.5912847  95.8034883   8.3149458  75.3325700  94.3265440   8.5237007
  72.9822181  87.7720944   5.8951649  72.1206660  88.0702198   6.1868386
  73.0084616  87.9891343   4.9632681  69.7983750  96.3163135   2.3025454
  70.2622096  96.5950838   1.5130077  69.5340548  95.4146579   2.1198545
  66.6907831  95.8634616   5.2405218  67.2609188  96.2921884   4.6022702
  67.2815943  95.5817201   5.9389403  68.7352636  92.4386287  -0.8884981
  69.4376680  92.8907331  -0.4211054  68.4033265  91.7970106  -0.2605087
  67.1832998  91.0298044  13.4866229  66.5531658  91.7114324  13.7201626
  67.0769086  90.9181125  12.5419367  62.4777970  90.6969840   4.4132153
  61.6877024  90.9527368   3.9372264  62.9689218  91.5118177   4.5184193
  76.4941780  98.0375079   7.1637434  77.3159224  97.6355266   6.8820115
  76.4904183  97.9343313   8.1153550  64.4292716  91.0614419   1.3715630
  63.6323879  91.1733113   1.8899125  64.2018308  91.4001071   0.5056520
  70.2598383  97.5859122   9.3198144  70.3242816  98.0479529  10.1556316
  69.5509307  96.9556487   9.4480454  60.7615673  90.9500330   6.8447144
  61.0123712  91.8347340   7.1104720  61.2975222  90.7704932   6.0722236
  66.4613741  85.3318809  15.8491480  66.0680686  84.7785008  16.5239124
  67.2779881  85.6429388  16.2397997  63.4275798  96.7702668  -0.2394950
  63.9400319  97.5645918  -0.0889386  64.0798511  96.0728958  -0.3061349
  65.2370683  99.8868424   1.8427803  65.4137311 100.8086389   1.6548787
  66.0327517  99.5726843   2.2722183  69.3781702  86.7476689  13.4411736
  70.1191415  87.3483842  13.3616199  69.6099624  86.0054326  12.8829779
  64.5223040  91.9333056  11.7189966  64.4076555  91.0318313  12.0197065
  63.6667557  92.1796753  11.3674783  71.6014877  99.8750796  13.3177467
  71.1578732  99.0887175  12.9998371  72.2632091 100.0629947  12.6521357
  66.3601999 101.4046598   7.8438145  66.9109424 101.2763661   7.0715139
  65.5213474 101.7041487   7.4933038  73.6996115 100.1553596  11.3458868
  73.6814591 100.9762477  10.8539137  74.6216035 100.0307671  11.5709009
  70.1569170  97.6697726  12.1882376  70.6897506  96.9086014  11.9581684
  69.6283251  97.3771377  12.9306531  73.3238865  82.7757791   7.7176018
  72.9803134  83.6659433   7.6415129  73.6917827  82.5859449   6.8545603
  61.3924715  95.0991322   0.5364620  62.2299937  95.5088330   0.3198328
  61.5702983  94.1590764   0.5064814  70.8736258  87.6116103   1.2833692
  70.0177855  87.2222954   1.1039330  71.2863210  87.6908064   0.4233477
  72.4035405  85.1462447   5.6825251  71.9000201  85.1092582   4.8693057
  72.6966012  86.0555189   5.7421908  68.6478291  85.2301176   4.6891433
  69.5131288  85.0343985   4.3297323  68.7155800  85.0011528   5.6160790
  73.0775450  90.6393495  -1.9491766  72.7725586  90.9539644  -1.0981622
  74.0305893  90.7174915  -1.9064433  76.5014728  94.9932738   4.8168235
  75.8438403  95.6832000   4.9048363  77.3055128  95.3829170   5.1602221
  66.2540610  87.4603384   2.0607800  66.8284362  87.2378566   1.3280993
  66.8411592  87.5292079   2.8136401  75.3120187  93.3477111   2.8672176
  75.8252069  93.9807103   3.3693886  75.9621411  92.7478307   2.5015536
  66.5810197  89.4907845  -3.9196315  65.7447509  89.8282532  -3.5987040
  66.4414967  89.3556825  -4.8569178  68.5563278  84.3344633   0.7882869
  67.9027690  84.0193650   0.1639484  68.5143752  83.7120374   1.5142692
  71.7901018  90.8226567   5.1130517  70.8723579  91.0441514   4.9552205
  72.2061162  90.8972877   4.2542224  72.5736066  92.2217982   0.2433197
  73.3207885  92.7339380  -0.0659681  72.8427655  91.9002035   1.1037591
  75.0214903  89.2575099   2.2251986  74.2837660  88.7452485   2.5562229
  75.2741676  88.8175480   1.4135263  75.1226530  82.0351351   2.8193756
  75.4285407  81.1748714   2.5319671  75.8479135  82.6268971   2.6192750
  61.4150886  92.4382037   1.2075354  61.2175286  91.8451398   0.4826420
  60.8597550  92.1334247   1.9251292  69.3947610  92.3305144   3.3269947
  69.4496220  91.3778980   3.2512423  68.5838812  92.4864583   3.8111245
  67.3339970  90.9482203   1.0860326  66.5207835  91.2476374   1.4925518
  67.8298964  90.5537892   1.8034808  69.4848548 100.9439960   3.0194590
  69.4424727 101.1700807   2.0903122  70.4011247 100.7103335   3.1680392
  72.9314182  91.4124028   9.9175220  73.2863569  91.6395501  10.7769685
  73.5786313  91.7442405   9.2952475  66.8254045  88.5200559   6.7021561
  67.4653424  88.3789318   6.0044524  65.9931575  88.2335072   6.3260163
  78.6881298  96.6018991   5.6335820  79.1217805  96.5094280   6.4818874
  79.4012879  96.5776491   4.9955836  67.6014349  97.8202989   2.8156553
  68.3954947  97.3253310   2.6139128  66.8906041  97.2920853   2.4524259
  72.4209193 100.2021085   7.1668921  72.4746215 100.7712021   7.9346637
  71.5523974 100.3722970   6.8022958  63.9097112  91.9646071  -1.1083694
  62.9794700  91.9030527  -0.8913732  64.0054584  91.4422024  -1.9047053
  63.8282661  88.4900884   1.4794547  64.0889478  89.4046217   1.3703708
  64.6499833  88.0225327   1.6291160  65.3007586  89.9038641   8.6493372
  65.9730640  89.6956003   8.0006021  64.4737373  89.7060727   8.2098604
  79.5496848  96.6442691   8.1668706  79.7432738  97.5488502   8.4127980
  79.4497466  96.1850111   9.0007291  71.2033158  86.5300582  10.6659033
  70.5561073  87.2290532  10.5723509  71.9734174  86.9636726  11.0335281
  74.6111956  96.7949434  13.7409586  74.4597463  96.5659986  12.8239670
  74.6016636  97.7520036  13.7540931  71.3797293  94.3681347   8.7255853
  72.3089353  94.5192507   8.5524820  70.9588323  94.4565368   7.8704499
  70.1785625  98.3932011   6.4954390  70.0396710  98.0250796   7.3680328
  69.3900221  98.9079651   6.3238348  71.7290840  97.7713614   3.8843228
  71.3940672  97.7314384   4.7800878  71.2294785  97.1058330   3.4113638
  65.7035084  93.1781244   9.4095809  65.5654882  92.4461483  10.0107348
  66.6140007  93.0890144   9.1279997  68.3317384  92.8901203   8.8979489
  69.0417003  92.2494396   8.8566107  68.2886692  93.1414098   9.8205670
  76.3204163  99.8268557  11.8186068  76.2616709  99.1427777  11.1516651
  76.7223681 100.5687547  11.3666694  67.0446318  89.8766421  10.7175128
  66.5083675  89.4257160  11.3696725  66.4563027  90.0112330   9.9745593
  65.3394862 106.6430471   4.6119787  65.5791460 107.2748995   5.2898805
  64.4964058 106.2918511   4.8985146  76.3221570  97.7908141  10.0500048
  75.4348349  97.4534063  10.1726447  76.8920121  97.0591172  10.2868813
  57.9750717  94.1232232   3.3743099  58.6621757  93.8093962   2.7864114
  57.8198846  95.0273597   3.1010350  62.7785440  89.0122429   7.8028123
  62.6943628  88.4048099   7.0678533  61.9568146  89.5031447   7.8037619
  69.8522724 102.4509593   7.0161291  69.7792895 103.2564565   7.5280595
  69.4100117 102.6501559   6.1909312  72.9509153  87.4975993   3.1698318
  73.4477853  86.7445955   2.8499388  72.1796135  87.5340309   2.6041527
  80.8038911  93.2016358   4.8116609  80.7928787  94.0841074   4.4410542
  79.9356290  92.8487909   4.6171146  72.3121407 102.3496427   9.1719450
  73.0249379 102.9843892   9.0995351  71.8211436 102.4460293   8.3559451
  74.0338934  96.2547680   0.7436741  73.0995213  96.3749142   0.5741446
  74.2115603  95.3520147   0.4796751  69.5344122  89.6393376   2.8970002
  69.1641910  89.0864416   3.5850908  70.0303215  89.0351509   2.3445002
  77.4211485  92.0964999   1.2786775  77.8871938  92.9292991   1.2047078
  77.8718986  91.6309981   1.9832034  67.3633321 100.0990871   9.9925020
  68.0642780 100.7327354  10.1454415  66.8928436 100.4405602   9.2320660
  75.3928148  84.4645586   5.3177677  74.4791228  84.6949813   5.4859884
  75.8221250  84.5484030   6.1691709  75.1634607  92.6535478   7.8177571
  74.5106057  92.9011385   7.1630023  75.5414987  91.8399616   7.4840048
  71.2122180  93.3955289  14.3043608  70.5362817  93.2949418  14.9745983
  72.0349814  93.2394503  14.7679605  62.9601039  99.6327226   6.9256123
  63.5454476  98.8870914   7.0584027  62.7625877  99.9431182   7.8092787
  65.8139694 102.6678473   1.9418565  65.1450069 103.1524601   1.4582605
  65.6752564 102.9147693   2.8561944  57.5518694  92.2032826   5.6460566
  57.5902793  91.6696417   6.4397684  57.0458986  91.6768031   5.0271543
  69.9544963 104.7022217   8.5401224  70.5063271 104.8653838   9.3050309
  70.2951156 105.2926654   7.8681249  64.9309456  87.0497366   9.1423108
  64.9950782  87.9112197   8.7300506  64.8676576  86.4371368   8.4095467
  64.4061728  89.1220499  12.7896143  65.0333767  88.7397576  13.4033667
  63.5489647  88.9034701  13.1551835  74.8055837  99.5283474  14.3949878
  75.3495741 100.1413432  13.9004833  74.2242682 100.0863052  14.9116891
  61.1827271  90.9296928  -1.2785502  61.4780712  90.0207606  -1.3318449
  60.2815307  90.9084667  -1.6004500  73.0913350 102.6504192   5.5264906
  72.9664489 101.8493932   5.0175851  73.7492441 103.1450385   5.0378876
  64.7121518  89.0052925   4.7042046  63.9908104  89.6188892   4.5649519
  65.5014774  89.5410689   4.6258692  75.1548258 100.4513212   7.1544456
  74.2078594 100.3318563   7.0822783  75.5031031  99.5635710   7.2370717
  67.5147832  86.3407351  10.9782698  68.0382233  86.5869648  11.7409007
  67.2960165  87.1727386  10.5585835  62.9115113  88.6111026  -1.1546177
  62.5827819  87.7308405  -1.3371071  63.2654483  88.5558694  -0.2669788
  72.1594692 100.2465928   3.3548808  72.0119654  99.3182636   3.5356378
  72.9848185 100.2686019   2.8705883  66.0256936  88.8983995  -0.7870700
  66.3653008  89.4269917  -1.5092091  66.4729056  89.2364402  -0.0112133
  68.7200377  87.2821046   8.6632368  68.3797197  86.4828859   9.0653048
  68.0139383  87.5822757   8.0909202  69.3716848  84.3670359   7.1159691
  70.1942918  83.8930837   6.9938582  69.6154912  85.1460842   7.6158378
  68.0125083  87.3958617  -2.5877407  68.7333445  87.7739870  -3.0913690
  67.3890387  88.1147494  -2.4842429  72.1556206  88.1003766  -1.6519074
  72.3719820  88.9828404  -1.9530246  71.6750273  87.7089979  -2.3813433
  66.8955427  91.0589479   4.9251670  66.7500008  91.3729782   5.8175952
  66.4180631  91.6774380   4.3722569  68.7551810  88.0492027   4.9732560
  68.7413379  87.1533121   4.6364858  69.4724238  88.0562691   5.6070846
  70.6077941  88.4829367   7.0185687  70.3495719  89.4046438   7.0170018
  70.0762981  88.0859802   7.7086151  61.3701089  93.5994824   7.8639331
  60.8254557  94.3754632   7.9959606  62.2480439  93.9465628   7.7058453
  68.1588706  86.9306407   0.2420130  68.2804617  86.0023054   0.4411017
  67.8690748  86.9445093  -0.6701555  71.0279896  84.6161318   3.3786850
  71.0501593  84.6800651   2.4238829  71.4447955  83.7765827   3.5727356
  62.1567111  92.7264720  10.7569488  61.4148847  92.8747355  11.3434119
  61.8359856  92.9872985   9.8936238  70.1010774 102.2680698  10.5549878
  70.4097900 102.0229845  11.4272578  70.8986256 102.4727337  10.0668748
  62.6023725 100.6130149   2.7879883  63.4281745 100.3133920   2.4078526
  62.2517777  99.8437771   3.2369671  67.5705258  99.9656617   4.8577556
  66.9485267  99.3027322   4.5579784  68.2410125  99.9917749   4.1751204
  60.8032330  98.5316475   3.7468816  59.9664238  98.1038649   3.5652818
  60.7755975  98.7248918   4.6839608  67.6429786  88.4438405  14.4510062
  67.6917941  89.3200528  14.0687832  68.1852300  87.9015798  13.8781706
  78.1284631  98.9879528  13.7311199  77.3380175  98.9703667  13.1915699
  77.8917986  99.5267822  14.4860236  78.2482506  95.8371994  11.0443928
  78.2980511  95.6722002  11.9859451  78.1396430  94.9699253  10.6541809
  75.5386269  91.8202922  12.3603235  76.4396131  91.6809387  12.0687233
  75.6134243  91.9857377  13.3001412  69.8729074  89.1969777  11.2056421
  69.0032383  89.4903343  10.9339010  70.1088554  89.7810222  11.9263685
  79.7500703  98.2568936  11.2885950  79.4585511  98.6198917  12.1249411
  79.1372834  97.5435944  11.1099282  80.9496385  95.8221816   3.8088520
  81.7843277  96.2611620   3.9726080  81.0855514  95.3460469   2.9896766
  77.9987891  93.3801551   9.7566008  78.4742013  93.5729197   8.9484859
  77.0753457  93.4360736   9.5109391  64.8871398  94.5425718  -0.6602914
  64.6417440  93.6388048  -0.4622704  65.0567313  94.5442868  -1.6023436
  72.5768108  85.4149394   8.7221841  73.0950052  86.1510421   8.3968330
  72.2223241  85.7213387   9.5568601  64.1567046  90.2754075  -3.1616753
  63.4636290  90.3498430  -3.8176717  63.9118797  89.5114419  -2.6395236
  72.8280702  81.8349677   4.2422738  73.1082456  81.1672866   4.8683165
  73.6131309  82.0278772   3.7297402  76.6989560  90.2567311   7.9894313
  77.6506983  90.3565408   8.0106537  76.5293011  89.4645579   8.4992398
  74.7203940  87.3422894   8.1753714  74.1253872  87.6227907   7.4800203
  74.4353637  87.8316795   8.9470455  79.1777638  93.4773430   7.1036613
  79.1453958  92.5389431   7.2896297  79.7878262  93.5557467   6.3702438
  79.3272127  90.2684474   7.1494896  78.8111175  89.4842930   6.9624825
  80.2112075  89.9403190   7.3141415  76.9882854  84.0125489   3.1090709
  76.7907675  83.7040578   3.9934041  77.5982559  84.7387128   3.2388639
  84.9954188  94.5389437   6.2442650  85.7257577  94.2774725   6.8050353
  84.3861134  93.8018159   6.2844718  83.0769485  92.6797300   6.8417101
  82.3502649  92.5453265   6.2333592  82.6616772  92.9874128   7.6473819
  70.8999662  96.3987229  14.6064474  71.8202671  96.5765829  14.8004520
  70.8649245  95.4543275  14.4544173  60.1181827  91.5925823   3.5317748
  59.7984611  90.7391131   3.2392122  59.5715255  91.8074401   4.2875716
  63.8961734  94.3088264   7.2487255  64.1147744  95.2405372   7.2675289
  64.3087508  93.9496239   8.0342059  70.8165952  84.8156349  -0.7637057
  70.0066680  84.4703434  -0.3881811  71.5050369  84.5063893  -0.1749445
  72.7456500  83.8934396   0.8587240  73.2987539  84.3129850   1.5177263
  72.9826587  82.9670144   0.9010196  68.7689599  89.8821470  16.6390004
  68.6686326  90.8315827  16.5702095  68.5511141  89.5539709  15.7666074
  67.9702671  87.1306395  -6.7769319  68.8321835  87.4561293  -6.5173501
  68.1553015  86.3437891  -7.2896253  59.9870087  95.2128735   5.5010870
  59.2933558  94.7982687   4.9880824  60.7343078  95.2549271   4.9044289
  76.1235307  86.0034921   0.3665904  75.5433976  86.6619725  -0.0156043
  75.8571240  85.1812266  -0.0446678  74.5738874  85.4039979   2.5687225
  75.0738652  85.5156514   1.7601543  75.2174482  85.1001032   3.2088033
  68.6320869  93.3118609  15.4555066  68.1487951  94.1118969  15.6618955
  68.7181809  93.3226554  14.5022510  61.9006829  95.1446988   3.3776885
  61.8777517  95.2434676   2.4258768  62.2107466  95.9912139   3.6994051
  64.5594207  97.2023143   7.4923499  65.5137461  97.1707086   7.4253431
  64.3606731  96.7413767   8.3073725  65.1493589  95.7724260  10.0594297
  65.9686478  96.2668338  10.0829134  65.4230397  94.8556228  10.0311865
  74.9060185  88.1635012  -0.5777747  74.0186040  88.4484662  -0.7957553
  75.3214174  88.0028775  -1.4250471  78.2574721  88.1881533   3.1376592
  79.0335112  88.6777985   3.4101209  77.5322856  88.6139587   3.5948461
  80.6947280  88.9009152   4.1950532  81.2891771  88.6604888   3.4843841
  80.7673864  88.1816283   4.8224069  62.9144436 102.7442763   4.5093697
  62.7798904 101.9843164   3.9431695  62.4976498 103.4683663   4.0422486
  78.6906015  89.4679280   0.4622662  78.4342949  89.0675915   1.2930870
  78.0658883  90.1823074   0.3372801  83.0018353  92.2075353   2.9693954
  82.4417911  92.2768542   3.7425516  82.3961856  92.0316337   2.2493450
  66.0713562 103.6412080   4.7212140  65.9545946 104.5857512   4.6190830
  65.2506008 103.3385642   5.1097939  60.4028503  90.1062393  10.7586494
  61.0487367  89.5961347  11.2473719  60.1945654  90.8431075  11.3329919
  72.9281896  97.1743241  16.2578635  73.7973055  97.3483893  15.8965270
  72.4488647  97.9937658  16.1354364  68.9232114  84.3702438  -3.4889610
  68.9110784  85.3144278  -3.3321339  69.8155536  84.1872583  -3.7830149
  67.0968076 104.2940342   7.9368068  67.9995322 104.3263952   8.2534563
  66.8705446 103.3640793   7.9514404  68.8521678 103.0471328   4.5978147
  67.9017309 103.0473190   4.4842519  69.1554164 102.3004063   4.0814182
  72.7384233  80.9645215   0.7656327  71.9716629  80.4103701   0.9113009
  73.1494938  81.0367083   1.6270479  64.7425994  87.2530010  14.8561508
  65.6057456  86.8966815  15.0664833  64.1691405  86.9143905  15.5436913
  81.0319016 106.3964860  13.1232952  80.2552350 106.9558780  13.1135816
  81.6709579 106.8821643  13.6447822  79.2865389 109.2050313  12.6850919
  80.0280073 109.7435357  12.4085742  78.5802374 109.8316602  12.8422471
  84.2651244 103.9456429  10.3137811  84.0212176 104.6998489   9.7772087
  84.5411174 104.3241776  11.1485058  78.0226752 106.3589961  13.4866229
  77.3925413 107.0406242  13.7201626  77.9162840 106.2473043  12.5419367
  71.6009428 106.2792248   6.8447144  71.8517466 107.1639258   7.1104720
  72.1368976 106.0996849   6.0722236  77.3007495 100.6610727  15.8491480
  76.9074441 100.1076926  16.5239124  78.1173635 100.9721306  16.2397997
  80.2175456 102.0768606  13.4411736  80.9585169 102.6775759  13.3616199
  80.4493379 101.3346244  12.8829779  75.3616794 107.2624973  11.7189966
  75.2470309 106.3610231  12.0197065  74.5061312 107.5088670  11.3674783
  84.1632619  98.1049709   7.7176018  83.8196888  98.9951351   7.6415129
  84.5311582  97.9151367   6.8545603  76.1401341 105.2330559   8.6493372
  76.8124394 105.0247921   8.0006021  75.3131127 105.0352645   8.2098604
  82.0426913 101.8592500  10.6659033  81.3954828 102.5582449  10.5723509
  82.8127928 102.2928644  11.0335281  76.5428838 108.5073162   9.4095809
  76.4048636 107.7753401  10.0107348  77.4533762 108.4182062   9.1279997
  77.8840073 105.2058339  10.7175128  77.3477430 104.7549077  11.3696725
  77.2956781 105.3404248   9.9745593  73.6179194 104.3414347   7.8028123
  73.5337383 103.7340016   7.0678533  72.7961900 104.8323365   7.8037619
  82.0515934 108.7247207  14.3043608  81.3756571 108.6241336  14.9745983
  82.8743568 108.5686420  14.7679605  68.3912448 107.5324743   5.6460566
  68.4296548 106.9988334   6.4397684  67.8852741 107.0059949   5.0271543
  75.7703210 102.3789284   9.1423108  75.8344537 103.2404115   8.7300506
  75.7070331 101.7663286   8.4095467  75.2455483 104.4512417  12.7896143
  75.8727522 104.0689494  13.4033667  74.3883402 104.2326618  13.1551835
  78.3541586 101.6699269  10.9782698  78.8775988 101.9161565  11.7409007
  78.1353919 102.5019304  10.5585835  79.5594131 102.6112964   8.6632368
  79.2190952 101.8120777   9.0653048  78.8533137 102.9114675   8.0909202
  80.2110603  99.6962276   7.1159691  81.0336672  99.2222754   6.9938582
  80.4548667 100.4752760   7.6158378  72.2094844 108.9286741   7.8639331
  71.6648312 109.7046549   7.9959606  73.0874194 109.2757546   7.7058453
  72.9960866 108.0556638  10.7569488  72.2542602 108.2039273  11.3434119
  72.6753610 108.3164903   9.8936238  78.4823540 103.7730323  14.4510062
  78.5311696 104.6492445  14.0687832  79.0246054 103.2307716  13.8781706
  80.7122829 104.5261695  11.2056421  79.8426138 104.8195261  10.9339010
  80.9482309 105.1102140  11.9263685  83.4161862 100.7441312   8.7221841
  83.9343806 101.4802339   8.3968330  83.0616995 101.0505305   9.5568601
  81.7393416 111.7279147  14.6064474  82.6596426 111.9057746  14.8004520
  81.7042999 110.7835193  14.4544173  79.6083354 105.2113388  16.6390004
  79.5080081 106.1607745  16.5702095  79.3904896 104.8831626  15.7666074
  79.4714624 108.6410526  15.4555066  78.9881706 109.4410887  15.6618955
  79.5575563 108.6518471  14.5022510  71.2422258 105.4354311  10.7586494
  71.8881121 104.9253265  11.2473719  71.0339409 106.1722993  11.3329919
  83.7675650 112.5035159  16.2578635  84.6366810 112.6775811  15.8965270
  83.2882402 113.3229575  16.1354364  75.5819749 102.5821928  14.8561508
  76.4451210 102.2258733  15.0664833  75.0085159 102.2435823  15.5436913
  60.1996353  56.3372434  -1.7183054  60.1884994  55.9425232  -2.5902550
  60.3616992  55.6038506  -1.1249282  56.9203614  59.1209546  -2.7703870
  56.6293480  60.0255177  -2.8857204  57.5560598  59.1626073  -2.0559800
  59.3531509  52.7443147  -0.1521742  58.5764843  53.3037067  -0.1618877
  59.9922072  53.2299930   0.3693129  57.6077881  55.5528600  -0.5903775
  58.3492565  56.0913644  -0.8668951  56.9014866  56.1794889  -0.4332223
  63.0833221  57.6957741  -1.9931613  63.4916577  57.2540151  -2.7376981
  62.3610482  57.1210368  -1.7397420  65.6548027  59.7145284  -6.1117260
  66.4765470  59.3125471  -6.3934578  65.6510430  59.6113518  -5.1601144
  60.7621124  61.5521001   0.0422773  60.3184978  60.7657380  -0.2756322
  61.4238338  61.7400152  -0.6233336  62.8602362  61.8323801  -1.9295825
  62.8420838  62.6532682  -2.4215556  63.7822282  61.7077876  -1.7045684
  59.3175416  59.3467930  -1.0872317  59.8503753  58.5856219  -1.3173009
  58.7889497  59.0541582  -0.3448163  68.7103094  58.3212896  -5.1085988
  68.9038985  59.2258707  -4.8626713  68.6103713  57.8620315  -4.2747403
  63.7718203  58.4719639   0.4654893  63.6203710  58.2430191  -0.4515024
  63.7622883  59.4290241   0.4786238  65.4810410  61.5038762  -1.4568625
  65.4222956  60.8197982  -2.1238042  65.8829928  62.2457752  -1.9087999
  65.4827817  59.4678346  -3.2254646  64.5954596  59.1304267  -3.1028247
  66.0526368  58.7361377  -2.9885880  61.4727654  64.0266632  -4.1035244
  62.1855626  64.6614097  -4.1759342  60.9817683  64.1230498  -4.9195242
  56.5239567  61.7761075  -3.2829673  57.2249027  62.4097558  -3.1300279
  56.0534682  62.1175807  -4.0434034  60.3728426  55.0725494   1.0288914
  59.6969063  54.9719623   1.6991290  61.1956060  54.9164708   1.4924912
  59.1151209  66.3792421  -4.7353470  59.6669517  66.5424043  -3.9704384
  59.4557403  66.9696859  -5.4073445  63.9662084  61.2053679   1.1195185
  64.5101988  61.8183637   0.6250140  63.3848929  61.7633257   1.6362198
  64.3154505  62.1283417  -6.1210237  63.3684841  62.0088768  -6.1931911
  64.6637278  61.2405915  -6.0383976  59.2617021  63.9450903  -2.7204815
  59.5704147  63.7000050  -1.8482116  60.0592503  64.1497541  -3.2085945
  67.2890878  60.6649733   0.4556506  66.4986422  60.6473872  -0.0838994
  67.0524233  61.2038027   1.2105543  67.4088753  57.5142199  -2.2310765
  67.4586758  57.3492207  -1.2895243  67.3002676  56.6469458  -2.6212885
  64.6992515  53.4973127  -0.9151459  65.6002378  53.3579592  -1.2067461
  64.7740490  53.6627582   0.0246719  68.9106950  59.9339141  -1.9868744
  68.6191758  60.2969121  -1.1505283  68.2979081  59.2206149  -2.1655412
  67.1594138  55.0571756  -3.5188686  67.6348260  55.2499402  -4.3269834
  66.2359704  55.1130941  -3.7645302  74.1560435  56.2159642  -7.0312044
  74.8863823  55.9544930  -6.4704340  73.5467380  55.4788364  -6.9909976
  60.0605908  58.0757434   1.3309780  60.9808918  58.2536033   1.5249827
  60.0255491  57.1313480   1.1789480  57.9295846  51.5591675   3.3635311
  57.8292573  52.5086032   3.2947402  57.7117388  51.2309914   2.4911381
  57.7927116  54.9888814   2.1800372  57.3094198  55.7889174   2.3864261
  57.8788055  54.9996759   1.2267816  62.0888142  58.8513446   2.9823941
  62.9579302  59.0254098   2.6210576  61.6094894  59.6707863   2.8599671
  56.2574323  65.9710547  -5.3386625  57.1601569  66.0034157  -5.0220130
  56.0311693  65.0410998  -5.3240289  73.7480618  70.5602072  -7.6130784
  74.3859028  70.4408819  -8.3167444  73.6301461  71.5082916  -7.5542832
  70.5570324  70.5129500  -7.6769259  70.2188836  70.3970565  -8.5648724
  71.4260093  70.1120665  -7.6968253  66.4157140  72.3664976 -11.6872368
  65.8522005  72.2754913 -12.4556081  66.3009535  71.5464881 -11.2069876
  71.0390107  71.6664352  -1.7183054  71.0278748  71.2717150  -2.5902550
  71.2010747  70.9330424  -1.1249282  63.9621572  73.8616168  -8.8488148
  64.7542864  73.5206992  -9.2641849  64.2018222  73.9711143  -7.9285995
  67.7597368  74.4501463  -2.7703870  67.4687234  75.3547094  -2.8857204
  68.3954353  74.4917991  -2.0559800  68.6853575  71.8278312  -6.1802510
  69.2817148  71.6034334  -6.8945547  68.7428547  71.0863057  -5.5777062
  73.3021887  68.2853526 -10.5377576  74.0884976  67.8672949 -10.8887159
  73.5660591  69.1899618 -10.3695928  78.7030314  68.2228759  -9.6344597
  79.4355486  67.6527976  -9.4006768  77.9469669  67.8350359  -9.1938092
  70.3206433  70.6456000 -12.4381255  69.9564641  70.1186621 -11.7268334
  71.1773549  70.2554469 -12.6114770  76.2255734  61.9350333  -5.1749989
  75.8939059  62.8045744  -5.3988774  75.6301347  61.6186617  -4.4955959
  72.7187254  74.1362879  -5.7754076  72.4187977  75.0387918  -5.8838269
  72.3738313  73.8695062  -4.9232923  66.1699735  70.5876676  -9.7417372
  65.2450231  70.4552890  -9.5339680  66.4184148  71.3670895  -9.2447429
  76.1184397  66.6545419  -8.0956639  75.2101275  66.5860827  -8.3897878
  76.0671993  67.1317364  -7.2674813  63.5308546  70.2309949  -8.9073583
  63.6600927  70.4844428  -7.9934171  62.8505997  70.8237657  -9.2268928
  70.1925263  68.0735065  -0.1521742  69.4158597  68.6328985  -0.1618877
  70.8315826  68.5591848   0.3693129  77.9846044  64.8561857  -6.3178765
  77.3420424  65.1494391  -6.9638970  77.4800972  64.7414778  -5.5125568
  68.4471635  70.8820518  -0.5903775  69.1886320  71.4205562  -0.8668951
  67.7408621  71.5086807  -0.4332223  73.9226975  73.0249658  -1.9931613
  74.3310331  72.5832069  -2.7376981  73.2004237  72.4502286  -1.7397420
  70.2758045  67.9622265  -4.6198056  71.1219240  68.3861679  -4.4763407
  70.2156683  67.3055890  -3.9259493  74.2455790  73.5850849  -8.2379324
  73.6164652  73.7496563  -8.9403256  73.8581452  73.9992459  -7.4668360
  73.4257490  65.6226634  -2.9616882  73.1818422  66.3768694  -3.4982607
  73.7017421  66.0011981  -2.1269635  75.3795953  72.1665246  -4.2839617
  75.5912848  72.8097006  -4.9605236  75.3325701  71.3327563  -4.7517687
  72.9822182  64.7783067  -7.3803045  72.1206661  65.0764320  -7.0886307
  73.0084617  64.9953466  -8.3122012  69.7983752  73.3225257 -10.9729239
  70.2622097  73.6012960 -11.7624617  69.5340550  72.4208702 -11.1556148
  66.6907833  72.8696739  -8.0349476  67.2609190  73.2984007  -8.6731991
  67.2815944  72.5879323  -7.3365290  67.1832999  68.0360166   0.2111535
  66.5531660  68.7176447   0.4446932  67.0769087  67.9243248  -0.7335326
  62.4777972  67.7031962  -8.8622540  61.6877026  67.9589491  -9.3382430
  62.9689219  68.5180300  -8.7570500  76.4941781  75.0437201  -6.1117260
  77.3159225  74.6417389  -6.3934578  76.4904184  74.9405436  -5.1601144
  70.2598385  74.5921245  -3.9556549  70.3242817  75.0541652  -3.1198377
  69.5509308  73.9618610  -3.8274239  60.7615675  67.9562453  -6.4307550
  61.0123713  68.8409463  -6.1649974  61.2975223  67.7767054  -7.2032458
  66.4613742  62.3380932   2.5736786  66.0680687  61.7847131   3.2484431
  67.2779882  62.6491511   2.9643304  63.4275800  73.7764790 -13.5149644
  63.9400320  74.5708040 -13.3644079  64.0798512  73.0791081 -13.5816042
  65.2370684  76.8930546 -11.4326890  65.4137313  77.8148511 -11.6205907
  66.0327518  76.5788966 -11.0032511  69.3781703  63.7538811   0.1657043
  70.1191416  64.3545964   0.0861506  69.6099626  63.0116449  -0.3924914
  64.5223041  68.9395178  -1.5564727  64.4076556  68.0380436  -1.2557628
  63.6667559  69.1858875  -1.9079911  71.6014879  76.8812919   0.0422773
  71.1578733  76.0949297  -0.2756322  72.2632092  77.0692069  -0.6233336
  66.3602000  78.4108720  -5.4316548  66.9109425  78.2825784  -6.2039554
  65.5213476  78.7103609  -5.7821655  73.6996117  77.1615719  -1.9295825
  73.6814592  77.9824600  -2.4215556  74.6216037  77.0369794  -1.7045684
  70.1569171  74.6759848  -1.0872317  70.6897508  73.9148136  -1.3173009
  69.6283252  74.3833500  -0.3448163  73.3238866  59.7819914  -5.5578675
  72.9803135  60.6721556  -5.6339565  73.6917828  59.5921572  -6.4209090
  72.4035406  62.1524569  -7.5929442  71.9000202  62.1154704  -8.4061637
  72.6966013  63.0617312  -7.5332785  68.6478292  62.2363299  -8.5863260
  69.5131289  62.0406108  -8.9457371  68.7155801  62.0073651  -7.6593904
  76.5014730  71.9994861  -8.4586459  75.8438404  72.6894122  -8.3706330
  77.3055129  72.3891293  -8.1152472  75.3120188  70.3539234 -10.4082517
  75.8252070  70.9869226  -9.9060807  75.9621412  69.7540429 -10.7739157
  71.7901019  67.8288689  -8.1624176  70.8723581  68.0503636  -8.3202488
  72.2061163  67.9035000  -9.0212469  72.5736067  69.2280105 -13.0321496
  73.3207886  69.7401502 -13.3414374  72.8427657  68.9064158 -12.1717103
  75.0214904  66.2637221 -11.0502707  74.2837661  65.7514607 -10.7192464
  75.2741678  65.8237603 -11.8619430  69.3947611  69.3367266  -9.9484747
  69.4496221  68.3841103 -10.0242270  68.5838813  69.4926705  -9.4643448
  67.3339971  67.9544326 -12.1894368  66.5207837  68.2538497 -11.7829176
  67.8298965  67.5600015 -11.4719885  69.4848549  77.9502083 -10.2560103
  69.4424728  78.1762929 -11.1851571  70.4011248  77.7165458 -10.1074302
  72.9314183  68.4186151  -3.3579474  73.2863571  68.6457624  -2.4985008
  73.5786314  68.7504527  -3.9802218  66.8254046  65.5262682  -6.5733133
  67.4653425  65.3851441  -7.2710169  65.9931576  65.2397195  -6.9494531
  78.6881299  73.6081113  -7.6418873  79.1217806  73.5156403  -6.7935819
  79.4012880  73.5838614  -8.2798857  67.6014350  74.8265112 -10.4598140
  68.3954948  74.3315432 -10.6615565  66.8906042  74.2982975 -10.8230435
  72.4209194  77.2083208  -6.1085773  72.4746217  77.7774144  -5.3408057
  71.5523976  77.3785093  -6.4731735  65.3007588  66.9100764  -4.6261321
  65.9730641  66.7018126  -5.2748672  64.4737374  66.7122850  -5.0656089
  79.5496849  73.6504814  -5.1085988  79.7432739  74.5550625  -4.8626713
  79.4497467  73.1912233  -4.2747403  71.2033160  63.5362705  -2.6095660
  70.5561075  64.2352654  -2.7031184  71.9734175  63.9698849  -2.2419412
  74.6111958  73.8011557   0.4654893  74.4597464  73.5722109  -0.4515024
  74.6016637  74.7582158   0.4786238  71.3797294  71.3743470  -4.5498841
  72.3089354  71.5254629  -4.7229873  70.9588324  71.4627490  -5.4050194
  70.1785626  75.3994134  -6.7800303  70.0396711  75.0312918  -5.9074365
  69.3900222  75.9141773  -6.9516345  71.7290841  74.7775737  -9.3911465
  71.3940674  74.7376507  -8.4953815  71.2294787  74.1120453  -9.8641055
  65.7035085  70.1843367  -3.8658884  65.5654883  69.4523606  -3.2647345
  66.6140008  70.0952267  -4.1474696  68.3317386  69.8963326  -4.3775205
  69.0417004  69.2556518  -4.4188586  68.2886694  70.1476221  -3.4549024
  76.3204164  76.8330679  -1.4568625  76.2616710  76.1489900  -2.1238042
  76.7223683  77.5749669  -1.9087999  67.0446320  66.8828544  -2.5579565
  66.5083677  66.4319282  -1.9057969  66.4563028  67.0174453  -3.3009101
  65.3394863  83.6492593  -8.6634906  65.5791461  84.2811117  -7.9855888
  64.4964060  83.2980633  -8.3769547  76.3221572  74.7970263  -3.2254646
  75.4348350  74.4596185  -3.1028247  76.8920123  74.0653295  -2.9885880
  57.9750719  71.1294355  -9.9011594  58.6621758  70.8156085 -10.4890579
  57.8198847  72.0335720 -10.1744343  62.7785441  66.0184552  -5.4726571
  62.6943630  65.4110221  -6.2076161  61.9568147  66.5093570  -5.4717074
  69.8522725  79.4571716  -6.2593402  69.7792896  80.2626687  -5.7474098
  69.4100118  79.6563681  -7.0845381  72.9509155  64.5038115 -10.1056376
  73.4477854  63.7508077 -10.4255305  72.1796136  64.5402432 -10.6713166
  80.8038912  70.2078481  -8.4638084  80.7928788  71.0903196  -8.8344151
  79.9356291  69.8550032  -8.6583547  72.3121408  79.3558550  -4.1035244
  73.0249381  79.9906015  -4.1759342  71.8211437  79.4522416  -4.9195242
  74.0338935  73.2609802 -12.5317952  73.0995214  73.3811265 -12.7013248
  74.2115604  72.3582269 -12.7957942  69.5344123  66.6455498 -10.3784691
  69.1641911  66.0926539  -9.6903785  70.0303216  66.0413632 -10.9309691
  77.4211487  69.1027122 -11.9967918  77.8871939  69.9355113 -12.0707615
  77.8718987  68.6372103 -11.2922660  67.3633322  77.1052993  -3.2829673
  68.0642781  77.7389476  -3.1300279  66.8928437  77.4467725  -4.0434034
  75.3928149  61.4707709  -7.9577017  74.4791229  61.7011935  -7.7894810
  75.8221251  61.5546153  -7.1062984  75.1634608  69.6597601  -5.4577123
  74.5106058  69.9073508  -6.1124670  75.5414988  68.8461739  -5.7914645
  71.2122181  70.4017412   1.0288914  70.5362818  70.3011541   1.6991290
  72.0349815  70.2456625   1.4924912  62.9601040  76.6389348  -6.3498570
  63.5454477  75.8933036  -6.2170666  62.7625878  76.9493305  -5.4661906
  65.8139695  79.6740596 -11.3336128  65.1450071  80.1586723 -11.8172088
  65.6752565  79.9209816 -10.4192749  57.5518695  69.2094948  -7.6294127
  57.5902794  68.6758539  -6.8357009  57.0458988  68.6830154  -8.2483150
  69.9544964  81.7084339  -4.7353470  70.5063272  81.8715961  -3.9704384
  70.2951157  82.2988777  -5.4073445  64.9309457  64.0559489  -4.1331585
  64.9950784  64.9174320  -4.5454187  64.8676577  63.4433491  -4.8659226
  64.4061730  66.1282621  -0.4858551  65.0333768  65.7459699   0.1278974
  63.5489648  65.9096823  -0.1202858  74.8055838  76.5345597   1.1195185
  75.3495742  77.1475555   0.6250140  74.2242683  77.0925175   1.6362198
  73.0913351  79.6566315  -7.7489787  72.9664491  78.8556054  -8.2578842
  73.7492442  80.1512508  -8.2375817  64.7121519  66.0115047  -8.5712647
  63.9908105  66.6251015  -8.7105174  65.5014775  66.5472812  -8.6496001
  75.1548260  77.4575335  -6.1210237  74.2078595  77.3380686  -6.1931911
  75.5031033  76.5697833  -6.0383976  67.5147833  63.3469474  -2.2971995
  68.0382235  63.5931770  -1.5345686  67.2960166  64.1789508  -2.7168858
  72.1594693  77.2528051  -9.9205885  72.0119655  76.3244758  -9.7398315
  72.9848186  77.2748142 -10.4048810  68.7200378  64.2883169  -4.6122325
  68.3797198  63.4890982  -4.2101645  68.0139384  64.5884880  -5.1845492
  69.3716850  61.3732481  -6.1595002  70.1942919  60.8992959  -6.2816112
  69.6154913  62.1522965  -5.6596316  66.8955429  68.0651602  -8.3503023
  66.7500009  68.3791905  -7.4578742  66.4180632  68.6836502  -8.9032125
  68.7551811  65.0554150  -8.3022134  68.7413380  64.1595243  -8.6389836
  69.4724239  65.0624814  -7.6683848  70.6077942  65.4891490  -6.2569006
  70.3495720  66.4108561  -6.2584676  70.0762982  65.0921925  -5.5668542
  61.3701091  70.6056946  -5.4115362  60.8254559  71.3816754  -5.2795088
  62.2480441  70.9527751  -5.5696241  62.1567113  69.7326842  -2.5185205
  61.4148849  69.8809478  -1.9320575  61.8359857  69.9935108  -3.3818456
  70.1010775  79.2742821  -2.7204815  70.4097902  79.0291967  -1.8482116
  70.8986257  79.4789459  -3.2085945  62.6023726  77.6192271 -10.4874811
  63.4281746  77.3196043 -10.8676167  62.2517778  76.8499894 -10.0385022
  67.5705259  76.9718739  -8.4177137  66.9485269  76.3089444  -8.7174909
  68.2410126  76.9979871  -9.1003489  60.8032331  75.5378598  -9.5285877
  59.9664240  75.1100772  -9.7101876  60.7755977  75.7311041  -8.5915086
  67.6429787  65.4500527   1.1755369  67.6917942  66.3262650   0.7933139
  68.1852301  64.9077920   0.6027012  78.1284633  75.9941651   0.4556506
  77.3380176  75.9765790  -0.0838994  77.8917987  76.5329944   1.2105543
  78.2482508  72.8434117  -2.2310765  78.2980513  72.6784125  -1.2895243
  78.1396431  71.9761376  -2.6212885  75.5386270  68.8265045  -0.9151459
  76.4396133  68.6871510  -1.2067461  75.6134244  68.9919500   0.0246719
  69.8729075  66.2031900  -2.0698272  69.0032385  66.4965466  -2.3415684
  70.1088556  66.7872345  -1.3491009  79.7500704  75.2631059  -1.9868744
  79.4585513  75.6261039  -1.1505283  79.1372836  74.5498067  -2.1655412
  80.9496387  72.8283938  -9.4666174  81.7843278  73.2673742  -9.3028613
  81.0855516  72.3522592 -10.2857928  77.9987893  70.3863673  -3.5188686
  78.4742014  70.5791320  -4.3269834  77.0753458  70.4422859  -3.7645302
  72.5768109  62.4211517  -4.5532852  73.0950053  63.1572544  -4.8786363
  72.2223242  62.7275510  -3.7186093  72.8280703  58.8411799  -9.0331955
  73.1082457  58.1734988  -8.4071529  73.6131310  59.0340895  -9.5457291
  76.6989562  67.2629433  -5.2860380  77.6506985  67.3627531  -5.2648156
  76.5293012  66.4707702  -4.7762296  74.7203941  64.3485017  -5.1000979
  74.1253873  64.6290029  -5.7954491  74.4353638  64.8378917  -4.3284238
  79.1777639  70.4835553  -6.1718081  79.1453960  69.5451554  -5.9858397
  79.7878263  70.5619590  -6.9052256  79.3272128  67.2746596  -6.1259797
  78.8111177  66.4905053  -6.3129869  80.2112076  66.9465313  -5.9613278
  76.9882855  61.0187612 -10.1663985  76.7907676  60.7102700  -9.2820653
  77.5982560  61.7449251 -10.0366055  84.9954189  71.5451560  -7.0312044
  85.7257578  71.2836848  -6.4704340  84.3861135  70.8080282  -6.9909976
  83.0769486  69.6859422  -6.4337593  82.3502650  69.5515387  -7.0421101
  82.6616773  69.9936251  -5.6280875  70.8999663  73.4049352   1.3309780
  71.8202672  73.5827951   1.5249827  70.8649246  72.4605397   1.1789480
  63.8961735  71.3150387  -6.0267438  64.1147745  72.2467495  -6.0079405
  64.3087509  70.9558361  -5.2412635  68.7689601  66.8883593   3.3635311
  68.6686328  67.8377949   3.2947402  68.5511143  66.5601831   2.4911381
  59.9870088  72.2190857  -7.7743823  59.2933559  71.8044810  -8.2873869
  60.7343079  72.2611394  -8.3710404  74.5738875  62.4102102 -10.7067469
  75.0738653  62.5218636 -11.5153150  75.2174483  62.1063155 -10.0666660
  68.6320871  70.3180731   2.1800372  68.1487952  71.1181091   2.3864261
  68.7181810  70.3288676   1.2267816  61.9006830  72.1509111  -9.8977808
  61.8777518  72.2496798 -10.8495925  62.2107467  72.9974262  -9.5760642
  64.5594208  74.2085266  -5.7831194  65.5137462  74.1769208  -5.8501262
  64.3606732  73.7475890  -4.9680968  65.1493590  72.7786382  -3.2160396
  65.9686479  73.2730461  -3.1925559  65.4230398  71.8618350  -3.2442829
  78.2574723  65.1943655 -10.1378102  79.0335113  65.6840108  -9.8653485
  77.5322857  65.6201710  -9.6806232  80.6947281  65.9071275  -9.0804161
  81.2891772  65.6667011  -9.7910853  80.7673865  65.1878405  -8.4530625
  62.9144437  79.7504886  -8.7660996  62.7798905  78.9905286  -9.3322998
  62.4976499  80.4745785  -9.2332207  78.6906016  66.4741402 -12.8132031
  78.4342950  66.0738038 -11.9823823  78.0658884  67.1885196 -12.9381892
  83.0018354  69.2137475 -10.3060740  82.4417912  69.2830665  -9.5329178
  82.3961857  69.0378460 -11.0261244  66.0713563  80.6474203  -8.5542553
  65.9545947  81.5919635  -8.6563863  65.2506009  80.3447764  -8.1656754
  60.4028505  67.1124516  -2.5168199  61.0487368  66.6023470  -2.0280974
  60.1945656  67.8493198  -1.9424774  72.9281897  74.1805363   2.9823941
  73.7973056  74.3546016   2.6210576  72.4488648  74.9999780   2.8599671
  67.0968077  81.3002464  -5.3386625  67.9995324  81.3326075  -5.0220130
  66.8705447  80.3702915  -5.3240289  68.8521679  80.0533451  -8.6776546
  67.9017310  80.0535313  -8.7912174  69.1554165  79.3066186  -9.1940512
  64.7425996  64.2592133   1.5806815  65.6057457  63.9028938   1.7910140
  64.1691406  63.9206028   2.2682219  81.0319018  83.4026982  -0.1521742
  80.2552352  83.9620902  -0.1618877  81.6709581  83.8883765   0.3693129
  79.2865390  86.2112436  -0.5903775  80.0280074  86.7497480  -0.8668951
  78.5802375  86.8378724  -0.4332223  84.2651245  80.9518551  -2.9616882
  84.0212177  81.7060612  -3.4982607  84.5411175  81.3303899  -2.1269635
  78.0226754  83.3652084   0.2111535  77.3925414  84.0468365   0.4446932
  77.9162842  83.2535165  -0.7335326  71.6009429  83.2854370  -6.4307550
  71.8517467  84.1701380  -6.1649974  72.1368977  83.1058972  -7.2032458
  77.3007496  77.6672850   2.5736786  76.9074442  77.1139048   3.2484431
  78.1173637  77.9783428   2.9643304  80.2175457  79.0830729   0.1657043
  80.9585171  79.6837882   0.0861506  80.4493380  78.3408367  -0.3924914
  75.3616795  84.2687096  -1.5564727  75.2470311  83.3672353  -1.2557628
  74.5061313  84.5150793  -1.9079911  84.1632620  75.1111832  -5.5578675
  83.8196890  76.0013473  -5.6339565  84.5311583  74.9213489  -6.4209090
  76.1401342  82.2392681  -4.6261321  76.8124396  82.0310044  -5.2748672
  75.3131129  82.0414767  -5.0656089  82.0426914  78.8654622  -2.6095660
  81.3954829  79.5644572  -2.7031184  82.8127930  79.2990766  -2.2419412
  76.5428839  85.5135284  -3.8658884  76.4048637  84.7815523  -3.2647345
  77.4533763  85.4244184  -4.1474696  77.8840074  82.2120462  -2.5579565
  77.3477431  81.7611200  -1.9057969  77.2956782  82.3466370  -3.3009101
  73.6179195  81.3476469  -5.4726571  73.5337384  80.7402139  -6.2076161
  72.7961902  81.8385488  -5.4717074  82.0515935  85.7309329   1.0288914
  81.3756572  85.6303459   1.6991290  82.8743569  85.5748543   1.4924912
  68.3912449  84.5386866  -7.6294127  68.4296549  84.0050457  -6.8357009
  67.8852742  84.0122072  -8.2483150  75.7703212  79.3851407  -4.1331585
  75.8344538  80.2466237  -4.5454187  75.7070332  78.7725408  -4.8659226
  75.2455484  81.4574539  -0.4858551  75.8727523  81.0751616   0.1278974
  74.3883403  81.2388741  -0.1202858  78.3541587  78.6761391  -2.2971995
  78.8775989  78.9223688  -1.5345686  78.1353921  79.5081426  -2.7168858
  79.5594132  79.6175086  -4.6122325  79.2190953  78.8182899  -4.2101645
  78.8533139  79.9176797  -5.1845492  80.2110604  76.7024399  -6.1595002
  81.0336674  76.2284877  -6.2816112  80.4548668  77.4814883  -5.6596316
  72.2094845  85.9348864  -5.4115362  71.6648313  86.7108672  -5.2795088
  73.0874195  86.2819668  -5.5696241  72.9960867  85.0618760  -2.5185205
  72.2542603  85.2101396  -1.9320575  72.6753611  85.3227026  -3.3818456
  78.4823541  80.7792445   1.1755369  78.5311697  81.6554568   0.7933139
  79.0246056  80.2369838   0.6027012  80.7122830  81.5323818  -2.0698272
  79.8426139  81.8257384  -2.3415684  80.9482310  82.1164263  -1.3491009
  83.4161864  77.7503434  -4.5532852  83.9343807  78.4864461  -4.8786363
  83.0616996  78.0567428  -3.7186093  81.7393417  88.7341270   1.3309780
  82.6596427  88.9119869   1.5249827  81.7043000  87.7897315   1.1789480
  79.6083355  82.2175510   3.3635311  79.5080082  83.1669867   3.2947402
  79.3904897  81.8893749   2.4911381  79.4714625  85.6472649   2.1800372
  78.9881707  86.4473009   2.3864261  79.5575564  85.6580594   1.2267816
  71.2422259  82.4416434  -2.5168199  71.8881123  81.9315388  -2.0280974
  71.0339410  83.1785115  -1.9424774  83.7675651  89.5097281   2.9823941
  84.6366811  89.6837933   2.6210576  83.2882403  90.3291698   2.8599671
  75.5819750  79.5884051   1.5806815  76.4451212  79.2320856   1.7910140
  75.0085161  79.2497946   2.2682219  81.0319019  60.4089105 -13.4276435
  80.2552353  60.9683025 -13.4373570  81.6709582  60.8945888 -12.9061565
  79.2865391  63.2174558 -13.8658468  80.0280076  63.7559602 -14.1423644
  78.5802377  63.8440847 -13.7086916  82.0515937  62.7371452 -12.2465779
  81.3756574  62.6365581 -11.5763404  82.8743571  62.5810666 -11.7829782
  81.7393419  65.7403392 -11.9444913  82.6596428  65.9181991 -11.7504866
  81.7043002  64.7959438 -12.0965214  79.6083356  59.2237633  -9.9119383
  79.5080083  60.1731990  -9.9807292  79.3904898  58.8955872 -10.7843313
  79.4714627  62.6534772 -11.0954321  78.9881708  63.4535132 -10.8890432
  79.5575566  62.6642716 -12.0486877  83.7675653  66.5159404 -10.2930752
  84.6366812  66.6900056 -10.6544117  83.2882404  67.3353821 -10.4155023
   2.1089756 118.5083574  60.0594699   1.4664136 118.8016107  59.4134493
   1.6044685 118.3936494  60.8647895   3.4515840 120.9268313  60.2513666
   2.9354889 120.1426769  60.0643595   4.3355789 120.5987029  60.4160186
   1.1126567 114.6709328  56.2109479   0.9151388 114.3624416  57.0952811
   1.7226273 115.3970967  56.3407409   2.3818435 118.8465372  56.2395362
   3.1578825 119.3361824  56.5119979   1.6566569 119.2723426  56.6967232
   4.8190994 119.5592991  57.2969303   5.4135484 119.3188727  56.5862611
   4.8917577 118.8400121  57.9242839   2.8149729 120.1263119  53.5641433
   2.5586663 119.7259754  54.3949640   2.1902597 120.8406912  53.4391572
   2.8274027  98.8812598  43.4674173   3.5599199  98.3111814  43.7012002
   2.0713383  98.4934198  43.9080678   2.1089757  95.5145696  46.7840005
   1.4664138  95.8078230  46.1379800   1.6044686  95.3998617  47.5893202
   2.2488735 105.1789126  42.2183810   1.5639773 105.5588027  41.6680843
   2.3332584 105.7884453  42.9515758   0.6185495 105.7021040  46.9901511
   1.4402938 105.3001228  46.7084192   0.6147898 105.5989274  47.9417627
   8.7091488 102.0459789  43.3386482   7.9555196 101.4767187  43.1830487
   8.8439029 102.0122453  44.2857117   2.3867136 103.1844719  37.9865704
   1.6096579 102.8455878  37.5420866   3.0658617 103.1897342  37.3120669
   2.7855633 102.1988425  40.4488626   2.6473532 102.3890021  39.5209815
   2.4291852 102.9607808  40.9056677   2.8125013 104.2664952  45.4599897
   3.2461520 104.1740241  46.3082951   3.5256594 104.2422453  44.8219913
   3.6740562 104.3088653  47.9932783   3.8676453 105.2134463  48.2392057
   3.5741181 103.8496072  48.8271368   4.9282626 100.8662320  44.6380686
   4.9172502 101.7487035  44.2674619   4.0600005 100.5133870  44.4435223
   1.5455200  99.7610961  41.1050852   2.0115652 100.5938952  41.0311155
   1.9962701  99.2955942  41.8096111   5.5307236 102.0162539  41.2430149
   5.9738382 101.2669864  40.8449272   4.6533746 102.0072675  40.8603881
   0.6643017 108.5692880  36.7236748   1.3593922 109.1899573  36.9424062
   1.0066167 107.7188232  36.9989126   2.5634440 106.0192586  38.2524079
   3.0885764 106.3579859  37.5273399   2.4756793 105.0839601  38.0687213
   2.2528346 106.6525490  53.5575276   1.4623890 106.6349628  53.0179776
   2.0161701 107.1913783  54.3124313   2.3726221 103.5017956  50.8708005
   2.4224226 103.3367963  51.8123528   2.2640144 102.6345215  50.4805886
   3.8744418 105.9214897  51.1150027   3.5829226 106.2844878  51.9513488
   3.2616549 105.2081906  50.9363359   5.0740100 103.4867777  43.6352597
   5.9086992 103.9257581  43.7990157   5.2099229 103.0106430  42.8160843
   2.1231606 101.0447512  49.5830085   2.5985728 101.2375158  48.7748936
   1.1997172 101.1006698  49.3373468   0.8233275  97.9213272  47.8158390
   1.7750698  98.0211370  47.8370614   0.6536726  97.1291541  48.3256475
   3.3021353 101.1419392  46.9300690   3.2697673 100.2035393  47.1160374
   3.9121977 101.2203429  46.1966515   3.4515841  97.9330435  46.9758973
   2.9354890  97.1488892  46.7888902   4.3355790  97.6049152  47.1405492
   1.1126568  91.6771451  42.9354786   0.9151390  91.3686539  43.8198118
   1.7226274  92.4033090  43.0652716   9.1197903 102.2035399  46.0706727
   9.8501291 101.9420687  46.6314430   8.5104848 101.4664121  46.1108795
   7.2013200 100.3443261  46.6681178   6.4746364 100.2099226  46.0597669
   6.7860487 100.6520090  47.4737896   2.3818436  95.8527494  42.9640669
   3.1578826  96.3423947  43.2365286   1.6566570  96.2785549  43.4212538
   4.8190995  96.5655114  44.0214609   5.4135486  96.3250849  43.3107918
   4.8917579  95.8462244  44.6488146   2.8149730  97.1325241  40.2886739
   2.5586664  96.7321877  41.1194947   2.1902598  97.8469035  40.1636878
   7.1262068  99.8721314  42.7958031   6.5661626  99.9414504  43.5689593
   6.5205571  99.6962299  42.0757527   8.7118086 116.5477828  45.4887986
   9.3496496 116.4284576  44.7851326   8.5938929 117.4958672  45.5475938
   5.5207792 116.5005256  45.4249511   5.1826304 116.3846321  44.5370046
   6.3897561 116.0996422  45.4050517   1.3794608 118.3540733  41.4146402
   0.8159473 118.2630670  40.6462690   1.2647003 117.5340637  41.8948894
   6.0027575 117.6540108  51.3835717   5.9916216 117.2592906  50.5116220
   6.1648215 116.9206181  51.9769488   3.6491043 117.8154068  46.9216260
   4.2454616 117.5910091  46.2073223   3.7066015 117.0738814  47.5241708
   8.2659355 114.2729282  42.5641194   9.0522444 113.8548705  42.2131611
   8.5298059 115.1775374  42.7322843   8.4369432 119.7102132  37.2629851
   7.8015265 119.7836759  37.9750756   8.1066838 120.2995731  36.5848930
  13.6667782 114.2104515  43.4674173  14.3992954 113.6403732  43.7012002
  12.9107137 113.8226116  43.9080678   5.2843901 116.6331757  40.6637515
   4.9202109 116.1062378  41.3750437   6.1411017 116.2430226  40.4904001
  11.1893202 107.9226089  47.9268781  10.8576527 108.7921500  47.7029996
  10.5938815 107.6062373  48.6062812   4.9249388 111.6621657  35.6598864
   5.0923791 112.5301893  36.0269335   4.7346557 111.8248938  34.7360153
   7.6824722 120.1238635  47.3264694   7.3825445 121.0263674  47.2180501
   7.3375781 119.8570819  48.1785847  11.0821865 112.6421176  45.0062132
  10.1738743 112.5736584  44.7120892  11.0309461 113.1193121  45.8343957
   4.9038609 114.1179314  36.6445531   4.7838234 114.5636365  37.4831011
   4.2091198 114.4664632  36.0859069   5.1562731 114.0610821  52.9497029
   4.3796065 114.6204741  52.9399893   5.7953294 114.5467604  53.4711899
  12.9483512 110.8437614  46.7840005  12.3057892 111.1370147  46.1379800
  12.4438440 110.7290534  47.5893202  10.6023675 114.5900787  37.4725865
  11.5141532 114.8228174  37.2973562  10.0933322 115.1737831  36.9100943
   3.4109103 116.8696275  52.5114996   4.1523788 117.4081319  52.2349819
   2.7046089 117.4962563  52.6686548   8.8864443 119.0125415  51.1087157
   9.2947799 118.5707826  50.3641790   8.1641705 118.4378043  51.3621350
   5.2395513 113.9498022  48.4820714   6.0856708 114.3737435  48.6255363
   5.1794151 113.2931646  49.1759277   9.2093258 119.5726606  44.8639446
   8.5802120 119.7372320  44.1615514   8.8218920 119.9868215  45.6350410
  13.0882490 120.5081044  42.2183810  12.4033528 120.8879945  41.6680843
  13.1726339 121.1176370  42.9515758   8.3894958 111.6102390  50.1401888
   8.1455890 112.3644451  49.6036164   8.6654889 111.9887738  50.9749135
  10.3433421 118.1541003  48.8179153  10.5550316 118.7972762  48.1413535
  10.2963169 117.3203319  48.3501084   7.9459650 110.7658823  45.7215726
   7.0844129 111.0640077  46.0132463   7.9722085 110.9829222  44.7896758
   4.7621220 119.3101014  42.1289531   5.2259565 119.5888717  41.3394154
   4.4978018 118.4084458  41.9462622   1.6545301 118.8572495  45.0669295
   2.2246658 119.2859764  44.4286779   2.2453413 118.5755080  45.7653480
   3.6990106 115.4324166  38.9379096   4.4014149 115.8845210  39.4053023
   3.3670734 114.7907985  39.5658990   2.1470467 114.0235923  53.3130306
   1.5169128 114.7052204  53.5465703   2.0406555 113.9119004  52.3683444
  11.4579249 121.0312958  46.9901511  12.2796693 120.6293145  46.7084192
  11.4541652 120.9281192  47.9417627   5.2235853 120.5797001  49.1462221
   5.2880285 121.0417409  49.9820393   4.5146777 119.9494366  49.2744531
  19.5485242 117.3751706  43.3386482  18.7948951 116.8059105  43.1830487
  19.6832783 117.3414371  44.2857117   1.4251210 108.3256689  55.6755557
   1.0318155 107.7722887  56.3503201   2.2417350 108.6367267  56.0662074
   4.3419171 109.7414568  53.2675813   5.0828884 110.3421721  53.1880276
   4.5737094 108.9992205  52.7093856   5.1206639 120.6635605  52.0146453
   5.6534976 119.9023893  51.7845761   4.5920720 120.3709256  52.7570608
   8.2876334 105.7695671  47.5440095   7.9440603 106.6597312  47.4679206
   8.6555296 105.5797328  46.6809680   8.2526617 115.7604282  36.0512530
   7.7373240 116.5308886  36.2900918   7.9803925 115.0869418  36.6745592
   5.8373728 110.6053983  41.1097769   4.9815324 110.2160833  40.9303407
   6.2500679 110.6845943  40.2497554   7.3672874 108.1400326  45.5089328
   6.8637670 108.1030461  44.6957134   7.6603481 109.0493069  45.5685985
   3.6115760 108.2239056  44.5155510   4.4768757 108.0281864  44.1561400
   3.6793269 107.9949407  45.4424867  13.2260891 118.5136636  37.9865704
  12.4490333 118.1747796  37.5420866  13.9052372 118.5189260  37.3120669
   8.0412920 113.6331374  37.8772311   7.7363055 113.9477523  38.7282455
   8.9943362 113.7112794  37.9199644   6.4859352 119.7921597  39.5265265
   5.9580713 119.0574357  39.2138503   5.9846854 120.5696274  39.2805234
  11.4652198 117.9870618  44.6432312  10.8075872 118.6769879  44.7312440
  12.2692597 118.3767050  44.9866298   1.2178079 110.4541263  41.8871877
   1.7921831 110.2316445  41.1545070   1.8049062 110.5229958  42.6400478
  10.2757656 116.3414990  42.6936253  10.7889538 116.9744982  43.1957963
  10.9258880 115.7416186  42.3279613   3.5200747 107.3282512  40.6146946
   2.8665159 107.0131530  39.9903561   3.4781221 106.7058253  41.3406769
   6.7538487 113.8164446  44.9394594   5.8361049 114.0379393  44.7816282
   7.1698631 113.8910756  44.0806301   7.5373535 115.2155862  40.0697274
   8.2845354 115.7277259  39.7604396   7.8065125 114.8939914  40.9301668
   5.8100185 117.7114402  37.0524228   4.9011404 117.4273435  37.1496698
   5.8395269 118.1313481  36.1927535  11.0419453 121.3220992  40.8215396
  10.5881780 120.4811902  40.8780587  10.4113419 121.9582390  41.1590176
   9.9852372 112.2512978  42.0516063   9.2475129 111.7390364  42.3826306
  10.2379146 111.8113359  41.2399340   9.4852392 123.1597488  41.7565214
   9.7775366 123.7202546  41.0377580   9.9951012 123.4526049  42.5118373
  10.0864000 105.0289230  42.6457833  10.3922876 104.1686593  42.3583748
  10.8116604 105.6206850  42.4456827   4.3585079 115.3243023  43.1534024
   4.4133689 114.3716859  43.0776500   3.5476281 115.4802462  43.6375322
   2.2977439 113.9420083  40.9124403   1.4845305 114.2414253  41.3189595
   2.7936433 113.5475771  41.6298885   7.8951651 114.4061907  49.7439297
   8.2501039 114.6333380  50.6033762   8.5423782 114.7380284  49.1216552
  13.6249388 117.5280343  40.4488626  13.4867286 117.7181939  39.5209815
  13.2685607 118.2899726  40.9056677   1.7891514 111.5138438  46.5285638
   2.4290893 111.3727197  45.8308601   0.9569044 111.2272952  46.1524240
  13.6518767 119.5956870  45.4599897  14.0855274 119.5032159  46.3082951
  14.3650348 119.5714370  44.8219913   2.5651818 120.8140869  42.6420630
   3.3592416 120.3191189  42.4403205   1.8543510 120.2858732  42.2788336
  14.5134317 119.6380571  47.9932783  14.7070207 120.5426381  48.2392057
  14.4134935 119.1787990  48.8271368   6.1670628 109.5238461  50.4923110
   5.5198543 110.2228411  50.3987586   6.9371643 109.9574605  50.8599358
   9.5749426 119.7887313  53.5673663   9.4234932 119.5597865  52.6503747
   9.5654105 120.7457915  53.5805008   6.3434762 117.3619226  48.5519930
   7.2726822 117.5130386  48.3788897   5.9225792 117.4503247  47.6968576
   6.6928309 120.7651493  43.7107305   6.3578142 120.7252263  44.6064955
   6.1932255 120.0996209  43.2377715   0.6672553 116.1719123  49.2359886
   0.5292351 115.4399362  49.8371425   1.5777476 116.0828023  48.9544074
   3.2954854 115.8839083  48.7243566   4.0054472 115.2432275  48.6830184
   3.2524162 116.1351977  49.6469747  11.2841632 122.8206436  51.6450145
  11.2254178 122.1365656  50.9780728  11.6861151 123.5625426  51.1930771
   2.0083788 112.8704301  50.5439205   1.4721145 112.4195039  51.1960802
   1.4200496 113.0050209  49.8009670  11.2859040 120.7846020  49.8764125
  10.3985818 120.4471942  49.9990524  11.8557591 120.0529051  50.1132890
   7.9146623 110.4913872  42.9962395   8.4115322 109.7383834  42.6763465
   7.1433604 110.5278188  42.4305604  15.7676380 116.1954237  44.6380686
  15.7566256 117.0778953  44.2674619  14.8993760 115.8425788  44.4435223
   8.9976403 119.2485559  40.5700818   8.0632682 119.3687021  40.4005523
   9.1753072 118.3458026  40.3060828   4.4981591 112.6331255  42.7234079
   4.1279379 112.0802295  43.4114985   4.9940684 112.0289388  42.1709079
  12.3848955 115.0902878  41.1050852  12.8509407 115.9230870  41.0311155
  12.8356455 114.6247860  41.8096111  10.4525186 121.4346700  38.1037004
  10.7285030 121.3203294  39.0130878   9.5829685 121.0364184  38.0649177
  10.3565617 107.4583465  45.1441754   9.4428697 107.6887692  45.3123961
  10.7858719 107.5421909  45.9955786  10.1272076 115.6473357  47.6441648
   9.4743526 115.8949265  46.9894100  10.5052456 114.8337495  47.3104125
   6.1759649 116.3893168  54.1307685   5.5000286 116.2887298  54.8010060
   6.9987283 116.2332382  54.5943682   9.7693306 122.5221353  54.2213955
  10.3133210 123.1351311  53.7268910   9.1880151 123.0800932  54.7380968
  10.1185728 123.4451091  46.9808533   9.1716063 123.3256443  46.9086860
  10.4668501 122.5573589  47.0634794   2.4785301 109.3345230  50.8046775
   3.0019703 109.5807527  51.5673084   2.2597634 110.1665265  50.3849912
   0.9894405 111.8921875  39.0393377   1.3290478 112.4207796  38.3171986
   1.4366526 112.2302281  39.8151944  10.7266283 124.0632366  44.2677758
  11.6512830 123.8575228  44.1302209  10.5581586 123.8148767  45.1767100
   3.6837846 110.2758925  48.4896445   3.3434666 109.4766738  48.8917125
   2.9776852 110.5760636  47.9173279   4.3354318 107.3608238  46.9423768
   5.1580387 106.8868716  46.8202659   4.5792381 108.1398722  47.4422455
   2.9762552 110.3896496  37.2386670   3.6970915 110.7677749  36.7350387
   2.3527856 111.1085373  37.3421648   7.1193675 111.0941645  38.1745003
   7.3357290 111.9766283  37.8733831   6.6387742 110.7027859  37.4450644
   1.8592897 114.0527358  44.7515747   1.7137477 114.3667661  45.6440029
   1.3818100 114.6712259  44.1986646   3.7189279 111.0429906  44.7996637
   3.7050848 110.1471000  44.4628935   4.4361708 111.0500570  45.4334923
   5.5715410 111.4767247  46.8449764   5.3133188 112.3984317  46.8434095
   5.0400451 111.0797681  47.5350228   3.1226175 109.9244287  40.0684207
   3.2442087 108.9960933  40.2675094   2.8328218 109.9382973  39.1562522
   5.9917366 107.6099197  43.2050927   6.0139063 107.6738530  42.2502906
   6.4085425 106.7703706  43.3991433  16.3700990 117.3454457  41.2430149
  16.8132136 116.5961782  40.8449272  15.4927500 117.3364593  40.8603881
  11.5036771 123.8984798  36.7236748  12.1987676 124.5191491  36.9424062
  11.8459922 123.0480149  36.9989126  13.4028195 121.3484504  38.2524079
  13.9279519 121.6871776  37.5273399  13.3150547 120.4131519  38.0687213
   2.6067255 111.4376284  54.2774139   2.6555410 112.3138407  53.8951909
   3.1489769 110.8953677  53.7045783  13.0922101 121.9817407  53.5575276
  12.3017644 121.9641546  53.0179776  12.8555455 122.5205701  54.3124313
  13.2119976 118.8309874  50.8708005  13.2617981 118.6659881  51.8123528
  13.1033899 117.9637133  50.4805886  10.5023738 114.8140802  52.1867312
  11.4033601 114.6747267  51.8951310  10.5771713 114.9795257  53.1265489
   4.8366543 112.1907656  51.0320498   3.9669853 112.4841222  50.7603087
   5.0726024 112.7748101  51.7527762  14.7138172 121.2506815  51.1150027
  14.4222981 121.6136796  51.9513488  14.1010304 120.5373823  50.9363359
  15.9133855 118.8159695  43.6352597  16.7480746 119.2549499  43.7990157
  16.0492984 118.3398348  42.8160843  12.9625361 116.3739430  49.5830085
  13.4379482 116.5667076  48.7748936  12.0390926 116.4298616  49.3373468
   7.5405577 108.4087273  48.5485918   8.0587521 109.1448300  48.2232407
   7.1860710 108.7151267  49.3832678   7.7918171 104.8287556  44.0686815
   8.0719925 104.1610745  44.6947242   8.5768778 105.0216652  43.5561479
  11.6627030 113.2505190  47.8158390  12.6144453 113.3503288  47.8370614
  11.4930480 112.4583458  48.3256475   9.6841409 110.3360773  48.0017791
   9.0891341 110.6165786  47.3064280   9.3991106 110.8254674  48.7734532
  14.1415107 116.4711310  46.9300690  14.1091428 115.5327310  47.1160374
  14.7515731 116.5495346  46.1966515  14.2909596 113.2622353  46.9758973
  13.7748645 112.4780810  46.7888902  15.1749544 112.9341070  47.1405492
  11.9520323 107.0063369  42.9354786  11.7545144 106.6978457  43.8198118
  12.5620028 107.7325007  43.0652716  19.9591657 117.5327316  46.0706727
  20.6895046 117.2712605  46.6314430  19.3498603 116.7956038  46.1108795
  18.0406954 115.6735179  46.6681178  17.3140118 115.5391144  46.0597669
  17.6254241 115.9812008  47.4737896   5.8637131 119.3925109  54.4328551
   6.7840140 119.5703708  54.6268597   5.8286714 118.4481154  54.2808250
   5.7803421 107.8094229  39.0627020   4.9704150 107.4641314  39.4382266
   6.4687838 107.5001772  39.6514632   7.7093969 106.8872275  40.6851317
   8.2625008 107.3067729  41.3441340   7.9464056 105.9608024  40.7274273
   3.7327069 112.8759349  56.4654081   3.6323796 113.8253706  56.3966172
   3.5148611 112.5477588  55.5930151  11.0872777 108.9972801  40.1929981
  10.5071446 109.6557605  39.8108034  10.8208709 108.1750145  39.7817399
   9.5376343 108.3977858  42.3951302  10.0376121 108.5094393  41.5865620
  10.1811951 108.0938911  43.0352110   3.5958339 116.3056488  55.2819143
   3.1125420 117.1056848  55.4883032   3.6819278 116.3164433  54.3286587
   9.8697655 111.1572891  39.2486330   8.9823510 111.4422542  39.0306524
  10.2851644 110.9966654  38.4013606  13.2212191 111.1819412  42.9640669
  13.9972581 111.6715864  43.2365286  12.4960325 111.6077466  43.4212538
  15.6584749 111.8947031  44.0214609  16.2529240 111.6542767  43.3107918
  15.7311333 111.1754162  44.6488146   9.8438678 116.6727427  39.4636620
   9.7873880 117.1295978  38.6244252  10.3967021 115.9118112  39.2859462
  13.6543484 112.4617159  40.2886739  13.3980418 112.0613794  41.1194947
  13.0296352 113.1760953  40.1636878  17.9655822 115.2013232  42.7958031
  17.4055380 115.2706421  43.5689593  17.3599325 115.0254217  42.0757527
  10.9227565 121.3600095  35.3932810  11.7573169 120.9281293  35.2110284
  10.7611908 121.1882109  36.3209704  10.5773458 117.8632208  36.7589149
  10.5222261 117.6976480  35.8177593   9.9519513 118.5708241  36.9151339
   7.8919365 120.1681120  56.0842712   8.7610524 120.3421772  55.7229347
   7.4126116 120.9875537  55.9618441   3.8869583 107.3640317  36.3374467
   3.8748253 108.3082157  36.4942738   4.7793005 107.1810463  36.0433928
   7.7021703 103.9583094  40.5920404   6.9354098 103.4041581  40.7377086
   8.1132408 104.0304963  41.4534556  22.0286957 123.2518007  47.9268781
  21.6970281 124.1213418  47.7029996  21.4332570 122.9354291  48.6062812
  23.7877266 126.1729532  46.7840005  23.1451646 126.4662065  46.1379800
  23.2832195 126.0582452  47.5893202  18.7853405 126.0950741  45.7215726
  17.9237884 126.3931994  46.0132463  18.8115839 126.3121140  44.7896758
  12.2644964 123.6548606  55.6755557  11.8711910 123.1014805  56.3503201
  13.0811105 123.9659185  56.0662074  15.1812925 125.0706485  53.2675813
  15.9222639 125.6713639  53.1880276  15.4130848 124.3284123  52.7093856
  19.1270088 121.0987588  47.5440095  18.7834358 121.9889230  47.4679206
  19.4949051 120.9089246  46.6809680  16.6767482 125.9345900  41.1097769
  15.8209078 125.5452751  40.9303407  17.0894434 126.0137861  40.2497554
  18.2066629 123.4692243  45.5089328  17.7031424 123.4322379  44.6957134
  18.4997236 124.3784986  45.5685985  14.4509515 123.5530973  44.5155510
  15.3162511 123.3573782  44.1561400  14.5187024 123.3241325  45.4424867
  14.3594501 122.6574430  40.6146946  13.7058914 122.3423447  39.9903561
  14.3174976 122.0350170  41.3406769  20.8246127 127.5804896  42.0516063
  20.0868883 127.0682282  42.3826306  21.0772900 127.1405277  41.2399340
  20.9257754 120.3581148  42.6457833  21.2316631 119.4978511  42.3583748
  21.6510359 120.9498768  42.4456827  17.0064382 124.8530379  50.4923110
  16.3592297 125.5520329  50.3987586  17.7765398 125.2866523  50.8599358
  18.7540377 125.8205789  42.9962395  19.2509077 125.0675752  42.6763465
  17.9827359 125.8570106  42.4305604  21.1959372 122.7875383  45.1441754
  20.2822452 123.0179610  45.3123961  21.6252473 122.8713827  45.9955786
  15.1748072 122.6900155  46.9423768  15.9974142 122.2160634  46.8202659
  15.4186136 123.4690639  47.4422455  16.8311120 122.9391115  43.2050927
  16.8532817 123.0030448  42.2502906  17.2479179 122.0995623  43.3991433
  18.3799332 123.7379191  48.5485918  18.8981276 124.4740218  48.2232407
  18.0254464 124.0443184  49.3832678  18.6311926 120.1579474  44.0686815
  18.9113680 119.4902663  44.6947242  19.4162533 120.3508569  43.5561479
  20.5235164 125.6652691  48.0017791  19.9285096 125.9457703  47.3064280
  20.2384860 126.1546592  48.7734532  25.1303350 128.5914271  46.9758973
  24.6142399 127.8072727  46.7888902  26.0143299 128.2632987  47.1405492
  22.7914077 122.3355286  42.9354786  22.5938899 122.0270374  43.8198118
  23.4013783 123.0616925  43.0652716  16.6197176 123.1386146  39.0627020
  15.8097904 122.7933231  39.4382266  17.3081593 122.8293690  39.6514632
  18.5487724 122.2164193  40.6851317  19.1018763 122.6359647  41.3441340
  18.7857810 121.2899941  40.7274273  21.9266531 124.3264718  40.1929981
  21.3465200 124.9849522  39.8108034  21.6602464 123.5042063  39.7817399
  20.3770097 123.7269776  42.3951302  20.8769876 123.8386311  41.5865620
  21.0205705 123.4230829  43.0352110  20.7091409 126.4864809  39.2486330
  19.8217264 126.7714459  39.0306524  21.1245398 126.3258572  38.4013606
  24.0605945 126.5111330  42.9640669  24.8366335 127.0007782  43.2365286
  23.3354079 126.9369384  43.4212538  26.4978504 127.2238949  44.0214609
  27.0922995 126.9834685  43.3107918  26.5705088 126.5046079  44.6488146
  24.4937239 127.7909076  40.2886739  24.2374173 127.3905712  41.1194947
  23.8690107 128.5052870  40.1636878  14.7263338 122.6932235  36.3374467
  14.7142007 123.6374075  36.4942738  15.6186759 122.5102380  36.0433928
  18.5415457 119.2875011  40.5920404  17.7747853 118.7333498  40.7377086
  18.9526162 119.3596880  41.4534556   2.8274028  75.8874720  30.1919480
   3.5599200  75.3173937  30.4257309   2.0713384  75.4996321  30.6325985
   2.1089759  72.5207819  33.5085312   1.4664139  72.8140352  32.8625107
   1.6044687  72.4060739  34.3138509   2.2488736  82.1851248  28.9429117
   1.5639775  82.5650150  28.3926150   2.3332586  82.7946575  29.6761064
   0.6185496  82.7083163  33.7146817   1.4402940  82.3063350  33.4329499
   0.6147899  82.6051397  34.6662933   8.7091489  79.0521911  30.0631789
   7.9555197  78.4829309  29.9075793   8.8439030  79.0184576  31.0102424
   2.3867137  80.1906841  24.7111010   1.6096580  79.8518001  24.2666172
   3.0658618  80.1959464  24.0365975   2.7855635  79.2050548  27.1733932
   2.6473533  79.3952144  26.2455121   2.4291853  79.9669931  27.6301983
   2.8125014  81.2727075  32.1845204   3.2461521  81.1802364  33.0328258
   3.5256595  81.2484575  31.5465220   3.6740564  81.3150776  34.7178089
   3.8676454  82.2196586  34.9637364   3.5741182  80.8558195  35.5516674
   4.9282627  77.8724442  31.3625993   4.9172503  78.7549158  30.9919926
   4.0600006  77.5195993  31.1680530   1.5455201  76.7673083  27.8296159
   2.0115654  77.6001075  27.7556462   1.9962702  76.3018065  28.5341417
   5.5307237  79.0224662  27.9675456   5.9738383  78.2731987  27.5694579
   4.6533747  79.0134798  27.5849188   0.6643018  85.5755003  23.4482054
   1.3593923  86.1961696  23.6669369   1.0066168  84.7250354  23.7234432
   2.5634441  83.0254709  24.9769385   3.0885765  83.3641981  24.2518705
   2.4756794  82.0901724  24.7932520   2.2528347  83.6587612  40.2820583
   1.4623891  83.6411751  39.7425083   2.0161702  84.1975906  41.0369620
   2.3726222  80.5080079  37.5953312   2.4224227  80.3430086  38.5368834
   2.2640146  79.6407338  37.2051192   3.8744419  82.9277020  37.8395333
   3.5829228  83.2907001  38.6758794   3.2616550  82.2144028  37.6608665
   5.0740102  80.4929900  30.3597903   5.9086993  80.9319704  30.5235464
   5.2099230  80.0168553  29.5406149   2.1231607  78.0509635  36.3075391
   2.5985729  78.2437281  35.4994243   1.1997173  78.1068821  36.0618775
   0.8233276  74.9275395  34.5403697   1.7750699  75.0273492  34.5615921
   0.6536727  74.1353663  35.0501781   3.3021354  78.1481515  33.6545996
   3.2697674  77.2097515  33.8405680   3.9121978  78.2265551  32.9211821
   3.4515843  74.9392558  33.7004280   2.9354891  74.1551015  33.5134208
   4.3355791  74.6111275  33.8650799   1.1126570  68.6833574  29.6600092
   0.9151391  68.3748662  30.5443424   1.7226275  69.4095212  29.7898022
   9.1197904  79.2097521  32.7952033   9.8501293  78.9482809  33.3559737
   8.5104850  78.4726243  32.8354101   7.2013201  77.3505384  33.3926484
   6.4746365  77.2161349  32.7842976   6.7860488  77.6582213  34.1983202
   2.3818438  72.8589617  29.6885975   3.1578828  73.3486069  29.9610592
   1.6566572  73.2847671  30.1457845   4.8190996  73.5717236  30.7459916
   5.4135487  73.3312972  30.0353224   4.8917580  72.8524367  31.3733452
   2.8149731  74.1387364  27.0132046   2.5586665  73.7383999  27.8440254
   2.1902599  74.8531158  26.8882185   7.1262069  76.8783437  29.5203337
   6.5661627  76.9476626  30.2934899   6.5205572  76.7024422  28.8002833
   8.7118087  93.5539951  32.2133293   9.3496497  93.4346698  31.5096633
   8.5938930  94.5020795  32.2721245   5.5207794  93.5067379  32.1494818
   5.1826305  93.3908444  31.2615353   6.3897562  93.1058544  32.1295824
   1.3794609  95.3602855  28.1391709   0.8159474  95.2692792  27.3707996
   1.2647004  94.5402760  28.6194201   6.0027577  94.6602231  38.1081023
   5.9916217  94.2655029  37.2361527   6.1648216  93.9268303  38.7014795
   2.7234838  97.4439343  37.0560207   2.4324704  98.3484973  36.9406873
   3.3591822  97.4855870  37.7704277   3.6491045  94.8216191  33.6461567
   4.2454617  94.5972213  32.9318530   3.7066016  94.0800937  34.2487015
   8.2659356  91.2791405  29.2886501   9.0522445  90.8610828  28.9376918
   8.5298060  92.1837497  29.4568149   8.4369433  96.7164255  23.9875158
   7.8015266  96.7898882  24.6996062   8.1066840  97.3057854  23.3094237
  13.6667783  91.2166638  30.1919480  14.3992955  90.6465855  30.4257309
  12.9107139  90.8288238  30.6325985   5.2843903  93.6393879  27.3882822
   4.9202110  93.1124500  28.0995743   6.1411019  93.2492349  27.2149307
  11.1893203  84.9288212  34.6514088  10.8576528  85.7983623  34.4275303
  10.5938817  84.6124496  35.3308119   4.9249390  88.6683779  22.3844170
   5.0923792  89.5364016  22.7514642   4.7346559  88.8311061  21.4605460
   7.6824723  97.1300758  34.0510001   7.3825446  98.0325797  33.9425808
   7.3375782  96.8632941  34.9031154  11.0821867  89.6483298  31.7307438
  10.1738744  89.5798707  31.4366199  11.0309462  90.1255243  32.5589264
   4.9038611  91.1241437  23.3690837   4.7838236  91.5698487  24.2076318
   4.2091199  91.4726754  22.8104375   5.1562732  91.0672944  39.6742335
   4.3796066  91.6266864  39.6645200   5.7953295  91.5529727  40.1957206
  12.9483513  87.8499737  33.5085312  12.3057893  88.1432270  32.8625107
  12.4438442  87.7352657  34.3138509  10.6023677  91.5962910  24.1971171
  11.5141533  91.8290297  24.0218869  10.0933324  92.1799954  23.6346250
   3.4109105  93.8758397  39.2360302   4.1523789  94.4143441  38.9595126
   2.7046090  94.5024686  39.3931854   8.8864444  96.0187538  37.8332464
   9.2947800  95.5769948  37.0887096   8.1641706  95.4440165  38.0866657
   5.2395514  90.9560144  35.2066021   6.0856710  91.3799558  35.3500670
   5.1794152  90.2993769  35.9004584   9.2093259  96.5788728  31.5884753
   8.5802121  96.7434442  30.8860821   8.8218921  96.9930338  32.3595717
  13.0882491  97.5143166  28.9429117  12.4033529  97.8942067  28.3926150
  13.1726340  98.1238493  29.6761064   8.3894960  88.6164513  36.8647195
   8.1455892  89.3706573  36.3281470   8.6654890  88.9949860  37.6994442
  10.3433422  95.1603125  35.5424460  10.5550318  95.8034885  34.8658841
  10.2963171  94.3265442  35.0746390   7.9459651  87.7720946  32.4461032
   7.0844130  88.0702199  32.7377770   7.9722086  87.9891345  31.5142065
   4.7621221  96.3163136  28.8534838   5.2259566  96.5950839  28.0639460
   4.4978019  95.4146581  28.6707929   1.6545302  95.8634618  31.7914601
   2.2246659  96.2921886  31.1532086   2.2453414  95.5817203  32.4898787
   3.6990107  92.4386289  25.6624403   4.4014150  92.8907332  26.1298329
   3.3670735  91.7970108  26.2904296   2.1470468  91.0298045  40.0375612
   1.5169129  91.7114326  40.2711009   2.0406556  90.9181127  39.0928751
  11.4579250  98.0375081  33.7146817  12.2796694  97.6355268  33.4329499
  11.4541653  97.9343315  34.6662933   5.2235854  97.5859124  35.8707528
   5.2880286  98.0479531  36.7065700   4.5146778  96.9556489  35.9989838
  19.5485243  94.3813829  30.0631789  18.7948952  93.8121227  29.9075793
  19.6832785  94.3476494  31.0102424   1.4251211  85.3318811  42.4000863
   1.0318157  84.7785010  43.0748508   2.2417352  85.6429390  42.7907381
   4.3419172  86.7476690  39.9921120   5.0828886  87.3483843  39.9125583
   4.5737095  86.0054328  39.4339163   6.5652348  99.8750798  39.8686850
   6.1216202  99.0887176  39.5507755   7.2269562 100.0629948  39.2030741
   1.3239469 101.4046599  34.3947529   1.8746894 101.2763663  33.6224523
   0.4850945 101.7041488  34.0442422   8.6633586 100.1553598  37.8968252
   8.6452061 100.9762479  37.4048521   9.5853506 100.0307673  38.1218393
   5.1206640  97.6697727  38.7391760   5.6534977  96.9086015  38.5091068
   4.5920721  97.3771379  39.4815914   8.2876335  82.7757793  34.2685402
   7.9440605  83.6659435  34.1924512   8.6555298  82.5859451  33.4054987
   8.2526618  92.7666404  22.7757837   7.7373241  93.5371009  23.0146224
   7.9803926  92.0931541  23.3990898   5.8373729  87.6116105  27.8343075
   4.9815325  87.2222956  27.6548714   6.2500681  87.6908066  26.9742861
   7.3672876  85.1462448  32.2334635   6.8637671  85.1092584  31.4202440
   7.6603482  86.0555191  32.2931292   3.6115761  85.2301178  31.2400817
   4.4768758  85.0343987  30.8806706   3.6793270  85.0011530  32.1670173
  13.2260892  95.5198759  24.7111010  12.4490335  95.1809918  24.2666172
  13.9052373  95.5251382  24.0365975   8.0412921  90.6393496  24.6017618
   7.7363057  90.9539646  25.4527761   8.9943363  90.7174916  24.6444951
   6.4859353  96.7983720  26.2510572   5.9580714  96.0636479  25.9383809
   5.9846856  97.5758396  26.0050540  11.4652199  94.9932740  31.3677618
  10.8075873  95.6832002  31.4557747  12.2692598  95.3829172  31.7111605
   1.2178080  87.4603386  28.6117184   1.7921832  87.2378568  27.8790376
   1.8049063  87.5292081  29.3645785  10.2757658  93.3477113  29.4181560
  10.7889539  93.9807105  29.9203270  10.9258882  92.7478308  29.0524920
   3.5200748  84.3344635  27.3392253   2.8665161  84.0193652  26.7148868
   3.4781222  83.7120375  28.0652076   6.7538489  90.8226568  31.6639901
   5.8361050  91.0441515  31.5061589   7.1698632  90.8972879  30.8051608
   7.5373536  92.2217984  26.7942581   8.2845355  92.7339381  26.4849703
   7.8065126  91.9002037  27.6546974   5.8100186  94.7176525  23.7769535
   4.9011406  94.4335558  23.8742005   5.8395270  95.1375603  22.9172842
  11.0419454  98.3283114  27.5460703  10.5881781  97.4874024  27.6025893
  10.4113421  98.9644513  27.8835483   9.9852373  89.2575100  28.7761370
   9.2475130  88.7452487  29.1071613  10.2379147  88.8175482  27.9644647
   9.4852393 100.1659611  28.4810521   9.7775368 100.7264668  27.7622886
   9.9951014 100.4588172  29.2363680  10.0864001  82.0351352  29.3703139
  10.3922878  81.1748716  29.0829054  10.8116606  82.6268973  29.1702133
   4.3585081  92.3305145  29.8779330   4.4133690  91.3778982  29.8021807
   3.5476283  92.4864585  30.3620629   2.2977440  90.9482205  27.6369709
   1.4845306  91.2476376  28.0434901   2.7936435  90.5537894  28.3544192
   4.4486018 100.9439962  29.5703974   4.4062197 101.1700808  28.6412506
   5.3648717 100.7103337  29.7189775   7.8951652  91.4124030  36.4684603
   8.2501040  91.6395503  37.3279069   8.5423783  91.7442406  35.8461859
  13.6249389  94.5342466  27.1733932  13.4867288  94.7244062  26.2455121
  13.2685608  95.2961848  27.6301983   1.7891515  88.5200561  33.2530944
   2.4290895  88.3789320  32.5553908   0.9569046  88.2335074  32.8769546
  13.6518769  96.6018993  32.1845204  14.0855275  96.5094282  33.0328258
  14.3650349  96.5776493  31.5465220   2.5651819  97.8202991  29.3665937
   3.3592418  97.3253311  29.1648512   1.8543511  97.2920854  29.0033642
   7.3846664 100.2021087  33.7178304   7.4383686 100.7712023  34.4856020
   6.5161445 100.3722972  33.3532342  14.5134318  96.6442693  34.7178089
  14.7070208  97.5488504  34.9637364  14.4134936  96.1850112  35.5516674
   6.1670629  86.5300584  37.2168417   5.5198544  87.2290533  37.1232893
   6.9371644  86.9636728  37.5844665   9.5749427  96.7949436  40.2918970
   9.4234933  96.5659988  39.3749053   9.5654106  97.7520037  40.3050315
   6.3434763  94.3681349  35.2765236   7.2726823  94.5192508  35.1034204
   5.9225793  94.4565370  34.4213883   5.1423095  98.3932013  33.0463774
   5.0034181  98.0250798  33.9189712   4.3537691  98.9079653  32.8747732
   6.6928310  97.7713616  30.4352612   6.3578143  97.7314386  31.3310262
   6.1932256  97.1058332  29.9623022   0.6672554  93.1781246  35.9605193
   0.5292352  92.4461485  36.5616732   1.5777478  93.0890146  35.6789381
   3.2954855  92.8901205  35.4488872   4.0054473  92.2494397  35.4075491
   3.2524163  93.1414100  36.3715053  11.2841634  99.8268559  38.3695452
  11.2254180  99.1427779  37.7026035  11.6861152 100.5687549  37.9176078
   2.0083789  89.8766423  37.2684512   1.4721146  89.4257162  37.9206108
   1.4200497  90.0112332  36.5254976  11.2859041  97.7908142  36.6009431
  10.3985820  97.4534064  36.7235830  11.8557592  97.0591174  36.8378197
   4.8160194 102.4509595  33.5670675   4.7430366 103.2564566  34.0789979
   4.3737587 102.6501561  32.7418696   7.9146624  87.4975994  29.7207701
   8.4115323  86.7445957  29.4008772   7.1433605  87.5340311  29.1550911
  15.7676381  93.2016360  31.3625993  15.7566258  94.0841075  30.9919926
  14.8993761  92.8487911  31.1680530   7.2758878 102.3496429  35.7228833
   7.9886850 102.9843894  35.6504735   6.7848906 102.4460295  34.9068835
   8.9976405  96.2547682  27.2946125   8.0632683  96.3749144  27.1250829
   9.1753073  95.3520148  27.0306135   4.4981593  89.6393377  29.4479386
   4.1279380  89.0864418  30.1360292   4.9940685  89.0351511  28.8954386
  12.3848956  92.0965001  27.8296159  12.8509408  92.9292992  27.7556462
  12.8356456  91.6309982  28.5341417   2.3270791 100.0990872  36.5434404
   3.0280251 100.7327355  36.6963798   1.8565906 100.4405604  35.7830043
  10.4525187  98.4408822  24.8282311  10.7285031  98.3265417  25.7376185
   9.5829686  98.0426307  24.7894484  10.3565619  84.4645588  31.8687060
   9.4428699  84.6949815  32.0369267  10.7858720  84.5484032  32.7201093
  10.1272077  92.6535480  34.3686954   9.4743527  92.9011387  33.7139407
  10.5052457  91.8399618  34.0349432   7.0879251 102.6895173  28.4715125
   7.2701646 101.8716829  28.9342877   7.9112237 102.9062865  28.0340015
   7.4221417 101.6163358  25.7330173   7.9509183 101.1055813  25.1200335
   7.6849636 101.3005888  26.5975706   6.1759650  93.3955291  40.8552991
   5.5000287  93.2949420  41.5255367   6.9987284  93.2394505  41.3188989
   4.9182433 104.7022218  35.0910607   5.4700741 104.8653840  35.8559693
   5.2588627 105.2926656  34.4190632   9.7693307  99.5283476  40.9459262
  10.3133211 100.1413434  40.4514217   9.1880152 100.0863054  41.4626275
   8.0550820 102.6504194  32.0774290   7.9301960 101.8493934  31.5685235
   8.7129912 103.1450387  31.5888260  10.1185729 100.4513214  33.7053840
   9.1716064 100.3318565  33.6332166  10.4668502  99.5635712  33.7880101
   2.4785302  86.3407353  37.5292082   3.0019704  86.5869649  38.2918391
   2.2597635  87.1727388  37.1095219   7.1232162 100.2465930  29.9058192
   6.9757125  99.3182638  30.0865762   7.9485656 100.2686021  29.4215267
   0.9894406  88.8983997  25.7638684   1.3290479  89.4269918  25.0417292
   1.4366527  89.2364403  26.5397251  10.7266284 101.0694489  30.9923065
  11.6512831 100.8637350  30.8547516  10.5581587 100.8210890  31.9012406
   3.6837847  87.2821048  35.2141752   3.3434668  86.4828861  35.6162432
   2.9776853  87.5822759  34.6418585   4.3354319  84.3670360  33.6669075
   5.1580388  83.8930839  33.5447965   4.5792383  85.1460844  34.1667761
   2.9762554  87.3958619  23.9631977   3.6970916  87.7739872  23.4595694
   2.3527858  88.1147496  24.0666955   7.1193676  88.1003768  24.8990309
   7.3357291  88.9828406  24.5979137   6.6387744  87.7089981  24.1695951
   1.8592898  91.0589481  31.4761054   1.7137479  91.3729784  32.3685335
   1.3818101  91.6774381  30.9231952   3.7189281  88.0492029  31.5241943
   3.7050849  87.1533122  31.1874241   4.4361709  88.0562693  32.1580229
   5.5715411  88.4829369  33.5695071   5.3133189  89.4046440  33.5679401
   5.0400452  88.0859804  34.2595535  10.5161600 101.5880156  26.3485156
  10.6898478 101.0226579  25.5959009  11.0090491 102.3881051  26.1664646
   3.1226177  86.9306409  26.7929513   3.2442088  86.0023055  26.9920401
   2.8328219  86.9445095  25.8807829   5.9917367  84.6161320  29.9296233
   6.0139064  84.6800653  28.9748213   6.4085426  83.7765828  30.1236739
  16.3700991  94.3516579  27.9675456  16.8132137  93.6023904  27.5694579
  15.4927502  94.3426716  27.5849188  11.5036773 100.9046921  23.4482054
  12.1987677 101.5253613  23.6669369  11.8459923 100.0542272  23.7234432
  13.4028196  98.3546626  24.9769385  13.9279520  98.6933899  24.2518705
  13.3150548  97.4193642  24.7932520   5.0648244 102.2680700  37.1059262
   5.3735371 102.0229847  37.9781961   5.8623726 102.4727338  36.6178132
   5.0868857 104.4218610  29.3364638   4.6473847 103.9294988  30.0297495
   5.8376973 103.8791577  29.0956714   2.5342729  99.9656619  31.4086940
   1.9122738  99.3027324  31.1089168   3.2047596  99.9917750  30.7260588
   2.6067256  88.4438407  41.0019446   2.6555412  89.3200529  40.6197216
   3.1489770  87.9015800  40.4291089  13.0922102  98.9879530  40.2820583
  12.3017646  98.9703669  39.7425083  12.8555456  99.5267824  41.0369620
  13.2119977  95.8371996  37.5953312  13.2617982  95.6722004  38.5368834
  13.1033900  94.9699255  37.2051192  10.5023739  91.8202924  38.9112618
  11.4033602  91.6809389  38.6196616  10.5771714  91.9857379  39.8510796
   4.8366545  89.1969779  37.7565805   3.9669854  89.4903345  37.4848393
   5.0726025  89.7810224  38.4773068  14.7138174  98.2568938  37.8395333
  14.4222982  98.6198918  38.6758794  14.1010305  97.5435946  37.6608665
  15.9133856  95.8221818  30.3597903  16.7480747  96.2611622  30.5235464
  16.0492985  95.3460471  29.5406149  12.9625362  93.3801552  36.3075391
  13.4379484  93.5729199  35.4994243  12.0390927  93.4360738  36.0618775
   7.5405578  85.4149396  35.2731225   8.0587522  86.1510423  34.9477714
   7.1860711  85.7213389  36.1077984   7.7918173  81.8349678  30.7932122
   8.0719926  81.1672868  31.4192548   8.5768780  82.0278774  30.2806786
  11.6627031  90.2567312  34.5403697  12.6144454  90.3565410  34.5615921
  11.4930481  89.4645581  35.0501781   9.6841410  87.3422896  34.7263098
   9.0891343  87.6227908  34.0309586   9.3991107  87.8316797  35.4979839
  14.1415109  93.4773432  33.6545996  14.1091429  92.5389433  33.8405680
  14.7515732  93.5557469  32.9211821  14.2909597  90.2684476  33.7004280
  13.7748646  89.4842932  33.5134208  15.1749546  89.9403192  33.8650799
  11.9520324  84.0125491  29.6600092  11.7545145  83.7040579  30.5443424
  12.5620030  84.7387130  29.7898022  19.9591659  94.5389439  32.7952033
  20.6895047  94.2774727  33.3559737  19.3498604  93.8018161  32.8354101
  18.0406956  92.6797302  33.3926484  17.3140119  92.5453267  32.7842976
  17.6254243  92.9874130  34.1983202   5.8637132  96.3987231  41.1573857
   6.7840142  96.5765830  41.3513904   5.8286715  95.4543277  41.0053557
   5.7803422  84.8156351  25.7872327   4.9704151  84.4703436  26.1627573
   6.4687839  84.5063895  26.3759939   7.7093971  83.8934398  27.4096624
   8.2625009  84.3129851  28.0686647   7.9464057  82.9670146  27.4519580
   3.7327070  89.8821472  43.1899388   3.6323797  90.8315829  43.1211479
   3.5148612  89.5539711  42.3175458  11.0872778  86.0034923  26.9175288
  10.5071447  86.6619727  26.5353340  10.8208711  85.1812268  26.5062705
   9.5376344  85.4039981  29.1196608  10.0376123  85.5156515  28.3110927
  10.1811952  85.1001034  29.7597417   3.5958340  93.3118611  42.0064449
   3.1125422  94.1118971  42.2128338   3.6819279  93.3226555  41.0531893
   9.8697656  88.1635014  25.9731636   8.9823511  88.4484664  25.7551831
  10.2851645  88.0028777  25.1258913  13.2212192  88.1881535  29.6885975
  13.9972582  88.6777987  29.9610592  12.4960326  88.6139589  30.1457845
  15.6584751  88.9009154  30.7459916  16.2529241  88.6604890  30.0353224
  15.7311334  88.1816284  31.3733452   9.8438680  93.6789550  26.1881926
   9.7873881  94.1358101  25.3489559  10.3967022  92.9180234  26.0104769
  13.6543486  89.4679281  27.0132046  13.3980420  89.0675917  27.8440254
  13.0296354  90.1823075  26.8882185  17.9655823  92.2075355  29.5203337
  17.4055381  92.2768544  30.2934899  17.3599327  92.0316339  28.8002833
  10.9227567  98.3662217  22.1178116  11.7573171  97.9343416  21.9355591
  10.7611910  98.1944231  23.0455011  10.5773459  94.8694331  23.4834456
  10.5222263  94.7038602  22.5422900   9.9519514  95.5770364  23.6396645
   7.8919366  97.1743243  42.8088018   8.7610526  97.3483895  42.4474653
   7.4126118  97.9937659  42.6863748   3.8869584  84.3702440  23.0619774
   3.8748254  85.3144280  23.2188045   4.7793006  84.1872585  22.7679235
   2.0605546 104.2940344  34.4877452   2.9632793 104.3263954  34.8043947
   1.8342916 103.3640795  34.5023788   3.8159148 103.0471330  31.1487531
   2.8654779 103.0473192  31.0351903   4.1191634 102.3004065  30.6323565
   7.7021704  80.9645216  27.3165711   6.9354100  80.4103703  27.4622393
   8.1132409  81.0367085  28.1779862  19.5511842 108.8831869  32.2133293
  20.1890252 108.7638616  31.5096633  19.4332685 109.8312713  32.2721245
  16.3601548 108.8359297  32.1494818  16.0220060 108.7200361  31.2615353
  17.2291316 108.4350462  32.1295824  12.2188364 110.6894773  28.1391709
  11.6553229 110.5984710  27.3707996  12.1040759 109.8694678  28.6194201
  16.8421331 109.9894148  38.1081023  16.8309972 109.5946947  37.2361527
  17.0041971 109.2560221  38.7014795   9.7652796 112.1845965  30.9775929
  10.5574088 111.8436789  30.5622228  10.0049446 112.2940940  31.8978082
  13.5628592 112.7731260  37.0560207  13.2718458 113.6776891  36.9406873
  14.1985577 112.8147788  37.7704277  14.4884799 110.1508109  33.6461567
  15.0848371 109.9264131  32.9318530  14.5459771 109.4092854  34.2487015
  19.1053110 106.6083322  29.2886501  19.8916200 106.1902746  28.9376918
  19.3691815 107.5129415  29.4568149  19.2763188 112.0456173  23.9875158
  18.6409021 112.1190799  24.6996062  18.9460594 112.6349772  23.3094237
  24.5061537 106.5458556  30.1919480  25.2386709 105.9757772  30.4257309
  23.7500893 106.1580156  30.6325985  16.1237657 108.9685797  27.3882822
  15.7595864 108.4416418  28.0995743  16.9804773 108.5784266  27.2149307
  22.0286958 100.2580130  34.6514088  21.6970283 101.1275541  34.4275303
  21.4332571  99.9416414  35.3308119  15.7643144 103.9975697  22.3844170
  15.9317546 104.8655933  22.7514642  15.5740313 104.1602979  21.4605460
  18.5218477 112.4592676  34.0510001  18.2219200 113.3617715  33.9425808
  18.1769537 112.1924859  34.9031154  11.9730959 108.9106473  30.0846705
  11.0481455 108.7782687  30.2924397  12.2215372 109.6900692  30.5816648
  21.9215621 104.9775216  31.7307438  21.0132498 104.9090624  31.4366199
  21.8703217 105.4547161  32.5589264  15.7432365 106.4533354  23.3690837
  15.6231990 106.8990405  24.2076318  15.0484953 106.8018672  22.8104375
   9.3339770 108.5539746  30.9190494   9.4632151 108.8074225  31.8329906
   8.6537221 109.1467454  30.5995149  15.9956487 106.3964862  39.6742335
  15.2189821 106.9558782  39.6645200  16.6347050 106.8821644  40.1957206
  23.7877268 103.1791654  33.5085312  23.1451648 103.4724187  32.8625107
  23.2832196 103.0644575  34.3138509  21.4417431 106.9254828  24.1971171
  22.3535287 107.1582214  24.0218869  20.9327078 107.5091872  23.6346250
  14.2502859 109.2050315  39.2360302  14.9917544 109.7435359  38.9595126
  13.5439845 109.8316604  39.3931854  19.7258199 111.3479455  37.8332464
  20.1341555 110.9061866  37.0887096  19.0035460 110.7732083  38.0866657
  16.0789269 106.2852062  35.2066021  16.9250464 106.7091476  35.3500670
  16.0187907 105.6285686  35.9004584  20.0487013 111.9080646  31.5884753
  19.4195876 112.0726360  30.8860821  19.6612676 112.3222256  32.3595717
  23.9276245 112.8435084  28.9429117  23.2427284 113.2233985  28.3926150
  24.0120095 113.4530410  29.6761064  19.2288714 103.9456430  36.8647195
  18.9849646 104.6998491  36.3281470  19.5048645 104.3241778  37.6994442
  21.1827177 110.4895043  35.5424460  21.3944072 111.1326803  34.8658841
  21.1356925 109.6557359  35.0746390  18.7853406 103.1012863  32.4461032
  17.9237885 103.3994117  32.7377770  18.8115841 103.3183262  31.5142065
  15.6014975 111.6455054  28.8534838  16.0653321 111.9242757  28.0639460
  15.3371773 110.7438499  28.6707929  12.4939056 111.1926536  31.7914601
  13.0640413 111.6213804  31.1532086  13.0847168 110.9109120  32.4898787
  14.5383861 107.7678206  25.6624403  15.2407905 108.2199250  26.1298329
  14.2064490 107.1262025  26.2904296  12.9864223 106.3589963  40.0375612
  12.3562884 107.0406244  40.2711009  12.8800311 106.2473045  39.0928751
   8.2809195 106.0261759  30.9641537   7.4908249 106.2819288  30.4881647
   8.7720443 106.8410097  31.0693577  22.2973005 113.3666998  33.7146817
  23.1190449 112.9647186  33.4329499  22.2935408 113.2635232  34.6662933
  10.2323941 106.3906338  27.9225013   9.4355104 106.5025033  28.4408509
  10.0049533 106.7292991  27.0565904  16.0629608 112.9151042  35.8707528
  16.1274041 113.3771449  36.7065700  15.3540532 112.2848406  35.9989838
   6.5646898 106.2792250  33.3956527   6.8154937 107.1639259  33.6614103
   7.1006447 106.0996851  32.6231619  30.3878998 109.7105747  30.0631789
  29.6342706 109.1413145  29.9075793  30.5226539 109.6768411  31.0102424
  12.2644966 100.6610729  42.4000863  11.8711911 100.1076927  43.0748508
  13.0811106 100.9721307  42.7907381  15.1812927 102.0768608  39.9921120
  15.9222640 102.6775761  39.9125583  15.4130849 101.3346246  39.4339163
  10.3254265 107.2624975  38.2699350  10.2107780 106.3610232  38.5706449
   9.4698782 107.5088672  37.9184166  17.4046102 115.2042716  39.8686850
  16.9609957 114.4179094  39.5507755  18.0663316 115.3921866  39.2030741
  12.1633224 116.7338517  34.3947529  12.7140649 116.6055580  33.6224523
  11.3244699 117.0333406  34.0442422  19.5027340 115.4845515  37.8968252
  19.4845816 116.3054397  37.4048521  20.4247261 115.3599591  38.1218393
  15.9600395 112.9989645  38.7391760  16.4928731 112.2377933  38.5091068
  15.4314476 112.7063297  39.4815914  19.1270090  98.1049711  34.2685402
  18.7834359  98.9951353  34.1924512  19.4949052  97.9151369  33.4054987
  19.0920372 108.0958322  22.7757837  18.5766996 108.8662927  23.0146224
  18.8197681 107.4223458  23.3990898  16.6767483 102.9408023  27.8343075
  15.8209080 102.5514873  27.6548714  17.0894435 103.0199984  26.9742861
  18.2066630 100.4754366  32.2334635  17.7031426 100.4384501  31.4202440
  18.4997237 101.3847109  32.2931292  14.4509516 100.5593096  31.2400817
  15.3162513 100.3635904  30.8806706  14.5187025 100.3303448  32.1670173
  24.0654646 110.8490677  24.7111010  23.2884089 110.5101836  24.2666172
  24.7446127 110.8543300  24.0365975  18.8806675 105.9685414  24.6017618
  18.5756811 106.2831563  25.4527761  19.8337118 106.0466834  24.6444951
  17.3253107 112.1275637  26.2510572  16.7974469 111.3928397  25.9383809
  16.8240610 112.9050314  26.0050540  22.3045953 110.3224658  31.3677618
  21.6469628 111.0123919  31.4557747  23.1086353 110.7121090  31.7111605
  12.0571835 102.7895304  28.6117184  12.6315587 102.5670485  27.8790376
  12.6442817 102.8583998  29.3645785  21.1151412 108.6769031  29.4181560
  21.6283294 109.3099022  29.9203270  21.7652636 108.0770226  29.0524920
  14.3594503  99.6636553  27.3392253  13.7058915  99.3485570  26.7148868
  14.3174977  99.0412293  28.0652076  17.5932243 106.1518486  31.6639901
  16.6754804 106.3733433  31.5061589  18.0092387 106.2264797  30.8051608
  18.3767291 107.5509902  26.7942581  19.1239110 108.0631299  26.4849703
  18.6458880 107.2293955  27.6546974  16.6493941 110.0468443  23.7769535
  15.7405160 109.7627475  23.8742005  16.6789025 110.4667521  22.9172842
  21.8813208 113.6575032  27.5460703  21.4275535 112.8165942  27.6025893
  21.2507175 114.2936430  27.8835483  20.8246128 104.5867018  28.7761370
  20.0868885 104.0744404  29.1071613  21.0772901 104.1467400  27.9644647
  20.3246148 115.4951529  28.4810521  20.6169122 116.0556586  27.7622886
  20.8344768 115.7880090  29.2363680  20.9257755  97.3643270  29.3703139
  21.2316632  96.5040634  29.0829054  21.6510360  97.9560890  29.1702133
  15.1978835 107.6597063  29.8779330  15.2527445 106.7070900  29.8021807
  14.3870037 107.8156502  30.3620629  13.1371195 106.2774123  27.6369709
  12.3239060 106.5768293  28.0434901  13.6330189 105.8829812  28.3544192
  15.2879773 116.2731880  29.5703974  15.2455952 116.4992726  28.6412506
  16.2042472 116.0395254  29.7189775  18.7345407 106.7415947  36.4684603
  19.0894794 106.9687421  37.3279069  19.3817538 107.0734324  35.8461859
  24.4643144 109.8634383  27.1733932  24.3261042 110.0535979  26.2455121
  24.1079362 110.6253766  27.6301983  12.6285270 103.8492478  33.2530944
  13.2684649 103.7081238  32.5553908  11.7962800 103.5626992  32.8769546
  24.4912523 111.9310910  32.1845204  24.9249030 111.8386199  33.0328258
  25.2044104 111.9068411  31.5465220  13.4045574 113.1494909  29.3665937
  14.1986172 112.6545229  29.1648512  12.6937266 112.6212772  29.0033642
  18.2240418 115.5313004  33.7178304  18.2777440 116.1003941  34.4856020
  17.3555199 115.7014889  33.3532342   9.6313886 103.8192803  28.0303931
   9.8920703 104.7338137  27.9213092  10.4531058 103.3517246  28.1800544
  11.1038811 105.2330561  35.2002756  11.7761865 105.0247923  34.5515405
  10.2768598 105.0352647  34.7607988  25.3528073 111.9734611  34.7178089
  25.5463963 112.8780421  34.9637364  25.2528691 111.5142030  35.5516674
  17.0064383 101.8592502  37.2168417  16.3592298 102.5582451  37.1232893
  17.7765399 102.2928645  37.5844665  20.4143181 112.1241354  40.2918970
  20.2628688 111.8951905  39.3749053  20.4047861 113.0811955  40.3050315
  17.1828518 109.6973266  35.2765236  18.1120578 109.8484426  35.1034204
  16.7619548 109.7857287  34.4213883  15.9816850 113.7223931  33.0463774
  15.8427935 113.3542715  33.9189712  15.1931446 114.2371570  32.8747732
  17.5322065 113.1005534  30.4352612  17.1971897 113.0606304  31.3310262
  17.0326010 112.4350249  29.9623022  11.5066309 108.5073164  35.9605193
  11.3686107 107.7753402  36.5616732  12.4171232 108.4182064  35.6789381
  14.1348609 108.2193123  35.4488872  14.8448228 107.5786315  35.4075491
  14.0917918 108.4706018  36.3715053  22.1235388 115.1560476  38.3695452
  22.0647934 114.4719696  37.7026035  22.5254906 115.8979466  37.9176078
  12.8477543 105.2058341  37.2684512  12.3114900 104.7549079  37.9206108
  12.2594252 105.3404250  36.5254976  22.1252795 113.1200060  36.6009431
  21.2379574 112.7825982  36.7235830  22.6951346 112.3883091  36.8378197
   8.5816665 104.3414348  34.3537506   8.4974853 103.7340018  33.6187916
   7.7599371 104.8323367  34.3547003  15.6553949 117.7801513  33.5670675
  15.5824120 118.5856484  34.0789979  15.2131342 117.9793478  32.7418696
  18.7540378 102.8267912  29.7207701  19.2509078 102.0737874  29.4008772
  17.9827360 102.8632229  29.1550911  26.6070136 108.5308278  31.3625993
  26.5960012 109.4132993  30.9919926  25.7387515 108.1779828  31.1680530
  18.1152632 117.6788347  35.7228833  18.8280604 118.3135811  35.6504735
  17.6242661 117.7752213  34.9068835  19.8370159 111.5839599  27.2946125
  18.9026438 111.7041062  27.1250829  20.0146828 110.6812066  27.0306135
  15.3375347 104.9685295  29.4479386  14.9673135 104.4156335  30.1360292
  15.8334440 104.3643428  28.8954386  23.2242710 107.4256919  27.8296159
  23.6903163 108.2584910  27.7556462  23.6750211 106.9601900  28.5341417
  13.1664546 115.4282790  36.5434404  13.8674005 116.0619273  36.6963798
  12.6959661 115.7697522  35.7830043  21.2918942 113.7700740  24.8282311
  21.5678785 113.6557334  25.7376185  20.4223440 113.3718225  24.7894484
  21.1959373  99.7937505  31.8687060  20.2822453 100.0241732  32.0369267
  21.6252475  99.8775950  32.7201093  20.9665832 107.9827397  34.3686954
  20.3137282 108.2303305  33.7139407  21.3446212 107.1691536  34.0349432
  17.9273006 118.0187091  28.4715125  18.1095400 117.2008747  28.9342877
  18.7505992 118.2354783  28.0340015  18.2615171 116.9455276  25.7330173
  18.7902938 116.4347730  25.1200335  18.5243391 116.6297806  26.5975706
  17.0153405 108.7247209  40.8552991  16.3394042 108.6241338  41.5255367
  17.8381039 108.5686422  41.3188989   8.7632264 114.9619145  33.4765507
   9.3485701 114.2162833  33.6093411   8.5657102 115.2723102  34.3602171
  15.7576188 120.0314136  35.0910607  16.3094496 120.1945757  35.8559693
  16.0982381 120.6218574  34.4190632  10.7340681 102.3789286  35.6932492
  10.7982007 103.2404117  35.2809890  10.6707801 101.7663287  34.9604851
  10.2092953 104.4512418  39.3405526  10.8364992 104.0689496  39.9543051
   9.3520872 104.2326620  39.7061219  20.6087062 114.8575393  40.9459262
  21.1526966 115.4705352  40.4514217  20.0273907 115.4154972  41.4626275
  18.8944575 117.9796111  32.0774290  18.7695714 117.1785851  31.5685235
  19.5523666 118.4742305  31.5888260  10.5152743 104.3344844  31.2551430
   9.7939329 104.9480812  31.1158903  11.3045999 104.8702609  31.1768076
  20.9579483 115.7805132  33.7053840  20.0109819 115.6610483  33.6332166
  21.3062256 114.8927630  33.7880101  13.3179057 101.6699271  37.5292082
  13.8413458 101.9161567  38.2918391  13.0991390 102.5019305  37.1095219
  17.9625917 115.5757848  29.9058192  17.8150879 114.6474555  30.0865762
  18.7879410 115.5977939  29.4215267  11.8288161 104.2275915  25.7638684
  12.1684233 104.7561836  25.0417292  12.2760281 104.5656321  26.5397251
  21.5660038 116.3986407  30.9923065  22.4906586 116.1929268  30.8547516
  21.3975342 116.1502808  31.9012406  14.5231602 102.6112966  35.2141752
  14.1828422 101.8120779  35.6162432  13.8170608 102.9114676  34.6418585
  15.1748074  99.6962278  33.6669075  15.9974143  99.2222756  33.5447965
  15.4186137 100.4752762  34.1667761  13.8156308 102.7250536  23.9631977
  14.5364671 103.1031789  23.4595694  13.1921612 103.4439413  24.0666955
  17.9587431 103.4295685  24.8990309  18.1751045 104.3120323  24.5979137
  17.4781498 103.0381899  24.1695951  12.6986652 106.3881399  31.4761054
  12.5531233 106.7021702  32.3685335  12.2211856 107.0066299  30.9231952
  14.5583035 103.3783947  31.5241943  14.5444604 102.4825040  31.1874241
  15.2755463 103.3854610  32.1580229  16.4109166 103.8121287  33.5695071
  16.1526944 104.7338358  33.5679401  15.8794206 103.4151721  34.2595535
  21.3555355 116.9172074  26.3485156  21.5292232 116.3518496  25.5959009
  21.8484246 117.7172969  26.1664646   7.1732314 108.9286743  34.4148715
   6.6285783 109.7046551  34.5468989   8.0511664 109.2757548  34.2567836
  13.9619931 102.2598327  26.7929513  14.0835842 101.3314973  26.9920401
  13.6721973 102.2737013  25.8807829  16.8311121  99.9453237  29.9296233
  16.8532818 100.0092570  28.9748213  17.2479180  99.1057746  30.1236739
  27.2094746 109.6808497  27.9675456  27.6525892 108.9315822  27.5694579
  26.3321256 109.6718633  27.5849188  22.3430527 116.2338838  23.4482054
  23.0381432 116.8545531  23.6669369  22.6853677 115.3834190  23.7234432
   7.9598336 108.0556639  37.3078872   7.2180072 108.2039275  37.8943502
   7.6391081 108.3164905  36.4445621  24.2421950 113.6838544  24.9769385
  24.7673274 114.0225817  24.2518705  24.1544303 112.7485559  24.7932520
  15.9041999 117.5972618  37.1059262  16.2129125 117.3521764  37.9781961
  16.7017481 117.8019256  36.6178132  15.9262611 119.7510527  29.3364638
  15.4867601 119.2586906  30.0297495  16.6770728 119.2083495  29.0956714
  13.3736483 115.2948536  31.4086940  12.7516492 114.6319241  31.1089168
  14.0441350 115.3209668  30.7260588  13.4461011 103.7730324  41.0019446
  13.4949166 104.6492447  40.6197216  13.9883525 103.2307717  40.4291089
  23.9315856 114.3171448  40.2820583  23.1411400 114.2995586  39.7425083
  23.6949211 114.8559741  41.0369620  24.0513731 111.1663914  37.5953312
  24.1011736 111.0013921  38.5368834  23.9427655 110.2991173  37.2051192
  21.3417494 107.1494842  38.9112618  22.2427357 107.0101307  38.6196616
  21.4165468 107.3149297  39.8510796  15.6760299 104.5261697  37.7565805
  14.8063608 104.8195263  37.4848393  15.9119779 105.1102142  38.4773068
  25.5531928 113.5860855  37.8395333  25.2616736 113.9490836  38.6758794
  24.9404059 112.8727864  37.6608665  26.7527611 111.1513735  30.3597903
  27.5874502 111.5903539  30.5235464  26.8886739 110.6752388  29.5406149
  23.8019116 108.7093470  36.3075391  24.2773238 108.9021116  35.4994243
  22.8784682 108.7652656  36.0618775  18.3799333 100.7441314  35.2731225
  18.8981277 101.4802341  34.9477714  18.0254466 101.0505307  36.1077984
  18.6311927  97.1641596  30.7932122  18.9113681  96.4964785  31.4192548
  19.4162534  97.3570692  30.2806786  22.5020785 105.5859230  34.5403697
  23.4538208 105.6857328  34.5615921  22.3324236 104.7937499  35.0501781
  20.5235165 102.6714813  34.7263098  19.9285097 102.9519826  34.0309586
  20.2384862 103.1608714  35.4979839  24.9808863 108.8065350  33.6545996
  24.9485183 107.8681351  33.8405680  25.5909487 108.8849387  32.9211821
  25.1303352 105.5976393  33.7004280  24.6142400 104.8134850  33.5134208
  26.0143300 105.2695110  33.8650799  22.7914079  99.3417409  29.6600092
  22.5938900  99.0332497  30.5443424  23.4013784 100.0679048  29.7898022
  30.7985413 109.8681357  32.7952033  31.5288802 109.6066645  33.3559737
  30.1892359 109.1310079  32.8354101  28.8800710 108.0089219  33.3926484
  28.1533874 107.8745184  32.7842976  28.4647997 108.3166048  34.1983202
  16.7030887 111.7279149  41.1573857  17.6233896 111.9057748  41.3513904
  16.6680470 110.7835194  41.0053557   5.9213052 106.9217743  30.0827132
   5.6015836 106.0683051  29.7901506   5.3746480 107.1366321  30.8385099
   9.6992959 109.6380184  33.7996639   9.9178969 110.5697291  33.8184672
  10.1118733 109.2788158  34.5851442  16.6197177 100.1448269  25.7872327
  15.8097905  99.7995354  26.1627573  17.3081594  99.8355813  26.3759939
  18.5487725  99.2226316  27.4096624  19.1018764  99.6421769  28.0686647
  18.7857812  98.2962064  27.4519580  14.5720824 105.2113389  43.1899388
  14.4717551 106.1607746  43.1211479  14.3542367 104.8831628  42.3175458
  21.9266532 101.3326841  26.9175288  21.3465201 101.9911645  26.5353340
  21.6602465 100.5104185  26.5062705  20.3770099 100.7331899  29.1196608
  20.8769877 100.8448433  28.3110927  21.0205707 100.4292951  29.7597417
  14.4352095 108.6410528  42.0064449  13.9519176 109.4410888  42.2128338
  14.5213034 108.6518473  41.0531893  10.3625432 112.5315063  34.0432883
  11.3168686 112.4999005  33.9762815  10.1637956 112.0705687  34.8583109
  10.9524814 111.1016179  36.6103681  11.7717703 111.5960258  36.6338518
  11.2261622 110.1848147  36.5821248  20.7091410 103.4926931  25.9731636
  19.8217265 103.7776582  25.7551831  21.1245399 103.3320695  25.1258913
  24.0605946 103.5173452  29.6885975  24.8366337 104.0069905  29.9610592
  23.3354081 103.9431506  30.1457845  26.4978505 104.2301071  30.7459916
  27.0922996 103.9896807  30.0353224  26.5705089 103.5108202  31.3733452
  20.6832434 109.0081467  26.1881926  20.6267635 109.4650019  25.3489559
  21.2360777 108.2472152  26.0104769  24.4937240 104.7971199  27.0132046
  24.2374174 104.3967835  27.8440254  23.8690108 105.5114993  26.8882185
  28.8049578 107.5367272  29.5203337  28.2449136 107.6060462  30.2934899
  28.1993081 107.3608257  28.8002833  21.7621321 113.6954135  22.1178116
  22.5966925 113.2635334  21.9355591  21.6005664 113.5236149  23.0455011
  21.4167213 110.1986248  23.4834456  21.3616017 110.0330520  22.5422900
  20.7913269 110.9062281  23.6396645   6.2059728 105.4354313  37.3095878
   6.8518592 104.9253267  37.7983103   5.9976880 106.1722994  37.8839303
  18.7313121 112.5035160  42.8088018  19.6004280 112.6775813  42.4474653
  18.2519872 113.3229577  42.6863748  14.7263339  99.6994357  23.0619774
  14.7142009 100.6436197  23.2188045  15.6186761  99.5164503  22.7679235
  12.8999301 119.6232261  34.4877452  13.8026548 119.6555872  34.8043947
  12.6736671 118.6932712  34.5023788  14.6552903 118.3763248  31.1487531
  13.7048534 118.3765109  31.0351903  14.9585389 117.6295982  30.6323565
  18.5415458  96.2937134  27.3165711  17.7747854  95.7395621  27.4622393
  18.9526163  96.3659003  28.1779862  10.5457219 102.5821930  41.4070892
  11.4088681 102.2258735  41.6174217   9.9722630 102.2435825  42.0946296
  30.3905596 124.2123786  32.2133293  31.0284006 124.0930534  31.5096633
  30.2726439 125.1604630  32.2721245  27.1995303 124.1651214  32.1494818
  26.8613814 124.0492279  31.2615353  28.0685071 123.7642379  32.1295824
  23.0582118 126.0186691  28.1391709  22.4946983 125.9276628  27.3707996
  22.9434513 125.1986595  28.6194201  27.6815086 125.3186066  38.1081023
  27.6703726 124.9238864  37.2361527  27.8435725 124.5852139  38.7014795
  20.6046550 127.5137882  30.9775929  21.3967842 127.1728707  30.5622228
  20.8443200 127.6232857  31.8978082  25.3278554 125.4800026  33.6461567
  25.9242126 125.2556049  32.9318530  25.3853525 124.7384772  34.2487015
  29.9446865 121.9375240  29.2886501  30.7309954 121.5194663  28.9376918
  30.2085569 122.8421332  29.4568149  30.1156942 127.3748090  23.9875158
  29.4802775 127.4482717  24.6996062  29.7854349 127.9641689  23.3094237
  35.3455292 121.8750473  30.1919480  36.0780464 121.3049690  30.4257309
  34.5894648 121.4872074  30.6325985  26.9631412 124.2977715  27.3882822
  26.5989619 123.7708336  28.0995743  27.8198528 123.9076184  27.2149307
  32.8680712 115.5872047  34.6514088  32.5364037 116.4567458  34.4275303
  32.2726326 115.2708331  35.3308119  26.6036899 119.3267614  22.3844170
  26.7711301 120.1947851  22.7514642  26.4134068 119.4894896  21.4605460
  29.3612232 127.7884593  34.0510001  29.0612955 128.6909632  33.9425808
  29.0163291 127.5216777  34.9031154  22.8124713 124.2398390  30.0846705
  21.8875210 124.1074604  30.2924397  23.0609126 125.0192609  30.5816648
  32.7609376 120.3067134  31.7307438  31.8526253 120.2382542  31.4366199
  32.7096971 120.7839079  32.5589264  26.5826120 121.7825272  23.3690837
  26.4625745 122.2282323  24.2076318  25.8878708 122.1310590  22.8104375
  20.1733524 123.8831664  30.9190494  20.3025905 124.1366143  31.8329906
  19.4930976 124.4759372  30.5995149  26.8350241 121.7256779  39.6742335
  26.0583575 122.2850699  39.6645200  27.4740804 122.2113562  40.1957206
  34.6271022 118.5083572  33.5085312  33.9845402 118.8016105  32.8625107
  34.1225951 118.3936492  34.3138509  32.2811186 122.2546745  24.1971171
  33.1929042 122.4874132  24.0218869  31.7720833 122.8383789  23.6346250
  25.0896614 124.5342233  39.2360302  25.8311298 125.0727277  38.9595126
  24.3833599 125.1608521  39.3931854  30.5651953 126.6771373  37.8332464
  30.9735309 126.2353784  37.0887096  29.8429215 126.1024001  38.0866657
  26.9183023 121.6143980  35.2066021  27.7644219 122.0383393  35.3500670
  26.8581661 120.9577604  35.9004584  30.8880768 127.2372564  31.5884753
  30.2589630 127.4018278  30.8860821  30.5006430 127.6514173  32.3595717
  34.7670000 128.1727001  28.9429117  34.0821038 128.5525903  28.3926150
  34.8513849 128.7822328  29.6761064  30.0682469 119.2748348  36.8647195
  29.8243401 120.0290409  36.3281470  30.3442399 119.6533696  37.6994442
  32.0220931 125.8186961  35.5424460  32.2337827 126.4618720  34.8658841
  31.9750680 124.9849277  35.0746390  29.6247160 118.4304781  32.4461032
  28.7631639 118.7286035  32.7377770  29.6509595 118.6475180  31.5142065
  26.4408730 126.9746972  28.8534838  26.9047075 127.2534675  28.0639460
  26.1765528 126.0730416  28.6707929  23.3332811 126.5218453  31.7914601
  23.9034168 126.9505722  31.1532086  23.9240923 126.2401038  32.4898787
  25.3777616 123.0970124  25.6624403  26.0801659 123.5491168  26.1298329
  25.0458244 122.4553943  26.2904296  23.8257977 121.6881881  40.0375612
  23.1956638 122.3698162  40.2711009  23.7194065 121.5764962  39.0928751
  19.1202950 121.3553677  30.9641537  18.3302004 121.6111205  30.4881647
  19.6114197 122.1702015  31.0693577  33.1366759 128.6958916  33.7146817
  33.9584203 128.2939103  33.4329499  33.1329162 128.5927150  34.6662933
  21.0717695 121.7198256  27.9225013  20.2748859 121.8316950  28.4408509
  20.8443287 122.0584908  27.0565904  26.9023363 128.2442959  35.8707528
  26.9667795 128.7063366  36.7065700  26.1934287 127.6140324  35.9989838
  17.4040653 121.6084167  33.3956527  17.6548691 122.4931177  33.6614103
  17.9400201 121.4288769  32.6231619  41.2272752 125.0397664  30.0631789
  40.4736461 124.4705062  29.9075793  41.3620294 125.0060329  31.0102424
  23.1038720 115.9902647  42.4000863  22.7105666 115.4368845  43.0748508
  23.9204860 116.3013225  42.7907381  26.0206681 117.4060526  39.9921120
  26.7616395 118.0067679  39.9125583  26.2524604 116.6638163  39.4339163
  21.1648019 122.5916893  38.2699350  21.0501534 121.6902150  38.5706449
  20.3092537 122.8380590  37.9184166  26.7994149 128.3281563  38.7391760
  27.3322486 127.5669851  38.5091068  26.2708230 128.0355214  39.4815914
  29.9663844 113.4341629  34.2685402  29.6228113 114.3243270  34.1924512
  30.3342807 113.2443286  33.4054987  29.9314127 123.4250240  22.7757837
  29.4160750 124.1954844  23.0146224  29.6591435 122.7515376  23.3990898
  27.5161238 118.2699940  27.8343075  26.6602834 117.8806791  27.6548714
  27.9288190 118.3491901  26.9742861  29.0460384 115.8046284  32.2334635
  28.5425180 115.7676419  31.4202440  29.3390991 116.7139026  32.2931292
  25.2903270 115.8885013  31.2400817  26.1556267 115.6927822  30.8806706
  25.3580779 115.6595365  32.1670173  34.9048401 126.1782594  24.7111010
  34.1277844 125.8393754  24.2666172  35.5839882 126.1835218  24.0365975
  29.7200430 121.2977332  24.6017618  29.4150566 121.6123481  25.4527761
  30.6730872 121.3758752  24.6444951  28.1646862 127.4567555  26.2510572
  27.6368223 126.7220315  25.9383809  27.6634365 128.2342231  26.0050540
  33.1439708 125.6516576  31.3677618  32.4863382 126.3415837  31.4557747
  33.9480107 126.0413008  31.7111605  22.8965589 118.1187221  28.6117184
  23.4709341 117.8962403  27.8790376  23.4836572 118.1875916  29.3645785
  31.9545167 124.0060948  29.4181560  32.4677048 124.6390940  29.9203270
  32.6046391 123.4062144  29.0524920  25.1988257 114.9928470  27.3392253
  24.5452669 114.6777487  26.7148868  25.1568731 114.3704211  28.0652076
  28.4325998 121.4810404  31.6639901  27.5148559 121.7025351  31.5061589
  28.8486141 121.5556714  30.8051608  29.2161045 122.8801820  26.7942581
  29.9632864 123.3923217  26.4849703  29.4852635 122.5585872  27.6546974
  27.4887695 125.3760360  23.7769535  26.5798915 125.0919393  23.8742005
  27.5182779 125.7959439  22.9172842  32.7206963 128.9866950  27.5460703
  32.2669290 128.1457860  27.6025893  32.0900930 129.6228348  27.8835483
  31.6639882 119.9158936  28.7761370  30.9262639 119.4036322  29.1071613
  31.9166656 119.4759317  27.9644647  31.1639902 130.8243446  28.4810521
  31.4562876 131.3848504  27.7622886  31.6738523 131.1172007  29.2363680
  31.7651510 112.6935188  29.3703139  32.0710387 111.8332551  29.0829054
  32.4904115 113.2852808  29.1702133  26.0372589 122.9888981  29.8779330
  26.0921199 122.0362817  29.8021807  25.2263792 123.1448420  30.3620629
  23.9764949 121.6066041  27.6369709  23.1632815 121.9060211  28.0434901
  24.4723944 121.2121729  28.3544192  29.5739161 122.0707865  36.4684603
  29.9288549 122.2979338  37.3279069  30.2211292 122.4026242  35.8461859
  35.3036898 125.1926301  27.1733932  35.1654797 125.3827897  26.2455121
  34.9473117 125.9545684  27.6301983  23.4679024 119.1784396  33.2530944
  24.1078403 119.0373155  32.5553908  22.6356555 118.8918910  32.8769546
  35.3306278 127.2602828  32.1845204  35.7642784 127.1678117  33.0328258
  36.0437858 127.2360328  31.5465220  24.2439328 128.4786827  29.3665937
  25.0379927 127.9837147  29.1648512  23.5331020 127.9504690  29.0033642
  20.4707641 119.1484721  28.0303931  20.7314458 120.0630054  27.9213092
  21.2924813 118.6809164  28.1800544  21.9432566 120.5622478  35.2002756
  22.6155619 120.3539840  34.5515405  21.1162352 120.3644564  34.7607988
  36.1921827 127.3026529  34.7178089  36.3857717 128.2072339  34.9637364
  36.0922445 126.8433948  35.5516674  27.8458138 117.1884419  37.2168417
  27.1986053 117.8874369  37.1232893  28.6159153 117.6220563  37.5844665
  31.2536936 127.4533271  40.2918970  31.1022442 127.2243823  39.3749053
  31.2441615 128.4103873  40.3050315  28.0222272 125.0265184  35.2765236
  28.9514332 125.1776344  35.1034204  27.6013302 125.1149205  34.4213883
  28.3715819 128.4297451  30.4352612  28.0365652 128.3898221  31.3310262
  27.8719765 127.7642167  29.9623022  22.3460063 123.8365081  35.9605193
  22.2079861 123.1045320  36.5616732  23.2564987 123.7473981  35.6789381
  24.9742364 123.5485041  35.4488872  25.6841982 122.9078233  35.4075491
  24.9311672 123.7997935  36.3715053  32.9629143 130.4852394  38.3695452
  32.9041689 129.8011614  37.7026035  33.3648661 131.2271384  37.9176078
  23.6871298 120.5350258  37.2684512  23.1508655 120.0840997  37.9206108
  23.0988006 120.6696167  36.5254976  32.9646550 128.4491978  36.6009431
  32.0773329 128.1117900  36.7235830  33.5345101 127.7175009  36.8378197
  19.4210419 119.6706266  34.3537506  19.3368608 119.0631936  33.6187916
  18.5993125 120.1615284  34.3547003  29.5934133 118.1559830  29.7207701
  30.0902832 117.4029792  29.4008772  28.8221114 118.1924146  29.1550911
  37.4463890 123.8600195  31.3625993  37.4353767 124.7424911  30.9919926
  36.5781270 123.5071746  31.1680530  30.6763914 126.9131517  27.2946125
  29.7420192 127.0332979  27.1250829  30.8540582 126.0103984  27.0306135
  26.1769102 120.2977213  29.4479386  25.8066889 119.7448253  30.1360292
  26.6728194 119.6935346  28.8954386  34.0636465 122.7548836  27.8296159
  34.5296917 123.5876828  27.7556462  34.5143965 122.2893818  28.5341417
  32.1312696 129.0992657  24.8282311  32.4072540 128.9849252  25.7376185
  31.2617195 128.7010142  24.7894484  32.0353128 115.1229423  31.8687060
  31.1216208 115.3533650  32.0369267  32.4646229 115.2067867  32.7201093
  31.8059586 123.3119315  34.3686954  31.1531036 123.5595223  33.7139407
  32.1839966 122.4983453  34.0349432  27.8547159 124.0539126  40.8552991
  27.1787796 123.9533256  41.5255367  28.6774793 123.8978340  41.3188989
  21.5734435 117.7081203  35.6932492  21.6375762 118.5696034  35.2809890
  21.5101556 117.0955205  34.9604851  21.0486708 119.7804336  39.3405526
  21.6758747 119.3981413  39.9543051  20.1914627 119.5618538  39.7061219
  31.4480816 130.1867311  40.9459262  31.9920720 130.7997269  40.4514217
  30.8667661 130.7446890  41.4626275  21.3546498 119.6636762  31.2551430
  20.6333083 120.2772729  31.1158903  22.1439753 120.1994527  31.1768076
  31.7973238 131.1097049  33.7053840  30.8503573 130.9902400  33.6332166
  32.1456011 130.2219547  33.7880101  24.1572811 116.9991188  37.5292082
  24.6807213 117.2453485  38.2918391  23.9385144 117.8311223  37.1095219
  22.6681915 119.5567833  25.7638684  23.0077988 120.0853754  25.0417292
  23.1154036 119.8948239  26.5397251  32.4053793 131.7278324  30.9923065
  33.3300340 131.5221186  30.8547516  32.2369096 131.4794725  31.9012406
  25.3625356 117.9404883  35.2141752  25.0222177 117.1412696  35.6162432
  24.6564362 118.2406594  34.6418585  26.0141828 115.0254196  33.6669075
  26.8367897 114.5514674  33.5447965  26.2579892 115.8044679  34.1667761
  24.6550063 118.0542454  23.9631977  25.3758425 118.4323707  23.4595694
  24.0315367 118.7731331  24.0666955  28.7981185 118.7587603  24.8990309
  29.0144800 119.6412241  24.5979137  28.3175253 118.3673817  24.1695951
  23.5380407 121.7173316  31.4761054  23.3924987 122.0313619  32.3685335
  23.0605610 122.3358217  30.9231952  25.3976790 118.7075864  31.5241943
  25.3838358 117.8116958  31.1874241  26.1149218 118.7146528  32.1580229
  27.2502920 119.1413205  33.5695071  26.9920698 120.0630275  33.5679401
  26.7187961 118.7443639  34.2595535  18.0126069 124.2578661  34.4148715
  17.4679537 125.0338469  34.5468989  18.8905419 124.6049465  34.2567836
  24.8013686 117.5890245  26.7929513  24.9229597 116.6606891  26.9920401
  24.5115728 117.6028931  25.8807829  27.6704876 115.2745155  29.9296233
  27.6926573 115.3384488  28.9748213  28.0872935 114.4349664  30.1236739
  38.0488500 125.0100415  27.9675456  38.4919646 124.2607740  27.5694579
  37.1715011 125.0010551  27.5849188  33.1824282 131.5630756  23.4482054
  33.8775186 132.1837449  23.6669369  33.5247432 130.7126107  23.7234432
  18.7992091 123.3848557  37.3078872  18.0573827 123.5331192  37.8943502
  18.4784835 123.6456823  36.4445621  35.0815705 129.0130462  24.9769385
  35.6067029 129.3517734  24.2518705  34.9938057 128.0777477  24.7932520
  24.2854765 119.1022242  41.0019446  24.3342921 119.9784365  40.6197216
  24.8277279 118.5599635  40.4291089  34.7709611 129.6463365  40.2820583
  33.9805155 129.6287504  39.7425083  34.5342965 130.1851659  41.0369620
  34.8907486 126.4955832  37.5953312  34.9405491 126.3305839  38.5368834
  34.7821409 125.6283091  37.2051192  32.1811248 122.4786760  38.9112618
  33.0821111 122.3393224  38.6196616  32.2559223 122.6441214  39.8510796
  26.5154054 119.8553614  37.7565805  25.6457363 120.1487180  37.4848393
  26.7513534 120.4394059  38.4773068  36.3925683 128.9152773  37.8395333
  36.1010491 129.2782754  38.6758794  35.7797814 128.2019781  37.6608665
  37.5921365 126.4805653  30.3597903  38.4268256 126.9195457  30.5235464
  37.7280494 126.0044306  29.5406149  34.6412871 124.0385388  36.3075391
  35.1166993 124.2313034  35.4994243  33.7178436 124.0944574  36.0618775
  29.2193087 116.0733231  35.2731225  29.7375031 116.8094258  34.9477714
  28.8648220 116.3797225  36.1077984  29.4705682 112.4933514  30.7932122
  29.7507435 111.8256703  31.4192548  30.2556289 112.6862609  30.2806786
  33.3414540 120.9151148  34.5403697  34.2931963 121.0149246  34.5615921
  33.1717990 120.1229416  35.0501781  31.3628919 118.0006731  34.7263098
  30.7678852 118.2811744  34.0309586  31.0778616 118.4900632  35.4979839
  35.8202618 124.1357268  33.6545996  35.7878938 123.1973268  33.8405680
  36.4303241 124.2141304  32.9211821  35.9697106 120.9268311  33.7004280
  35.4536155 120.1426768  33.5134208  36.8537055 120.5987028  33.8650799
  33.6307833 114.6709327  29.6600092  33.4332654 114.3624415  30.5443424
  34.2407539 115.3970965  29.7898022  41.6379168 125.1973274  32.7952033
  42.3682556 124.9358562  33.3559737  41.0286113 124.4601996  32.8354101
  39.7194465 123.3381137  33.3926484  38.9927628 123.2037102  32.7842976
  39.3041752 123.6457966  34.1983202  27.5424641 127.0571067  41.1573857
  28.4627651 127.2349666  41.3513904  27.5074224 126.1127112  41.0053557
  16.7606806 122.2509660  30.0827132  16.4409590 121.3974968  29.7901506
  16.2140234 122.4658238  30.8385099  20.5386714 124.9672101  33.7996639
  20.7572723 125.8989209  33.8184672  20.9512487 124.6080076  34.5851442
  27.4590931 115.4740187  25.7872327  26.6491660 115.1287272  26.1627573
  28.1475348 115.1647730  26.3759939  29.3881480 114.5518233  27.4096624
  29.9412518 114.9713687  28.0686647  29.6251566 113.6253982  27.4519580
  25.4114579 120.5405307  43.1899388  25.3111306 121.4899664  43.1211479
  25.1936121 120.2123546  42.3175458  32.7660287 116.6618759  26.9175288
  32.1858956 117.3203563  26.5353340  32.4996220 115.8396103  26.5062705
  31.2163853 116.0623816  29.1196608  31.7163632 116.1740351  28.3110927
  31.8599461 115.7584869  29.7597417  25.2745849 123.9702446  42.0064449
  24.7912931 124.7702806  42.2128338  25.3606788 123.9810391  41.0531893
  21.7918569 126.4308097  36.6103681  22.6111458 126.9252175  36.6338518
  22.0655376 125.5140065  36.5821248  31.5485165 118.8218849  25.9731636
  30.6611020 119.1068500  25.7551831  31.9639154 118.6612612  25.1258913
  34.8999701 118.8465370  29.6885975  35.6760091 119.3361822  29.9610592
  34.1747835 119.2723424  30.1457845  37.3372260 119.5592989  30.7459916
  37.9316750 119.3188725  30.0353224  37.4098843 118.8400120  31.3733452
  31.5226189 124.3373385  26.1881926  31.4661390 124.7941936  25.3489559
  32.0754531 123.5764069  26.0104769  35.3330995 120.1263117  27.0132046
  35.0767929 119.7259752  27.8440254  34.7083863 120.8406911  26.8882185
  39.6443332 122.8659190  29.5203337  39.0842890 122.9352379  30.2934899
  39.0386836 122.6900175  28.8002833  32.6015076 129.0246053  22.1178116
  33.4360680 128.5927251  21.9355591  32.4399419 128.8528067  23.0455011
  32.2560968 125.5278166  23.4834456  32.2009772 125.3622438  22.5422900
  31.6307023 126.2354199  23.6396645  17.0453483 120.7646231  37.3095878
  17.6912346 120.2545184  37.7983103  16.8370634 121.5014912  37.8839303
  29.5706875 127.8327078  42.8088018  30.4398035 128.0067730  42.4474653
  29.0913627 128.6521495  42.6863748  25.5657093 115.0286275  23.0619774
  25.5535763 115.9728115  23.2188045  26.4580515 114.8456421  22.7679235
  29.3809213 111.6229052  27.3165711  28.6141609 111.0687538  27.4622393
  29.7919918 111.6950921  28.1779862  21.3850974 117.9113848  41.4070892
  22.2482435 117.5550652  41.6174217  20.8116385 117.5727742  42.0946296
  43.7074467 130.9163965  34.6514088  43.3757792 131.7859376  34.4275303
  43.1120080 130.6000249  35.3308119  45.4664776 133.8375490  33.5085312
  44.8239157 134.1308023  32.8625107  44.9619705 133.7228410  34.3138509
  40.4640915 133.7596699  32.4461032  39.6025394 134.0577952  32.7377770
  40.4903350 133.9767098  31.5142065  33.9432475 131.3194564  42.4000863
  33.5499420 130.7660763  43.0748508  34.7598615 131.6305143  42.7907381
  36.8600436 132.7352443  39.9921120  37.6010149 133.3359596  39.9125583
  37.0918358 131.9930081  39.4339163  40.8057599 128.7633546  34.2685402
  40.4621868 129.6535188  34.1924512  41.1736561 128.5735204  33.4054987
  38.3554992 133.5991858  27.8343075  37.4996589 133.2098709  27.6548714
  38.7681944 133.6783819  26.9742861  39.8854139 131.1338201  32.2334635
  39.3818935 131.0968337  31.4202440  40.1784746 132.0430944  32.2931292
  36.1297025 131.2176931  31.2400817  36.9950022 131.0219740  30.8806706
  36.1974534 130.9887283  32.1670173  36.0382012 130.3220388  27.3392253
  35.3846424 130.0069405  26.7148868  35.9962486 129.6996128  28.0652076
  42.5033637 135.2450853  28.7761370  41.7656394 134.7328240  29.1071613
  42.7560410 134.8051235  27.9644647  42.6045264 128.0227105  29.3703139
  42.9104141 127.1624469  29.0829054  43.3297869 128.6144726  29.1702133
  38.6851892 132.5176337  37.2168417  38.0379807 133.2166287  37.1232893
  39.4552908 132.9512481  37.5844665  40.4327887 133.4851747  29.7207701
  40.9296587 132.7321710  29.4008772  39.6614869 133.5216064  29.1550911
  42.8746882 130.4521341  31.8687060  41.9609962 130.6825568  32.0369267
  43.3039984 130.5359785  32.7201093  36.8535582 130.3546113  33.6669075
  37.6761652 129.8806592  33.5447965  37.0973646 131.1336597  34.1667761
  38.5098630 130.6037073  29.9296233  38.5320327 130.6676406  28.9748213
  38.9266689 129.7641581  30.1236739  40.0586842 131.4025149  35.2731225
  40.5768786 132.1386176  34.9477714  39.7041975 131.7089142  36.1077984
  40.3099436 127.8225432  30.7932122  40.5901190 127.1548621  31.4192548
  41.0950043 128.0154527  30.2806786  42.2022674 133.3298649  34.7263098
  41.6072606 133.6103661  34.0309586  41.9172371 133.8192550  35.4979839
  46.8090861 136.2560229  33.7004280  46.2929909 135.4718685  33.5134208
  47.6930809 135.9278945  33.8650799  44.4701588 130.0001244  29.6600092
  44.2726409 129.6916332  30.5443424  45.0801293 130.7262883  29.7898022
  38.2984686 130.8032104  25.7872327  37.4885414 130.4579189  26.1627573
  38.9869103 130.4939648  26.3759939  40.2275234 129.8810151  27.4096624
  40.7806273 130.3005605  28.0686647  40.4645321 128.9545899  27.4519580
  43.6054041 131.9910676  26.9175288  43.0252710 132.6495480  26.5353340
  43.3389974 131.1688021  26.5062705  42.0557608 131.3915734  29.1196608
  42.5557386 131.5032268  28.3110927  42.6993216 131.0876787  29.7597417
  42.3878919 134.1510767  25.9731636  41.5004774 134.4360417  25.7551831
  42.8032908 133.9904530  25.1258913  45.7393455 134.1757288  29.6885975
  46.5153846 134.6653740  29.9610592  45.0141590 134.6015342  30.1457845
  48.1766014 134.8884907  30.7459916  48.7710505 134.6480643  30.0353224
  48.2492598 134.1692037  31.3733452  46.1724749 135.4555034  27.0132046
  45.9161683 135.0551670  27.8440254  45.5477617 136.1698828  26.8882185
  36.4050848 130.3578193  23.0619774  36.3929518 131.3020033  23.2188045
  37.2974270 130.1748338  22.7679235  40.2202967 126.9520969  27.3165711
  39.4535363 126.3979456  27.4622393  40.6313672 127.0242838  28.1779862
   0.6185497  59.7145285  20.4392124   1.4402941  59.3125473  20.1574806
   0.6147900  59.6113520  21.3908240   3.6740565  58.3212898  21.4423396
   3.8676455  59.2258709  21.6882671   3.5741183  57.8620317  22.2761981
   2.2528349  60.6649735  27.0065890   1.4623892  60.6473874  26.4670389
   2.0161703  61.2038028  27.7614926   2.3726224  57.5142201  24.3198618
   2.4224229  57.3492209  25.2614141   2.2640147  56.6469460  23.9296499
   3.8744420  59.9339143  24.5640640   3.5829229  60.2969123  25.4004101
   3.2616552  59.2206151  24.3853972   2.1231609  55.0571757  23.0320698
   2.5985730  55.2499404  22.2239549   1.1997174  55.1130943  22.7864081
   9.1197905  56.2159644  19.5197340   9.8501294  55.9544932  20.0805043
   8.5104851  55.4788366  19.5599408   8.7118089  70.5602074  18.9378600
   9.3496499  70.4408821  18.2341940   8.5938931  71.5082917  18.9966552
   5.5207795  70.5129502  18.8740124   5.1826306  70.3970566  17.9860659
   6.3897563  70.1120667  18.8541130   1.3794611  72.3664978  14.8637015
   0.8159476  72.2754915  14.0953303   1.2647006  71.5464882  15.3439508
   6.0027578  71.6664353  24.8326330   5.9916219  71.2717152  23.9606833
   6.1648217  70.9330426  25.4260101   2.7234839  74.4501465  23.7805514
   2.4324705  75.3547096  23.6652180   3.3591823  74.4917993  24.4949583
   3.6491046  71.8278314  20.3706873   4.2454618  71.6034336  19.6563836
   3.7066017  71.0863059  20.9732321   8.2659357  68.2853527  16.0131808
   9.0522446  67.8672951  15.6622225   8.5298061  69.1899620  16.1813456
   8.4369434  73.7226378  10.7120464   7.8015267  73.7961004  11.4241369
   8.1066841  74.3119976  10.0339544  13.6667784  68.2228761  16.9164786
  14.3992956  67.6527977  17.1502616  12.9107140  67.8350361  17.3571292
   5.2843904  70.6456002  14.1128129   4.9202111  70.1186623  14.8241050
   6.1411020  70.2554471  13.9394614  11.1893205  61.9350335  21.3759395
  10.8576529  62.8045746  21.1520610  10.5938818  61.6186619  22.0553425
   7.6824724  74.1362881  20.7755307   7.3825447  75.0387919  20.6671115
   7.3375784  73.8695064  21.6276460  11.0821868  66.6545421  18.4552745
  10.1738745  66.5860829  18.1611506  11.0309464  67.1317366  19.2834570
   5.1562734  68.0735066  26.3987642   4.3796068  68.6328987  26.3890507
   5.7953297  68.5591849  26.9202512  12.9483514  64.8561859  20.2330619
  12.3057895  65.1494392  19.5870413  12.4438443  64.7414780  21.0383815
  10.6023678  68.6025032  10.9216478  11.5141534  68.8352419  10.7464176
  10.0933325  69.1862077  10.3591557   3.4109106  70.8820520  25.9605609
   4.1523790  71.4205564  25.6840433   2.7046091  71.5086809  26.1177161
   8.8864446  73.0249660  24.5577771   9.2947802  72.5832071  23.8132403
   8.1641707  72.4502288  24.8111963   5.2395516  67.9622267  21.9311328
   6.0856711  68.3861681  22.0745977   5.1794153  67.3055891  22.6249891
   9.2093260  73.5850851  18.3130059   8.5802123  73.7496565  17.6106127
   8.8218922  73.9992460  19.0841023  13.0882492  74.5205289  15.6674423
  12.4033530  74.9004190  15.1171457  13.1726341  75.1300615  16.4006371
   8.3894961  65.6226635  23.5892501   8.1455893  66.3768696  23.0526777
   8.6654891  66.0011983  24.4239748  10.3433424  72.1665248  22.2669767
  10.5550319  72.8097008  21.5904148  10.2963172  71.3327564  21.7991697
   7.9459653  64.7783068  19.1706339   7.0844132  65.0764322  19.4623076
   7.9722087  64.9953467  18.2387372   4.7621222  73.3225259  15.5780145
   5.2259568  73.6012962  14.7884767   4.4978020  72.4208704  15.3953235
   1.6545303  72.8696741  18.5159908   2.2246660  73.2984009  17.8777392
   2.2453415  72.5879325  19.2144093   2.1470470  68.0360168  26.7620919
   1.5169130  68.7176449  26.9956316   2.0406558  67.9243250  25.8174057
  11.4579252  75.0437203  20.4392124  12.2796695  74.6417390  20.1574806
  11.4541655  74.9405437  21.3908240   5.2235855  74.5921246  22.5952835
   5.2880288  75.0541654  23.4311006   4.5146779  73.9618611  22.7235144
  19.5485245  71.3875952  16.7877096  18.7948953  70.8183350  16.6321100
  19.6832786  71.3538616  17.7347730   1.4251212  62.3380934  29.1246170
   1.0318158  61.7847132  29.7993814   2.2417353  62.6491512  29.5152688
   4.3419173  63.7538813  26.7166427   5.0828887  64.3545966  26.6370889
   4.5737096  63.0116451  26.1584469   6.5652349  76.8812920  26.5932157
   6.1216203  76.0949299  26.2753061   7.2269563  77.0692071  25.9276048
   1.3239470  78.4108722  21.1192835   1.8746895  78.2825785  20.3469829
   0.4850946  78.7103611  20.7687728   8.6633587  77.1615720  24.6213558
   8.6452063  77.9824601  24.1293827   9.5853507  77.0369796  24.8463699
   5.1206641  74.6759850  25.4637067   5.6534978  73.9148138  25.2336375
   4.5920723  74.3833502  26.2061221   8.2876336  59.7819916  20.9930708
   7.9440606  60.6721558  20.9169819   8.6555299  59.5921573  20.1300293
   7.3672877  62.1524571  18.9579942   6.8637672  62.1154706  18.1447747
   7.6603484  63.0617314  19.0176598   3.6115763  62.2363301  17.9646123
   4.4768759  62.0406109  17.6052013   3.6793272  62.0073652  18.8915480
  13.2260893  72.5260882  11.4356317  12.4490336  72.1872041  10.9911479
  13.9052374  72.5313505  10.7611282   6.4859354  73.8045842  12.9755879
   5.9580716  73.0698602  12.6629116   5.9846857  74.5820519  12.7295847
  11.4652200  71.9994863  18.0922925  10.8075875  72.6894124  18.1803054
  12.2692599  72.3891295  18.4356911  10.2757659  70.3539236  16.1426867
  10.7889541  70.9869227  16.6448576  10.9258883  69.7540431  15.7770227
   6.7538490  67.8288691  18.3885207   5.8361051  68.0503638  18.2306895
   7.1698633  67.9035002  17.5296915   7.5373538  69.2280107  13.5187887
   8.2845357  69.7401504  13.2095010   7.8065127  68.9064159  14.3792281
  11.0419455  75.3345237  14.2706009  10.5881782  74.4936147  14.3271200
  10.4113422  75.9706635  14.6080789   9.9852375  66.2637223  15.5006677
   9.2475132  65.7514609  15.8316919  10.2379148  65.8237605  14.6889954
   9.4852394  77.1721734  15.2055827   9.7775369  77.7326791  14.4868193
   9.9951015  77.4650295  15.9608987   4.3585082  69.3367268  16.6024637
   4.4133692  68.3841104  16.5267114   3.5476284  69.4926707  17.0865936
   2.2977442  67.9544328  14.3615016   1.4845307  68.2538498  14.7680208
   2.7936436  67.5600017  15.0789498   4.4486020  77.9502085  16.2949281
   4.4062198  78.1762931  15.3657813   5.3648718  77.7165459  16.4435082
   7.8951653  68.4186152  23.1929910   8.2501041  68.6457625  24.0524376
   8.5423785  68.7504529  22.5707165  13.6249390  71.5404588  13.8979239
  13.4867289  71.7306184  12.9700428  13.2685609  72.3023971  14.3547290
   1.7891516  65.5262683  19.9776251   2.4290896  65.3851442  19.2799214
   0.9569047  65.2397197  19.6014853  13.6518770  73.6081115  18.9090510
  14.0855277  73.5156404  19.7573564  14.3650351  73.5838616  18.2710526
   2.5651820  74.8265114  16.0911243   3.3592419  74.3315434  15.8893818
   1.8543513  74.2982977  15.7278949   7.3846665  77.2083209  20.4423611
   7.4383687  77.7774146  21.2101327   6.5161446  77.3785094  20.0777648
  14.5134319  73.6504816  21.4423396  14.7070210  74.5550626  21.6882671
  14.4134938  73.1912235  22.2761981   6.1670630  63.5362706  23.9413723
   5.5198545  64.2352656  23.8478200   6.9371646  63.9698850  24.3089971
   9.5749428  73.8011559  27.0164276   9.4234935  73.5722110  26.0994360
   9.5654108  74.7582160  27.0295621   6.3434765  71.3743471  22.0010543
   7.2726825  71.5254631  21.8279510   5.9225795  71.4627492  21.1459189
   5.1423096  75.3994136  19.7709080   5.0034182  75.0312920  20.6435019
   4.3537693  75.9141775  19.5993038   6.6928312  74.7775738  17.1597918
   6.3578144  74.7376508  18.0555568   6.1932257  74.1120454  16.6868328
   0.6672555  70.1843368  22.6850499   0.5292353  69.4523607  23.2862038
   1.5777479  70.0952269  22.4034687   3.2954856  69.8963328  22.1734179
   4.0054475  69.2556520  22.1320798   3.2524164  70.1476223  23.0960360
  11.2841635  76.8330681  25.0940758  11.2254181  76.1489901  24.4271341
  11.6861153  77.5749671  24.6421384   2.0083790  66.8828546  23.9929819
   1.4721147  66.4319284  24.6451415   1.4200499  67.0174455  23.2500283
  11.2859042  74.7970265  23.3254738  10.3985821  74.4596187  23.4481137
  11.8557593  74.0653296  23.5623503   4.8160195  79.4571717  20.2915981
   4.7430367  80.2626689  20.8035286   4.3737589  79.6563683  19.4664003
   7.9146625  64.5038117  16.4453008   8.4115325  63.7508079  16.1254078
   7.1433607  64.5402434  15.8796217  15.7676383  70.2078482  18.0871300
  15.7566259  71.0903198  17.7165233  14.8993762  69.8550033  17.8925837
   7.2758879  79.3558551  22.4474140   7.9886851  79.9906016  22.3750041
   6.7848908  79.4522417  21.6314142   8.9976406  73.2609804  14.0191431
   8.0632685  73.3811267  13.8496136   9.1753074  72.3582271  13.7551441
   4.4981594  66.6455500  16.1724693   4.1279381  66.0926540  16.8605598
   4.9940686  66.0413633  15.6199693  12.3848957  69.1027123  14.5541466
  12.8509409  69.9355115  14.4801768  12.8356458  68.6372105  15.2586724
   2.3270793  77.1052995  23.2679711   3.0280252  77.7389478  23.4209105
   1.8565908  77.4467726  22.5075350  10.4525188  75.4470945  11.5527618
  10.7285032  75.3327539  12.4621492   9.5829687  75.0488430  11.5139791
  10.3565620  61.4707710  18.5932367   9.4428700  61.7011937  18.7614574
  10.7858721  61.5546154  19.4446399  10.1272078  69.6597602  21.0932261
   9.4743529  69.9073510  20.4384714  10.5052458  68.8461741  20.7594738
   7.0879252  79.6957296  15.1960431   7.2701647  78.8778951  15.6588184
   7.9112238  79.9124988  14.7585321   7.4221418  78.6225481  12.4575480
   7.9509184  78.1117935  11.8445642   7.6849637  78.3068011  13.3221013
   6.1759652  70.4017413  27.5798298   5.5000289  70.3011543  28.2500673
   6.9987285  70.2456627  28.0434295   4.9182434  81.7084341  21.8155914
   5.4700742  81.8715962  22.5804999   5.2588628  82.2988779  21.1435939
   9.7693309  76.5345598  27.6704568  10.3133213  77.1475557  27.1759523
   9.1880154  77.0925177  28.1871582   8.0550822  79.6566316  18.8019596
   7.9301961  78.8556056  18.2930542   8.7129913  80.1512510  18.3133566
  10.1185730  77.4575337  20.4299146   9.1716066  77.3380688  20.3577473
  10.4668503  76.5697835  20.5125408   2.4785303  63.3469475  24.2537388
   3.0019705  63.5931772  25.0163698   2.2597637  64.1789510  23.8340526
   7.1232163  77.2528053  16.6303499   6.9757126  76.3244760  16.8111069
   7.9485657  77.2748143  16.1460574  10.7266285  78.0756611  17.7168371
  11.6512833  77.8699473  17.5792822  10.5581589  77.8273013  18.6257713
   3.6837848  64.2883171  21.9387059   3.3434669  63.4890984  22.3407739
   2.9776855  64.5884881  21.3663892   4.3354320  61.3732483  20.3914382
   5.1580390  60.8992961  20.2693272   4.5792384  62.1522967  20.8913068
   1.8592899  68.0651604  18.2006360   1.7137480  68.3791907  19.0930642
   1.3818103  68.6836504  17.6477259   3.7189282  65.0554152  18.2487250
   3.7050851  64.1595245  17.9119548   4.4361710  65.0624815  18.8825536
   5.5715413  65.4891492  20.2940377   5.3133190  66.4108562  20.2924708
   5.0400453  65.0921926  20.9840842  10.5161601  78.5942279  13.0730463
  10.6898479  78.0288701  12.3204315  11.0090493  79.3943174  12.8909953
  16.3700993  71.3578702  14.6920762  16.8132139  70.6086027  14.2939886
  15.4927503  71.3488838  14.3094494  11.5036774  77.9109043  10.1727361
  12.1987679  78.5315736  10.3914676  11.8459924  77.0604395  10.4479739
  13.4028197  75.3608749  11.7014692  13.9279521  75.6996022  10.9764012
  13.3150550  74.4255764  11.5177826   5.0648246  79.2742822  23.8304568
   5.3735372  79.0291969  24.7027268   5.8623728  79.4789461  23.3423439
   5.0868858  81.4280732  16.0609945   4.6473848  80.9357111  16.7542802
   5.8376975  80.8853700  15.8202020   2.5342730  76.9718741  18.1332247
   1.9122739  76.3089446  17.8334475   3.2047597  76.9979873  17.4505894
   2.6067257  65.4500529  27.7264753   2.6555413  66.3262652  27.3442522
   3.1489772  64.9077922  27.1536396  13.0922103  75.9941652  27.0065890
  12.3017647  75.9765791  26.4670389  12.8555458  76.5329946  27.7614926
  13.2119978  72.8434119  24.3198618  13.2617983  72.6784126  25.2614141
  13.1033901  71.9761378  23.9296499  10.5023741  68.8265047  25.6357925
  11.4033603  68.6871512  25.3441923  10.5771715  68.9919502  26.5756102
   4.8366546  66.2031902  24.4811111   3.9669855  66.4965468  24.2093700
   5.0726026  66.7872347  25.2018375  14.7138175  75.2631060  24.5640640
  14.4222983  75.6261041  25.4004101  14.1010306  74.5498069  24.3853972
  15.9133857  72.8283940  17.0843210  16.7480749  73.2673744  17.2480770
  16.0492986  72.3522593  16.2651456  12.9625363  70.3863675  23.0320698
  13.4379485  70.5791321  22.2239549  12.0390929  70.4422861  22.7864081
   7.5405580  62.4211519  21.9976532   8.0587524  63.1572545  21.6723020
   7.1860712  62.7275512  22.8323291   7.7918174  58.8411801  17.5177428
   8.0719928  58.1734990  18.1437855   8.5768781  59.0340897  17.0052092
  11.6627032  67.2629435  21.2649003  12.6144455  67.3627533  21.2861227
  11.4930483  66.4707704  21.7747088   9.6841412  64.3485018  21.4508404
   9.0891344  64.6290031  20.7554893   9.3991108  64.8378919  22.2225145
  14.1415110  70.4835555  20.3791303  14.1091430  69.5451556  20.5650987
  14.7515734  70.5619591  19.6457128  14.2909598  67.2746598  20.4249586
  13.7748647  66.4905055  20.2379515  15.1749547  66.9465315  20.5896106
  11.9520325  61.0187614  16.3845399  11.7545147  60.7102702  17.2688731
  12.5620031  61.7449253  16.5143329  19.9591660  71.5451562  19.5197340
  20.6895048  71.2836850  20.0805043  19.3498605  70.8080284  19.5599408
  18.0406957  69.6859424  20.1171791  17.3140121  69.5515389  19.5088283
  17.6254244  69.9936253  20.9228509   5.8637133  73.4049354  27.8819164
   6.7840143  73.5827953  28.0759211   5.8286716  72.4605399  27.7298863
   3.7327071  66.8883594  29.9144694   3.6323798  67.8377951  29.8456785
   3.5148613  66.5601833  29.0420764   9.5376345  62.4102104  15.8441915
  10.0376124  62.5218638  15.0356234  10.1811953  62.1063156  16.4842723
   3.5958341  70.3180733  28.7309756   3.1125423  71.1181093  28.9373645
   3.6819280  70.3288678  27.7777200  13.2212193  65.1943657  16.4131282
  13.9972583  65.6840110  16.6855899  12.4960327  65.6201711  16.8703152
  15.6584752  65.9071276  17.4705223  16.2529243  65.6667012  16.7598531
  15.7311336  65.1878407  18.0978759   9.8438681  70.6851672  12.9127233
   9.7873882  71.1420224  12.0734865  10.3967023  69.9242357  12.7350076
  13.6543487  66.4741404  13.7377352  13.3980421  66.0738040  14.5685560
  13.0296355  67.1885198  13.6127492  17.9655825  69.2137477  16.2448644
  17.4055383  69.2830667  17.0180206  17.3599328  69.0378462  15.5248140
  10.9227568  75.3724340   8.8423423  11.7573172  74.9405539   8.6600898
  10.7611911  75.2006354   9.7700317  10.5773460  71.8756453  10.2079762
  10.5222264  71.7100725   9.2668206   9.9519515  72.5832486  10.3641952
   7.8919367  74.1805365  29.5333325   8.7610527  74.3546018  29.1719960
   7.4126119  74.9999782  29.4109054   2.0605548  81.3002466  21.2122759
   2.9632794  81.3326077  21.5289254   1.8342918  80.3702917  21.2269094
   3.8159150  80.0533453  17.8732837   2.8654781  80.0535314  17.7597209
   4.1191636  79.3066187  17.3568872  19.5511843  85.8893991  18.9378600
  20.1890253  85.7700739  18.2341940  19.4332686  86.8374835  18.9966552
  16.3601549  85.8421419  18.8740124  16.0220061  85.7262484  17.9860659
  17.2291318  85.4412584  18.8541130  12.2188365  87.6956896  14.8637015
  11.6553230  87.6046833  14.0953303  12.1040760  86.8756800  15.3439508
  16.8421332  86.9956271  24.8326330  16.8309973  86.6009069  23.9606833
  17.0041972  86.2622344  25.4260101   9.7652797  89.1908087  17.7021236
  10.5574089  88.8498912  17.2867535  10.0049447  89.3003062  18.6223389
  13.5628593  89.7793383  23.7805514  13.2718459  90.6839014  23.6652180
  14.1985578  89.8209910  24.4949583  14.4884800  87.1570231  20.3706873
  15.0848373  86.9326254  19.6563836  14.5459772  86.4154977  20.9732321
  19.1053112  83.6145445  16.0131808  19.8916201  83.1964868  15.6622225
  19.3691816  84.5191537  16.1813456  19.2763189  89.0518295  10.7120464
  18.6409022  89.1252922  11.4241369  18.9460595  89.6411894  10.0339544
  24.5061539  83.5520678  16.9164786  25.2386711  82.9819895  17.1502616
  23.7500894  83.1642279  17.3571292  16.1237658  85.9747920  14.1128129
  15.7595866  85.4478541  14.8241050  16.9804774  85.5846389  13.9394614
  22.0286959  77.2642252  21.3759395  21.6970284  78.1337663  21.1520610
  21.4332572  76.9478536  22.0553425  15.7643145  81.0037819   9.1089477
  15.9317548  81.8718056   9.4759948  15.5740314  81.1665101   8.1850766
  18.5218479  89.4654798  20.7755307  18.2219202  90.3679837  20.6671115
  18.1769538  89.1986982  21.6276460  11.9730960  85.9168595  16.8092012
  11.0481457  85.7844809  17.0169704  12.2215373  86.6962814  17.3061954
  21.9215622  81.9837339  18.4552745  21.0132500  81.9152747  18.1611506
  21.8703218  82.4609283  19.2834570  15.7432366  83.4595477  10.0936144
  15.6231991  83.9052528  10.9321624  15.0484955  83.8080795   9.5349682
   9.3339771  85.5601869  17.6435801   9.4632152  85.8136348  18.5575213
   8.6537222  86.1529577  17.3240456  15.9956488  83.4026984  26.3987642
  15.2189822  83.9620904  26.3890507  16.6347051  83.8883767  26.9202512
  23.7877269  80.1853777  20.2330619  23.1451649  80.4786310  19.5870413
  23.2832197  80.0706697  21.0383815  21.4417432  83.9316950  10.9216478
  22.3535289  84.1644337  10.7464176  20.9327080  84.5153994  10.3591557
  14.2502860  86.2112437  25.9605609  14.9917545  86.7497481  25.6840433
  13.5439846  86.8378726  26.1177161  19.7258200  88.3541578  24.5577771
  20.1341556  87.9123988  23.8132403  19.0035462  87.7794205  24.8111963
  16.0789270  83.2914185  21.9311328  16.9250465  83.7153598  22.0745977
  16.0187908  82.6347809  22.6249891  20.0487015  88.9142769  18.3130059
  19.4195877  89.0788483  17.6106127  19.6612677  89.3284378  19.0841023
  23.9276247  89.8497206  15.6674423  23.2427285  90.2296108  15.1171457
  24.0120096  90.4592533  16.4006371  19.2288715  80.9518553  23.5892501
  18.9849647  81.7060614  23.0526777  19.5048646  81.3303901  24.4239748
  21.1827178  87.4957165  22.2669767  21.3944073  88.1388925  21.5904148
  21.1356926  86.6619482  21.7991697  18.7853407  80.1074986  19.1706339
  17.9237886  80.4056240  19.4623076  18.8115842  80.3245385  18.2387372
  15.6014977  88.6517177  15.5780145  16.0653322  88.9304880  14.7884767
  15.3371775  87.7500621  15.3953235  12.4939058  88.1988658  18.5159908
  13.0640415  88.6275927  17.8777392  13.0847170  87.9171243  19.2144093
  14.5383863  84.7740329  12.3869710  15.2407906  85.2261373  12.8543636
  14.2064491  84.1324148  13.0149603  12.9864224  83.3652086  26.7620919
  12.3562885  84.0468366  26.9956316  12.8800312  83.2535167  25.8174057
   8.2809197  83.0323882  17.6886843   7.4908251  83.2881410  17.2126954
   8.7720444  83.8472220  17.7938884  22.2973006  90.3729121  20.4392124
  23.1190450  89.9709308  20.1574806  22.2935409  90.2697355  21.3908240
  10.2323942  83.3968461  14.6470320   9.4355105  83.5087155  15.1653816
  10.0049534  83.7355113  13.7811210  16.0629610  89.9213164  22.5952835
  16.1274042  90.3833571  23.4311006  15.3540534  89.2910529  22.7235144
   6.5646900  83.2854372  20.1201834   6.8154938  84.1701382  20.3859410
   7.1006448  83.1058974  19.3476926  30.3878999  86.7167869  16.7877096
  29.6342708  86.1475267  16.6321100  30.5226540  86.6830534  17.7347730
  12.2644967  77.6672851  29.1246170  11.8711912  77.1139050  29.7993814
  13.0811107  77.9783430  29.5152688  15.1812928  79.0830731  26.7166427
  15.9222641  79.6837884  26.6370889  15.4130851  78.3408368  26.1584469
  10.3254266  84.2687098  24.9944656  10.2107781  83.3672355  25.2951755
   9.4698784  84.5150795  24.6429473  17.4046104  92.2104838  26.5932157
  16.9609958  91.4241217  26.2753061  18.0663317  92.3983989  25.9276048
  12.1633225  93.7400640  21.1192835  12.7140650  93.6117703  20.3469829
  11.3244701  94.0395529  20.7687728  19.5027342  92.4907638  24.6213558
  19.4845817  93.3116519  24.1293827  20.4247262  92.3661713  24.8463699
  15.9600396  90.0051768  25.4637067  16.4928733  89.2440056  25.2336375
  15.4314477  89.7125419  26.2061221  19.1270091  75.1111834  20.9930708
  18.7834360  76.0013475  20.9169819  19.4949053  74.9213491  20.1300293
  19.0920374  85.1020445   9.5003143  18.5766997  85.8725049   9.7391531
  18.8197682  84.4285581  10.1236205  16.6767485  79.9470145  14.5588382
  15.8209081  79.5576996  14.3794021  17.0894436  80.0262106  13.6988167
  18.2066631  77.4816489  18.9579942  17.7031427  77.4446624  18.1447747
  18.4997238  78.3909231  19.0176598  14.4509517  77.5655218  17.9646123
  15.3162514  77.3698027  17.6052013  14.5187026  77.3365570  18.8915480
  24.0654648  87.8552799  11.4356317  23.2884090  87.5163959  10.9911479
  24.7446129  87.8605422  10.7611282  18.8806677  82.9747537  11.3262925
  18.5756812  83.2893686  12.1773068  19.8337119  83.0528957  11.3690258
  17.3253109  89.1337760  12.9755879  16.7974470  88.3990520  12.6629116
  16.8240611  89.9112436  12.7295847  22.3045955  87.3286781  18.0922925
  21.6469629  88.0186042  18.1803054  23.1086354  87.7183212  18.4356911
  12.0571836  79.7957426  15.3362490  12.6315588  79.5732608  14.6035683
  12.6442819  79.8646121  16.0891091  21.1151413  85.6831153  16.1426867
  21.6283295  86.3161145  16.6448576  21.7652637  85.0832349  15.7770227
  14.3594504  76.6698675  14.0637560  13.7058916  76.3547692  13.4394174
  14.3174978  76.0474416  14.7897383  17.5932244  83.1580609  18.3885207
  16.6754806  83.3795556  18.2306895  18.0092388  83.2326919  17.5296915
  18.3767292  84.5572024  13.5187887  19.1239111  85.0693422  13.2095010
  18.6458882  84.2356077  14.3792281  16.6493942  87.0530565  10.5014842
  15.7405161  86.7689598  10.5987312  16.6789026  87.4729644   9.6418149
  21.8813210  90.6637155  14.2706009  21.4275537  89.8228065  14.3271200
  21.2507176  91.2998553  14.6080789  20.8246129  81.5929141  15.5006677
  20.0868886  81.0806527  15.8316919  21.0772903  81.1529522  14.6889954
  20.3246149  92.5013651  15.2055827  20.6169123  93.0618708  14.4868193
  20.8344769  92.7942212  15.9608987  20.9257757  74.3705393  16.0948446
  21.2316633  73.5102756  15.8074361  21.6510361  74.9623013  15.8947440
  15.1978836  84.6659186  16.6024637  15.2527446  83.7133022  16.5267114
  14.3870038  84.8218625  17.0865936  13.1371196  83.2836246  14.3615016
  12.3239062  83.5830416  14.7680208  13.6330190  82.8891934  15.0789498
  15.2879774  93.2794002  16.2949281  15.2455953  93.5054849  15.3657813
  16.2042473  93.0457377  16.4435082  18.7345408  83.7478070  23.1929910
  19.0894796  83.9749543  24.0524376  19.3817539  84.0796447  22.5707165
  24.4643145  86.8696506  13.8979239  24.3261043  87.0598102  12.9700428
  24.1079364  87.6315889  14.3547290  12.6285271  80.8554601  19.9776251
  13.2684650  80.7143360  19.2799214  11.7962801  80.5689114  19.6014853
  24.4912524  88.9373033  18.9090510  24.9249031  88.8448322  19.7573564
  25.2044105  88.9130533  18.2710526  13.4045575  90.1557031  16.0911243
  14.1986173  89.6607352  15.8893818  12.6937267  89.6274895  15.7278949
  18.2240419  92.5375127  20.4423611  18.2777442  93.1066063  21.2101327
  17.3555201  92.7077012  20.0777648   9.6313887  80.8254926  14.7549238
   9.8920705  81.7400259  14.6458398  10.4531060  80.3579369  14.9045851
  11.1038813  82.2392683  21.9248062  11.7761866  82.0310045  21.2760711
  10.2768599  82.0414769  21.4853295  25.3528074  88.9796734  21.4423396
  25.5463964  89.8842544  21.6882671  25.2528692  88.5204153  22.2761981
  17.0064385  78.8654624  23.9413723  16.3592300  79.5644574  23.8478200
  17.7765400  79.2990768  24.3089971  20.4143183  89.1303476  27.0164276
  20.2628689  88.9014028  26.0994360  20.4047862  90.0874078  27.0295621
  17.1828519  86.7035389  22.0010543  18.1120579  86.8546549  21.8279510
  16.7619549  86.7919410  21.1459189  15.9816851  90.7286053  19.7709080
  15.8427937  90.3604838  20.6435019  15.1931447  91.2433693  19.5993038
  17.5322066  90.1067656  17.1597918  17.1971899  90.0668426  18.0555568
  17.0326012  89.4412372  16.6868328  11.5066310  85.5135286  22.6850499
  11.3686108  84.7815525  23.2862038  12.4171233  85.4244186  22.4034687
  14.1348611  85.2255245  22.1734179  14.8448229  84.5848438  22.1320798
  14.0917919  85.4768140  23.0960360  22.1235389  92.1622599  25.0940758
  22.0647935  91.4781819  24.4271341  22.5254908  92.9041589  24.6421384
  12.8477545  82.2120463  23.9929819  12.3114902  81.7611202  24.6451415
  12.2594253  82.3466372  23.2500283  22.1252797  90.1262183  23.3254738
  21.2379575  89.7888105  23.4481137  22.6951348  89.3945214  23.5623503
   8.5816666  81.3476471  21.0782813   8.4974855  80.7402141  20.3433223
   7.7599372  81.8385489  21.0792309  15.6553950  94.7863635  20.2915981
  15.5824121  95.5918607  20.8035286  15.2131343  94.9855601  19.4664003
  18.7540380  79.8330035  16.4453008  19.2509079  79.0799997  16.1254078
  17.9827361  79.8694351  15.8796217  26.6070137  85.5370400  18.0871300
  26.5960013  86.4195116  17.7165233  25.7387517  85.1841951  17.8925837
  18.1152633  94.6850469  22.4474140  18.8280606  95.3197934  22.3750041
  17.6242662  94.7814335  21.6314142  19.8370160  88.5901722  14.0191431
  18.9026439  88.7103184  13.8496136  20.0146829  87.6874189  13.7551441
  15.3375348  81.9747418  16.1724693  14.9673136  81.4218458  16.8605598
  15.8334441  81.3705551  15.6199693  23.2242712  84.4319041  14.5541466
  23.6903164  85.2647033  14.4801768  23.6750212  83.9664023  15.2586724
  13.1664547  92.4344913  23.2679711  13.8674007  93.0681396  23.4209105
  12.6959662  92.7759644  22.5075350  21.2918943  90.7762862  11.5527618
  21.5678787  90.6619457  12.4621492  20.4223442  90.3780347  11.5139791
  21.1959374  76.7999628  18.5932367  20.2822454  77.0303855  18.7614574
  21.6252476  76.8838072  19.4446399  20.9665833  84.9889520  21.0932261
  20.3137283  85.2365428  20.4384714  21.3446213  84.1753658  20.7594738
  17.9273007  95.0249213  15.1960431  18.1095401  94.2070869  15.6588184
  18.7505993  95.2416905  14.7585321  18.2615172  93.9517398  12.4575480
  18.7902939  93.4409853  11.8445642  18.5243392  93.6359929  13.3221013
  17.0153406  85.7309331  27.5798298  16.3394043  85.6303460  28.2500673
  17.8381040  85.5748545  28.0434295   8.7632265  91.9681268  20.2010813
   9.3485702  91.2224956  20.3338718   8.5657104  92.2785224  21.0847477
  15.7576189  97.0376259  21.8155914  16.3094497  97.2007880  22.5804999
  16.0982382  97.6280696  21.1435939  10.7340682  79.3851408  22.4177799
  10.7982009  80.2466239  22.0055196  10.6707802  78.7725410  21.6850157
  10.2092955  81.4574541  26.0650833  10.8364993  81.0751618  26.6788357
   9.3520873  81.2388743  26.4306526  20.6087063  91.8637516  27.6704568
  21.1526967  92.4767474  27.1759523  20.0273908  92.4217094  28.1871582
  18.8944576  94.9858234  18.8019596  18.7695716  94.1847974  18.2930542
  19.5523667  95.4804427  18.3133566  10.5152744  81.3406967  17.9796736
   9.7939330  81.9542934  17.8404210  11.3046000  81.8764731  17.9013382
  20.9579485  92.7867254  20.4299146  20.0109820  92.6672605  20.3577473
  21.3062258  91.8989752  20.5125408  13.3179058  78.6761393  24.2537388
  13.8413460  78.9223690  25.0163698  13.0991391  79.5081428  23.8340526
  17.9625918  92.5819970  16.6303499  17.8150880  91.6536678  16.8111069
  18.7879411  92.6040061  16.1460574  11.8288162  81.2338037  12.4883991
  12.1684235  81.7623959  11.7662599  12.2760283  81.5718444  13.2642557
  21.5660040  93.4048529  17.7168371  22.4906587  93.1991390  17.5792822
  21.3975343  93.1564930  18.6257713  14.5231603  79.6175088  21.9387059
  14.1828423  78.8182901  22.3407739  13.8170609  79.9176799  21.3663892
  15.1748075  76.7024401  20.3914382  15.9974144  76.2284879  20.2693272
  15.4186138  77.4814884  20.8913068  13.8156309  79.7312659  10.6877283
  14.5364672  80.1093912  10.1841000  13.1921613  80.4501536  10.7912261
  17.9587432  80.4357808  11.6235616  18.1751047  81.3182446  11.3224444
  17.4781499  80.0444021  10.8941258  12.6986654  83.3943521  18.2006360
  12.5531234  83.7083824  19.0930642  12.2211857  84.0128422  17.6477259
  14.5583036  80.3846069  18.2487250  14.5444605  79.4887163  17.9119548
  15.2755465  80.3916733  18.8825536  16.4109167  80.8183409  20.2940377
  16.1526945  81.7400480  20.2924708  15.8794208  80.4213844  20.9840842
  21.3555356  93.9234197  13.0730463  21.5292233  93.3580619  12.3204315
  21.8484247  94.7235091  12.8909953   7.1732316  85.9348866  21.1394022
   6.6285784  86.7108674  21.2714296   8.0511666  86.2819670  20.9813143
  13.9619932  79.2660450  13.5174820  14.0835844  78.3377096  13.7165708
  13.6721975  79.2799136  12.6053136  16.8311123  76.9515360  16.6541540
  16.8532820  77.0154693  15.6993519  17.2479182  76.1119869  16.8482046
  27.2094747  86.6870620  14.6920762  27.6525893  85.9377945  14.2939886
  26.3321257  86.6780756  14.3094494  22.3430528  93.2400961  10.1727361
  23.0381433  93.8607654  10.3914676  22.6853679  92.3896312  10.4479739
   7.9598338  85.0618762  24.0324178   7.2180074  85.2101397  24.6188809
   7.6391082  85.3227028  23.1690928  24.2421952  90.6900667  11.7014692
  24.7673276  91.0287939  10.9764012  24.1544304  89.7547682  11.5177826
  15.9042000  94.6034740  23.8304568  16.2129127  94.3583887  24.7027268
  16.7017482  94.8081379  23.3423439  15.9262612  96.7572650  16.0609945
  15.4867603  96.2649028  16.7542802  16.6770729  96.2145617  15.8202020
  13.3736484  92.3010659  18.1332247  12.7516494  91.6381364  17.8334475
  14.0441351  92.3271791  17.4505894  13.4461012  80.7792447  27.7264753
  13.4949167  81.6554570  27.3442522  13.9883526  80.2369840  27.1536396
  23.9315858  91.3233570  27.0065890  23.1411401  91.3057709  26.4670389
  23.6949212  91.8621864  27.7614926  24.0513733  88.1726037  24.3198618
  24.1011738  88.0076044  25.2614141  23.9427656  87.3053296  23.9296499
  21.3417495  84.1556965  25.6357925  22.2427358  84.0163429  25.3441923
  21.4165470  84.3211419  26.5756102  15.6760300  81.5323819  24.4811111
  14.8063610  81.8257385  24.2093700  15.9119781  82.1164264  25.2018375
  25.5531929  90.5922978  24.5640640  25.2616738  90.9552959  25.4004101
  24.9404061  89.8789986  24.3853972  26.7527612  88.1575858  17.0843210
  27.5874503  88.5965662  17.2480770  26.8886741  87.6814511  16.2651456
  23.8019118  85.7155593  23.0320698  24.2773239  85.9083239  22.2239549
  22.8784683  85.7714778  22.7864081  18.3799334  77.7503436  21.9976532
  18.8981278  78.4864463  21.6723020  18.0254467  78.0567430  22.8323291
  18.6311928  74.1703719  17.5177428  18.9113682  73.5026908  18.1437855
  19.4162535  74.3632814  17.0052092  22.5020787  82.5921353  21.2649003
  23.4538210  82.6919450  21.2861227  22.3324237  81.7999621  21.7747088
  20.5235166  79.6776936  21.4508404  19.9285098  79.9581949  20.7554893
  20.2384863  80.1670837  22.2225145  24.9808864  85.8127472  20.3791303
  24.9485185  84.8743473  20.5650987  25.5909488  85.8911509  19.6457128
  25.1303353  82.6038516  20.4249586  24.6142402  81.8196973  20.2379515
  26.0143301  82.2757232  20.5896106  22.7914080  76.3479531  16.3845399
  22.5938901  76.0394620  17.2688731  23.4013785  77.0741170  16.5143329
  30.7985414  86.8743479  19.5197340  31.5288803  86.6128767  20.0805043
  30.1892360  86.1372201  19.5599408  28.8800711  85.0151342  20.1171791
  28.1533875  84.8807307  19.5088283  28.4647998  85.3228170  20.9228509
  16.7030888  88.7341272  27.8819164  17.6233897  88.9119871  28.0759211
  16.6680471  87.7897317  27.7298863   5.9213053  83.9279865  16.8072439
   5.6015837  83.0745173  16.5146813   5.3746481  84.1428443  17.5630406
   9.6992960  86.6442306  20.5241945   9.9178970  87.5759414  20.5429979
  10.1118734  86.2850281  21.3096749  16.6197178  77.1510392  12.5117634
  15.8097907  76.8057476  12.8872880  17.3081595  76.8417935  13.1005245
  18.5487727  76.2288438  14.1341930  19.1018765  76.6483892  14.7931953
  18.7857813  75.3024186  14.1764886  14.5720826  82.2175512  29.9144694
  14.4717553  83.1669869  29.8456785  14.3542368  81.8893751  29.0420764
  21.9266534  78.3388963  13.6420595  21.3465203  78.9973768  13.2598647
  21.6602466  77.5166308  13.2308012  20.3770100  77.7394021  15.8441915
  20.8769878  77.8510556  15.0356234  21.0205708  77.4355074  16.4842723
  14.4352096  85.6472651  28.7309756  13.9519177  86.4473011  28.9373645
  14.5213035  85.6580596  27.7777200  10.3625433  89.5377186  20.7678190
  11.3168687  89.5061128  20.7008121  10.1637957  89.0767809  21.5828416
  10.9524815  88.1078302  23.3348987  11.7717704  88.6022380  23.3583825
  11.2261623  87.1910270  23.3066555  20.7091412  80.4989054  12.6976943
  19.8217267  80.7838704  12.4797138  21.1245401  80.3382817  11.8504220
  24.0605948  80.5235575  16.4131282  24.8366338  81.0132027  16.6855899
  23.3354082  80.9493629  16.8703152  26.4978506  81.2363194  17.4705223
  27.0922997  80.9958930  16.7598531  26.5705090  80.5170325  18.0978759
  20.6832435  86.0143590  12.9127233  20.6267637  86.4712141  12.0734865
  21.2360778  85.2534274  12.7350076  24.4937241  81.8033322  13.7377352
  24.2374176  81.4029957  14.5685560  23.8690109  82.5177116  13.6127492
  28.8049579  84.5429395  16.2448644  28.2449137  84.6122584  17.0180206
  28.1993082  84.3670380  15.5248140  21.7621322  90.7016258   8.8423423
  22.5966926  90.2697456   8.6600898  21.6005665  90.5298271   9.7700317
  21.4167215  87.2048371  10.2079762  21.3616018  87.0392642   9.2668206
  20.7913270  87.9124404  10.3641952   6.2059730  82.4416435  24.0341184
   6.8518593  81.9315389  24.5228410   5.9976881  83.1785117  24.6084610
  18.7313122  89.5097283  29.5333325  19.6004281  89.6837935  29.1719960
  18.2519873  90.3291700  29.4109054  14.7263340  76.7056480   9.7865081
  14.7142010  77.6498320   9.9433351  15.6186762  76.5226625   9.4924542
  12.8999302  96.6294384  21.2122759  13.8026549  96.6617994  21.5289254
  12.6736672  95.6994835  21.2269094  14.6552904  95.3825370  17.8732837
  13.7048535  95.3827232  17.7597209  14.9585390  94.6358105  17.3568872
  18.5415460  73.2999257  14.0411017  17.7747855  72.7457743  14.1867700
  18.9526165  73.3721125  14.9025169  10.5457221  79.5884053  28.1316199
  11.4088682  79.2320857  28.3419523   9.9722631  79.2497947  28.8191603
  30.3905598 101.2185909  18.9378600  31.0284008 101.0992656  18.2341940
  30.2726440 102.1666753  18.9966552  27.1995304 101.1713337  18.8740124
  26.8613815 101.0554402  17.9860659  28.0685072 100.7704502  18.8541130
  23.0582120 103.0248813  14.8637015  22.4946985 102.9338750  14.0953303
  22.9434515 102.2048718  15.3439508  27.6815087 102.3248189  24.8326330
  27.6703728 101.9300987  23.9606833  27.8435726 101.5914261  25.4260101
  20.6046551 104.5200005  17.7021236  21.3967843 104.1790830  17.2867535
  20.8443202 104.6294980  18.6223389  24.4022348 105.1085300  23.7805514
  24.1112214 106.0130931  23.6652180  25.0379332 105.1501828  24.4949583
  25.3278555 102.4862149  20.3706873  25.9242127 102.2618171  19.6563836
  25.3853526 101.7446894  20.9732321  29.9446866  98.9437363  16.0131808
  30.7309955  98.5256786  15.6622225  30.2085570  99.8483455  16.1813456
  30.1156943 104.3810213  10.7120464  29.4802776 104.4544840  11.4241369
  29.7854350 104.9703812  10.0339544  35.3455293  98.8812596  16.9164786
  36.0780465  98.3111813  17.1502616  34.5894649  98.4934196  17.3571292
  26.9631413 101.3039837  14.1128129  26.5989620 100.7770458  14.8241050
  27.8198529 100.9138306  13.9394614  32.8680714  92.5934170  21.3759395
  32.5364038  93.4629581  21.1520610  32.2726327  92.2770454  22.0553425
  26.6036900  96.3329737   9.1089477  26.7711302  97.2009974   9.4759948
  26.4134069  96.4957019   8.1850766  29.3612233 104.7946716  20.7755307
  29.0612956 105.6971755  20.6671115  29.0163293 104.5278899  21.6276460
  22.8124715 101.2460513  16.8092012  21.8875211 101.1136727  17.0169704
  23.0609128 102.0254732  17.3061954  32.7609377  97.3129256  18.4552745
  31.8526254  97.2444665  18.1611506  32.7096973  97.7901201  19.2834570
  26.5826121  98.7887395  10.0936144  26.4625746  99.2344445  10.9321624
  25.8878709  99.1372712   9.5349682  20.1733526 100.8893786  17.6435801
  20.3025907 101.1428265  18.5575213  19.4930977 101.4821494  17.3240456
  26.8350243  98.7318902  26.3987642  26.0583577  99.2912822  26.3890507
  27.4740806  99.2175685  26.9202512  34.6271023  95.5145695  20.2330619
  33.9845404  95.8078228  19.5870413  34.1225952  95.3998615  21.0383815
  32.2811187  99.2608868  10.9216478  33.1929043  99.4936255  10.7464176
  31.7720834  99.8445912  10.3591557  25.0896615 101.5404355  25.9605609
  25.8311299 102.0789399  25.6840433  24.3833600 102.1670644  26.1177161
  30.5651955 103.6833496  24.5577771  30.9735311 103.2415906  23.8132403
  29.8429216 103.1086123  24.8111963  26.9183025  98.6206102  21.9311328
  27.7644220  99.0445516  22.0745977  26.8581662  97.9639727  22.6249891
  30.8880769 104.2434686  18.3130059  30.2589632 104.4080400  17.6106127
  30.5006431 104.6576296  19.0841023  34.7670001 105.1789124  15.6674423
  34.0821039 105.5588025  15.1171457  34.8513850 105.7884451  16.4006371
  30.0682470  96.2810471  23.5892501  29.8243402  97.0352531  23.0526777
  30.3442400  96.6595818  24.4239748  32.0220933 102.8249083  22.2669767
  32.2337828 103.4680843  21.5904148  31.9750681 101.9911400  21.7991697
  29.6247162  95.4366904  19.1706339  28.7631641  95.7348157  19.4623076
  29.6509596  95.6537303  18.2387372  26.4408731 103.9809094  15.5780145
  26.9047077 104.2596797  14.7884767  26.1765529 103.0792539  15.3953235
  23.3332812 103.5280576  18.5159908  23.9034169 103.9567844  17.8777392
  23.9240924 103.2463161  19.2144093  25.3777617 100.1032247  12.3869710
  26.0801661 100.5553290  12.8543636  25.0458246  99.4616066  13.0149603
  23.8257979  98.6944003  26.7620919  23.1956639  99.3760284  26.9956316
  23.7194067  98.5827085  25.8174057  19.1202951  98.3615799  17.6886843
  18.3302005  98.6173328  17.2126954  19.6114198  99.1764137  17.7938884
  33.1366761 105.7021039  20.4392124  33.9584204 105.3001226  20.1574806
  33.1329164 105.5989273  21.3908240  21.0717697  98.7260379  14.6470320
  20.2748860  98.8379073  15.1653816  20.8443289  99.0647031  13.7811210
  26.9023364 105.2505082  22.5952835  26.9667797 105.7125489  23.4311006
  26.1934288 104.6202447  22.7235144  17.4040654  98.6146290  20.1201834
  17.6548693  99.4993300  20.3859410  17.9400203  98.4350891  19.3476926
  41.2272754 102.0459787  16.7877096  40.4736462 101.4767185  16.6321100
  41.3620295 102.0122452  17.7347730  23.1038721  92.9964769  29.1246170
  22.7105667  92.4430968  29.7993814  23.9204862  93.3075348  29.5152688
  26.0206682  94.4122648  26.7166427  26.7616396  95.0129801  26.6370889
  26.2524605  93.6700286  26.1584469  21.1648020  99.5979016  24.9944656
  21.0501536  98.6964273  25.2951755  20.3092538  99.8442712  24.6429473
  28.2439858 107.5396756  26.5932157  27.8003712 106.7533134  26.2753061
  28.9057072 107.7275906  25.9276048  23.0026979 109.0692557  21.1192835
  23.5534404 108.9409621  20.3469829  22.1638455 109.3687446  20.7687728
  30.3421096 107.8199556  24.6213558  30.3239572 108.6408437  24.1293827
  31.2641016 107.6953631  24.8463699  26.7994150 105.3343685  25.4637067
  27.3322487 104.5731973  25.2336375  26.2708231 105.0417337  26.2061221
  29.9663845  90.4403751  20.9930708  29.6228115  91.3305393  20.9169819
  30.3342808  90.2505409  20.1300293  29.9314128 100.4312362   9.5003143
  29.4160752 101.2016967   9.7391531  29.6591437  99.7577498  10.1236205
  27.5161239  95.2762063  14.5588382  26.6602835  94.8868913  14.3794021
  27.9288191  95.3554024  13.6988167  29.0460386  92.8108406  18.9579942
  28.5425181  92.7738542  18.1447747  29.3390993  93.7201149  19.0176598
  25.2903272  92.8947136  17.9646123  26.1556268  92.6989945  17.6052013
  25.3580781  92.6657488  18.8915480  34.9048402 103.1844717  11.4356317
  34.1277845 102.8455876  10.9911479  35.5839883 103.1897340  10.7611282
  29.7200431  98.3039454  11.3262925  29.4150567  98.6185604  12.1773068
  30.6730873  98.3820874  11.3690258  28.1646863 104.4629678  12.9755879
  27.6368225 103.7282437  12.6629116  27.6634366 105.2404354  12.7295847
  33.1439709 102.6578698  18.0922925  32.4863384 103.3477960  18.1803054
  33.9480108 103.0475130  18.4356911  22.8965591  95.1249344  15.3362490
  23.4709343  94.9024525  14.6035683  23.4836573  95.1938038  16.0891091
  31.9545168 101.0123071  16.1426867  32.4677050 101.6453063  16.6448576
  32.6046392 100.4124266  15.7770227  25.1988258  91.9990593  14.0637560
  24.5452671  91.6839610  13.4394174  25.1568733  91.3766333  14.7897383
  28.4325999  98.4872526  18.3885207  27.5148560  98.7087473  18.2306895
  28.8486142  98.5618837  17.5296915  29.2161047  99.8863942  13.5187887
  29.9632865 100.3985339  13.2095010  29.4852636  99.5647995  14.3792281
  27.4887697 102.3822483  10.5014842  26.5798916 102.0981516  10.5987312
  27.5182781 102.8021561   9.6418149  32.7206964 105.9929072  14.2706009
  32.2669291 105.1519982  14.3271200  32.0900931 106.6290471  14.6080789
  31.6639884  96.9221058  15.5006677  30.9262640  96.4098445  15.8316919
  31.9166657  96.4821440  14.6889954  31.1639903 107.8305569  15.2055827
  31.4562878 108.3910626  14.4868193  31.6738524 108.1234130  15.9608987
  31.7651511  89.6997310  16.0948446  32.0710388  88.8394674  15.8074361
  32.4904116  90.2914931  15.8947440  26.0372591  99.9951103  16.6024637
  26.0921201  99.0424940  16.5267114  25.2263793 100.1510543  17.0865936
  23.9764951  98.6128163  14.3615016  23.1632816  98.9122334  14.7680208
  24.4723945  98.2183852  15.0789498  26.1273529 108.6085920  16.2949281
  26.0849707 108.8346766  15.3657813  27.0436227 108.3749295  16.4435082
  29.5739162  99.0769988  23.1929910  29.9288550  99.3041461  24.0524376
  30.2211294  99.4088364  22.5707165  35.3036899 102.1988424  13.8979239
  35.1654798 102.3890020  12.9700428  34.9473118 102.9607806  14.3547290
  23.4679025  96.1846519  19.9776251  24.1078405  96.0435278  19.2799214
  22.6356556  95.8981032  19.6014853  35.3306279 104.2664951  18.9090510
  35.7642786 104.1740240  19.7573564  36.0437860 104.2422451  18.2710526
  24.2439329 105.4848949  16.0911243  25.0379928 104.9899269  15.8893818
  23.5331022 104.9566812  15.7278949  29.0634174 107.8667045  20.4423611
  29.1171196 108.4357981  21.2101327  28.1948955 108.0368930  20.0777648
  20.4707642  96.1546844  14.7549238  20.7314459  97.0692177  14.6458398
  21.2924814  95.6871286  14.9045851  21.9432567  97.5684601  21.9248062
  22.6155621  97.3601963  21.2760711  21.1162354  97.3706687  21.4853295
  36.1921828 104.3088651  21.4423396  36.3857719 105.2134462  21.6882671
  36.0922447 103.8496070  22.2761981  27.8458139  94.1946542  23.9413723
  27.1986054  94.8936491  23.8478200  28.6159155  94.6282686  24.3089971
  31.2536937 104.4595394  27.0164276  31.1022444 104.2305946  26.0994360
  31.2441617 105.4165995  27.0295621  28.0222274 102.0327307  22.0010543
  28.9514334 102.1838466  21.8279510  27.6013304 102.1211327  21.1459189
  26.8210605 106.0577971  19.7709080  26.6821691 105.6896756  20.6435019
  26.0325202 106.5725611  19.5993038  28.3715820 105.4359574  17.1597918
  28.0365653 105.3960344  18.0555568  27.8719766 104.7704290  16.6868328
  22.3460064 100.8427204  22.6850499  22.2079862 100.1107443  23.2862038
  23.2564988 100.7536104  22.4034687  24.9742365 100.5547163  22.1734179
  25.6841984  99.9140355  22.1320798  24.9311673 100.8060058  23.0960360
  32.9629144 107.4914517  25.0940758  32.9041690 106.8073737  24.4271341
  33.3648662 108.2333507  24.6421384  23.6871299  97.5412381  23.9929819
  23.1508656  97.0903120  24.6451415  23.0988008  97.6758290  23.2500283
  32.9646551 105.4554100  23.3254738  32.0773330 105.1180022  23.4481137
  33.5345102 104.7237132  23.5623503  19.4210420  96.6768389  21.0782813
  19.3368609  96.0694058  20.3433223  18.5993127  97.1677407  21.0792309
  26.4947704 110.1155553  20.2915981  26.4217876 110.9210524  20.8035286
  26.0525098 110.3147519  19.4664003  29.5934134  95.1621952  16.4453008
  30.0902834  94.4091915  16.1254078  28.8221116  95.1986269  15.8796217
  37.4463892 100.8662318  18.0871300  37.4353768 101.7487033  17.7165233
  36.5781271 100.5133869  17.8925837  28.9546388 110.0142387  22.4474140
  29.6674360 110.6489852  22.3750041  28.4636417 110.1106253  21.6314142
  30.6763915 103.9193640  14.0191431  29.7420194 104.0395102  13.8496136
  30.8540583 103.0166106  13.7551441  26.1769103  97.3039335  16.1724693
  25.8066890  96.7510376  16.8605598  26.6728195  96.6997469  15.6199693
  34.0636466  99.7610959  14.5541466  34.5296918 100.5938950  14.4801768
  34.5143967  99.2955940  15.2586724  24.0058302 107.7636830  23.2679711
  24.7067761 108.3973313  23.4209105  23.5353416 108.1051562  22.5075350
  32.1312697 106.1054780  11.5527618  32.4072541 105.9911375  12.4621492
  31.2617196 105.7072265  11.5139791  32.0353129  92.1291546  18.5932367
  31.1216209  92.3595773  18.7614574  32.4646230  92.2129990  19.4446399
  31.8059587 100.3181438  21.0932261  31.1531038 100.5657345  20.4384714
  32.1839967  99.5045576  20.7594738  28.7666761 110.3541131  15.1960431
  28.9489156 109.5362787  15.6588184  29.5899747 110.5708823  14.7585321
  29.1008927 109.2809316  12.4575480  29.6296693 108.7701771  11.8445642
  29.3637146 108.9651846  13.3221013  27.8547160 101.0601249  27.5798298
  27.1787798 100.9595378  28.2500673  28.6774794 100.9040463  28.0434295
  19.6026020 107.2973185  20.2010813  20.1879456 106.5516873  20.3338718
  19.4050858 107.6077142  21.0847477  26.5969943 112.3668176  21.8155914
  27.1488251 112.5299798  22.5804999  26.9376137 112.9572614  21.1435939
  21.5734437  94.7143326  22.4177799  21.6375763  95.5758157  22.0055196
  21.5101557  94.1017328  21.6850157  21.0486709  96.7866459  26.0650833
  21.6758748  96.4043536  26.6788357  20.1914628  96.5680661  26.4306526
  31.4480818 107.1929434  27.6704568  31.9920722 107.8059392  27.1759523
  30.8667663 107.7509012  28.1871582  29.7338331 110.3150152  18.8019596
  29.6089470 109.5139892  18.2930542  30.3917422 110.8096345  18.3133566
  21.3546499  96.6698884  17.9796736  20.6333085  97.2834852  17.8404210
  22.1439755  97.2056649  17.9013382  31.7973239 108.1159172  20.4299146
  30.8503575 107.9964523  20.3577473  32.1456012 107.2281670  20.5125408
  24.1572812  94.0053311  24.2537388  24.6807214  94.2515607  25.0163698
  23.9385146  94.8373346  23.8340526  28.8019672 107.9111888  16.6303499
  28.6544635 106.9828595  16.8111069  29.6273166 107.9331979  16.1460574
  22.6681917  96.5629955  12.4883991  23.0077989  97.0915876  11.7662599
  23.1154037  96.9010361  13.2642557  32.4053794 108.7340447  17.7168371
  33.3300342 108.5283308  17.5792822  32.2369098 108.4856848  18.6257713
  25.3625357  94.9467006  21.9387059  25.0222178  94.1474819  22.3407739
  24.6564364  95.2468717  21.3663892  26.0141829  92.0316318  20.3914382
  26.8367899  91.5576796  20.2693272  26.2579893  92.8106802  20.8913068
  24.6550064  95.0604577  10.6877283  25.3758426  95.4385830  10.1841000
  24.0315368  95.7793454  10.7912261  28.7981187  95.7649726  11.6235616
  29.0144801  96.6474364  11.3224444  28.3175254  95.3735939  10.8941258
  23.5380408  98.7235439  18.2006360  23.3924989  99.0375742  19.0930642
  23.0605612  99.3420339  17.6477259  25.3976791  95.7137987  18.2487250
  25.3838360  94.8179080  17.9119548  26.1149219  95.7208651  18.8825536
  27.2502922  96.1475327  20.2940377  26.9920699  97.0692398  20.2924708
  26.7187962  95.7505762  20.9840842  32.1949110 109.2526114  13.0730463
  32.3685988 108.6872537  12.3204315  32.6878002 110.0527009  12.8909953
  18.0126070 101.2640783  21.1394022  17.4679538 102.0400591  21.2714296
  18.8905420 101.6111588  20.9813143  24.8013687  94.5952367  13.5174820
  24.9229598  93.6669013  13.7165708  24.5115729  94.6091053  12.6053136
  27.6704877  92.2807278  16.6541540  27.6926574  92.3446611  15.6993519
  28.0872936  91.4411786  16.8482046  38.0488502 102.0162537  14.6920762
  38.4919648 101.2669862  14.2939886  37.1715012 102.0072674  14.3094494
  33.1824283 108.5692879  10.1727361  33.8775188 109.1899571  10.3914676
  33.5247433 107.7188230  10.4479739  18.7992092 100.3910680  24.0324178
  18.0573828 100.5393315  24.6188809  18.4784836 100.6518945  23.1690928
  35.0815706 106.0192584  11.7014692  35.6067030 106.3579857  10.9764012
  34.9938059 105.0839600  11.5177826  26.7435755 109.9326658  23.8304568
  27.0522881 109.6875805  24.7027268  27.5411237 110.1373296  23.3423439
  26.7656367 112.0864567  16.0609945  26.3261357 111.5940946  16.7542802
  27.5164484 111.5437535  15.8202020  24.2130239 107.6302577  18.1332247
  23.5910248 106.9673282  17.8334475  24.8835106 107.6563708  17.4505894
  24.2854766  96.1084365  27.7264753  24.3342922  96.9846487  27.3442522
  24.8277281  95.5661758  27.1536396  34.7709612 106.6525488  27.0065890
  33.9805156 106.6349627  26.4670389  34.5342967 107.1913782  27.7614926
  34.8907487 103.5017954  24.3198618  34.9405492 103.3367962  25.2614141
  34.7821410 102.6345213  23.9296499  32.1811250  99.4848882  25.6357925
  33.0821112  99.3455347  25.3441923  32.2559224  99.6503337  26.5756102
  26.5154055  96.8615737  24.4811111  25.6457364  97.1549303  24.2093700
  26.7513535  97.4456182  25.2018375  36.3925684 105.9214896  24.5640640
  36.1010492 106.2844876  25.4004101  35.7797815 105.2081904  24.3853972
  37.5921366 103.4867776  17.0843210  38.4268258 103.9257580  17.2480770
  37.7280495 103.0106429  16.2651456  34.6412872 101.0447510  23.0320698
  35.1166994 101.2375157  22.2239549  33.7178438 101.1006696  22.7864081
  29.2193089  93.0795354  21.9976532  29.7375033  93.8156381  21.6723020
  28.8648221  93.3859347  22.8323291  29.4705683  89.4995636  17.5177428
  29.7507437  88.8318826  18.1437855  30.2556290  89.6924732  17.0052092
  33.3414541  97.9213270  21.2649003  34.2931964  98.0211368  21.2861227
  33.1717992  97.1291539  21.7747088  31.3628921  95.0068854  21.4508404
  30.7678853  95.2873866  20.7554893  31.0778617  95.4962755  22.2225145
  35.8202619 101.1419390  20.3791303  35.7878939 100.2035391  20.5650987
  36.4303243 101.2203427  19.6457128  35.9697107  97.9330434  20.4249586
  35.4536156  97.1488890  20.2379515  36.8537056  97.6049150  20.5896106
  33.6307834  91.6771449  16.3845399  33.4332656  91.3686537  17.2688731
  34.2407540  92.4033088  16.5143329  41.6379169 102.2035397  19.5197340
  42.3682557 101.9420685  20.0805043  41.0286114 101.4664119  19.5599408
  39.7194466 100.3443260  20.1171791  38.9927630 100.2099224  19.5088283
  39.3041753 100.6520088  20.9228509  27.5424642 104.0633189  27.8819164
  28.4627652 104.2411788  28.0759211  27.5074225 103.1189235  27.7298863
  16.7606807  99.2571783  16.8072439  16.4409592  98.4037091  16.5146813
  16.2140236  99.4720361  17.5630406  20.5386715 101.9734224  20.5241945
  20.7572725 102.9051332  20.5429979  20.9512489 101.6142198  21.3096749
  27.4590933  92.4802309  12.5117634  26.6491661  92.1349394  12.8872880
  28.1475350  92.1709853  13.1005245  29.3881481  91.5580356  14.1341930
  29.9412520  91.9775809  14.7931953  29.6251567  90.6316104  14.1764886
  25.4114580  97.5467430  29.9144694  25.3111307  98.4961787  29.8456785
  25.1936122  97.2185669  29.0420764  32.7660288  93.6680881  13.6420595
  32.1858957  94.3265685  13.2598647  32.4996221  92.8458226  13.2308012
  31.2163854  93.0685939  15.8441915  31.7163633  93.1802473  15.0356234
  31.8599462  92.7646992  16.4842723  25.2745850 100.9764568  28.7309756
  24.7912932 101.7764929  28.9373645  25.3606789 100.9872513  27.7777200
  21.2019188 104.8669103  20.7678190  22.1562441 104.8353046  20.7008121
  21.0031711 104.4059727  21.5828416  21.7918570 103.4370219  23.3348987
  22.6111459 103.9314298  23.3583825  22.0655378 102.5202187  23.3066555
  31.5485166  95.8280972  12.6976943  30.6611021  96.1130622  12.4797138
  31.9639155  95.6674735  11.8504220  34.8999702  95.8527493  16.4131282
  35.6760092  96.3423945  16.6855899  34.1747836  96.2785547  16.8703152
  37.3372261  96.5655112  17.4705223  37.9316752  96.3250848  16.7598531
  37.4098845  95.8462242  18.0978759  31.5226190 101.3435507  12.9127233
  31.4661391 101.8004059  12.0734865  32.0754532 100.5826192  12.7350076
  35.3330996  97.1325239  13.7377352  35.0767930  96.7321875  14.5685560
  34.7083864  97.8469033  13.6127492  39.6443334  99.8721313  16.2448644
  39.0842892  99.9414502  17.0180206  39.0386837  99.6962297  15.5248140
  32.6015077 106.0308175   8.8423423  33.4360681 105.5989374   8.6600898
  32.4399420 105.8590189   9.7700317  32.2560969 102.5340289  10.2079762
  32.2009773 102.3684560   9.2668206  31.6307024 103.2416322  10.3641952
  17.0453484  97.7708353  24.0341184  17.6912348  97.2607307  24.5228410
  16.8370635  98.5077035  24.6084610  29.5706876 104.8389201  29.5333325
  30.4398036 105.0129853  29.1719960  29.0913628 105.6583617  29.4109054
  25.5657095  92.0348398   9.7865081  25.5535764  92.9790238   9.9433351
  26.4580516  91.8518543   9.4924542  23.7393057 111.9586302  21.2122759
  24.6420303 111.9909912  21.5289254  23.5130427 111.0286753  21.2269094
  25.4946659 110.7117288  17.8732837  24.5442290 110.7119150  17.7597209
  25.7979145 109.9650023  17.3568872  29.3809214  88.6291174  14.0411017
  28.6141610  88.0749661  14.1867700  29.7919919  88.7013043  14.9025169
  21.3850975  94.9175970  28.1316199  22.2482437  94.5612775  28.3419523
  20.8116386  94.5789865  28.8191603  41.2299352 116.5477827  18.9378600
  41.8677762 116.4284574  18.2341940  41.1120195 117.4958670  18.9966552
  38.0389058 116.5005255  18.8740124  37.7007570 116.3846319  17.9860659
  38.9078827 116.0996420  18.8541130  33.8975874 118.3540731  14.8637015
  33.3340739 118.2630668  14.0953303  33.7828269 117.5340636  15.3439508
  38.5208841 117.6540106  24.8326330  38.5097482 117.2592905  23.9606833
  38.6829481 116.9206179  25.4260101  31.4440306 119.8491923  17.7021236
  32.2361598 119.5082747  17.2867535  31.6836956 119.9586898  18.6223389
  35.2416102 120.4377218  23.7805514  34.9505968 121.3422849  23.6652180
  35.8773087 120.4793746  24.4949583  36.1672309 117.8154067  20.3706873
  36.7635882 117.5910089  19.6563836  36.2247281 117.0738812  20.9732321
  40.7840621 114.2729280  16.0131808  41.5703710 113.8548704  15.6622225
  41.0479325 115.1775373  16.1813456  40.9550698 119.7102131  10.7120464
  40.3196531 119.7836757  11.4241369  40.6248104 120.2995730  10.0339544
  46.1849048 114.2104514  16.9164786  46.9174220 113.6403730  17.1502616
  45.4288403 113.8226114  17.3571292  37.8025167 116.6331755  14.1128129
  37.4383375 116.1062376  14.8241050  38.6592283 116.2430224  13.9394614
  43.7074468 107.9226088  21.3759395  43.3757793 108.7921499  21.1520610
  43.1120081 107.6062372  22.0553425  37.4430654 111.6621655   9.1089477
  37.6105057 112.5301891   9.4759948  37.2527823 111.8248936   8.1850766
  40.2005988 120.1238634  20.7755307  39.9006711 121.0263672  20.6671115
  39.8557047 119.8570817  21.6276460  33.6518469 116.5752431  16.8092012
  32.7268966 116.4428645  17.0169704  33.9002882 117.3546650  17.3061954
  43.6003131 112.6421174  18.4552745  42.6920009 112.5736582  18.1611506
  43.5490727 113.1193119  19.2834570  37.4219875 114.1179312  10.0936144
  37.3019500 114.5636363  10.9321624  36.7272464 114.4664630   9.5349682
  31.0127280 116.2185704  17.6435801  31.1419661 116.4720183  18.5575213
  30.3324731 116.8113412  17.3240456  37.6743997 114.0610819  26.3987642
  36.8977331 114.6204740  26.3890507  38.3134560 114.5467602  26.9202512
  45.4664778 110.8437612  20.2330619  44.8239158 111.1370145  19.5870413
  44.9619706 110.7290533  21.0383815  43.1204941 114.5900785  10.9216478
  44.0322798 114.8228172  10.7464176  42.6114588 115.1737830  10.3591557
  35.9290369 116.8696273  25.9605609  36.6705054 117.4081317  25.6840433
  35.2227355 117.4962562  26.1177161  41.4045709 119.0125413  24.5577771
  41.8129065 118.5707824  23.8132403  40.6822971 118.4378041  24.8111963
  37.7576779 113.9498020  21.9311328  38.6037974 114.3737434  22.0745977
  37.6975417 113.2931644  22.6249891  41.7274524 119.5726604  18.3130059
  41.0983386 119.7372318  17.6106127  41.3400186 119.9868213  19.0841023
  45.6063756 120.5081042  15.6674423  44.9214794 120.8879943  15.1171457
  45.6907605 121.1176368  16.4006371  40.9076224 111.6102388  23.5892501
  40.6637156 112.3644449  23.0526777  41.1836155 111.9887736  24.4239748
  42.8614687 118.1541001  22.2669767  43.0731582 118.7972761  21.5904148
  42.8144435 117.3203317  21.7991697  40.4640916 110.7658821  19.1706339
  39.6025395 111.0640075  19.4623076  40.4903351 110.9829220  18.2387372
  37.2802486 119.3101012  15.5780145  37.7440831 119.5888715  14.7884767
  37.0159284 118.4084457  15.3953235  34.1726567 118.8572494  18.5159908
  34.7427924 119.2859762  17.8777392  34.7634679 118.5755078  19.2144093
  36.2171372 115.4324164  12.3869710  36.9195415 115.8845208  12.8543636
  35.8852000 114.7907983  13.0149603  34.6651733 114.0235921  26.7620919
  34.0350394 114.7052202  26.9956316  34.5587821 113.9119003  25.8174057
  29.9596706 113.6907717  17.6886843  29.1695760 113.9465246  17.2126954
  30.4507953 114.5056055  17.7938884  43.9760515 121.0312956  20.4392124
  44.7977959 120.6293143  20.1574806  43.9722918 120.9281190  21.3908240
  31.9111451 114.0552296  14.6470320  31.1142614 114.1670991  15.1653816
  31.6837043 114.3938948  13.7811210  37.7417119 120.5796999  22.5952835
  37.8061551 121.0417407  23.4311006  37.0328042 119.9494364  22.7235144
  28.2434409 113.9438207  20.1201834  28.4942447 114.8285217  20.3859410
  28.7793957 113.7642809  19.3476926  52.0666508 117.3751705  16.7877096
  51.3130217 116.8059103  16.6321100  52.2014049 117.3414369  17.7347730
  33.9432476 108.3256687  29.1246170  33.5499421 107.7722885  29.7993814
  34.7598616 108.6367265  29.5152688  36.8600437 109.7414566  26.7166427
  37.6010150 110.3421719  26.6370889  37.0918360 108.9992204  26.1584469
  32.0041775 114.9270933  24.9944656  31.8895290 114.0256190  25.2951755
  31.1486293 115.1734630  24.6429473  39.0833613 122.8688673  26.5932157
  38.6397467 122.0825052  26.2753061  39.7450826 123.0567824  25.9276048
  33.8420734 124.3984475  21.1192835  34.3928159 124.2701538  20.3469829
  33.0032210 124.6979364  20.7687728  41.1814851 123.1491473  24.6213558
  41.1633326 123.9700354  24.1293827  42.1034771 123.0245549  24.8463699
  37.6387905 120.6635603  25.4637067  38.1716242 119.9023891  25.2336375
  37.1101986 120.3709255  26.2061221  40.8057600 105.7695669  20.9930708
  40.4621869 106.6597311  20.9169819  41.1736562 105.5797327  20.1300293
  40.7707883 115.7604280   9.5003143  40.2554506 116.5308885   9.7391531
  40.4985191 115.0869416  10.1236205  38.3554994 110.6053981  14.5588382
  37.4996590 110.2160831  14.3794021  38.7681945 110.6845942  13.6988167
  39.8854140 108.1400324  18.9579942  39.3818936 108.1030459  18.1447747
  40.1784747 109.0493067  19.0176598  36.1297026 108.2239054  17.9646123
  36.9950023 108.0281862  17.6052013  36.1974535 107.9949406  18.8915480
  45.7442157 118.5136635  11.4356317  44.9671599 118.1747794  10.9911479
  46.4233638 118.5189258  10.7611282  40.5594186 113.6331372  11.3262925
  40.2544321 113.9477521  12.1773068  41.5124628 113.7112792  11.3690258
  39.0040618 119.7921595  12.9755879  38.4761979 119.0574355  12.6629116
  38.5028120 120.5696272  12.7295847  43.9833464 117.9870616  18.0922925
  43.3257138 118.6769877  18.1803054  44.7873863 118.3767048  18.4356911
  33.7359345 110.4541262  15.3362490  34.3103097 110.2316443  14.6035683
  34.3230328 110.5229956  16.0891091  42.7938922 116.3414989  16.1426867
  43.3070804 116.9744980  16.6448576  43.4440146 115.7416184  15.7770227
  36.0382013 107.3282511  14.0637560  35.3846425 107.0131528  13.4394174
  35.9962487 106.7058251  14.7897383  39.2719753 113.8164444  18.3885207
  38.3542315 114.0379391  18.2306895  39.6879897 113.8910755  17.5296915
  40.0554801 115.2155860  13.5187887  40.8026620 115.7277257  13.2095010
  40.3246391 114.8939913  14.3792281  38.3281451 117.7114401  10.5014842
  37.4192670 117.4273433  10.5987312  38.3576535 118.1313479   9.6418149
  43.5600719 121.3220990  14.2706009  43.1063046 120.4811900  14.3271200
  42.9294685 121.9582388  14.6080789  42.5033638 112.2512976  15.5006677
  41.7656395 111.7390362  15.8316919  42.7560412 111.8113358  14.6889954
  42.0033658 123.1597487  15.2055827  42.2956632 123.7202544  14.4868193
  42.5132278 123.4526048  15.9608987  42.6045265 105.0289228  16.0948446
  42.9104142 104.1686591  15.8074361  43.3297870 105.6206848  15.8947440
  36.8766345 115.3243021  16.6024637  36.9314955 114.3716858  16.5267114
  36.0657547 115.4802460  17.0865936  34.8158705 113.9420081  14.3615016
  34.0026571 114.2414251  14.7680208  35.3117699 113.5475770  15.0789498
  36.9667283 123.9377838  16.2949281  36.9243462 124.1638684  15.3657813
  37.8829982 123.7041212  16.4435082  40.4132917 114.4061905  23.1929910
  40.7682305 114.6333378  24.0524376  41.0605048 114.7380282  22.5707165
  46.1430654 117.5280341  13.8979239  46.0048552 117.7181937  12.9700428
  45.7866873 118.2899724  14.3547290  34.3072780 111.5138436  19.9776251
  34.9472159 111.3727195  19.2799214  33.4750310 111.2272950  19.6014853
  46.1700033 119.5956868  18.9090510  46.6036540 119.5032157  19.7573564
  46.8831614 119.5714369  18.2710526  35.0833084 120.8140867  16.0911243
  35.8773682 120.3191187  15.8893818  34.3724776 120.2858730  15.7278949
  39.9027928 123.1958962  20.4423611  39.9564951 123.7649899  21.2101327
  39.0342710 123.3660847  20.0777648  31.3101396 111.4838761  14.7549238
  31.5708214 112.3984095  14.6458398  32.1318569 111.0163204  14.9045851
  32.7826322 112.8976519  21.9248062  33.4549375 112.6893881  21.2760711
  31.9556108 112.6998605  21.4853295  47.0315583 119.6380569  21.4423396
  47.2251473 120.5426379  21.6882671  46.9316201 119.1787988  22.2761981
  38.6851894 109.5238459  23.9413723  38.0379809 110.2228409  23.8478200
  39.4552909 109.9574603  24.3089971  42.0930692 119.7887312  27.0164276
  41.9416198 119.5597863  26.0994360  42.0835371 120.7457913  27.0295621
  38.8616028 117.3619224  22.0010543  39.7908088 117.5130384  21.8279510
  38.4407058 117.4503245  21.1459189  37.6604360 121.3869889  19.7709080
  37.5215446 121.0188673  20.6435019  36.8718956 121.9017528  19.5993038
  39.2109575 120.7651491  17.1597918  38.8759408 120.7252261  18.0555568
  38.7113521 120.0996207  16.6868328  33.1853819 116.1719122  22.6850499
  33.0473617 115.4399360  23.2862038  34.0958742 116.0828022  22.4034687
  35.8136120 115.8839081  22.1734179  36.5235738 115.2432273  22.1320798
  35.7705428 116.1351976  23.0960360  43.8022898 122.8206434  25.0940758
  43.7435444 122.1365654  24.4271341  44.2042417 123.5625424  24.6421384
  34.5265054 112.8704299  23.9929819  33.9902411 112.4195037  24.6451415
  33.9381762 113.0050208  23.2500283  43.8040306 120.7846018  23.3254738
  42.9167084 120.4471940  23.4481137  44.3738857 120.0529049  23.5623503
  30.2604175 112.0060306  21.0782813  30.1762364 111.3985976  20.3433223
  29.4386881 112.4969325  21.0792309  37.3341459 125.4447470  20.2915981
  37.2611630 126.2502442  20.8035286  36.8918852 125.6439436  19.4664003
  40.4327889 110.4913870  16.4453008  40.9296588 109.7383832  16.1254078
  39.6614870 110.5278187  15.8796217  48.2857646 116.1954235  18.0871300
  48.2747522 117.0778951  17.7165233  47.4175026 115.8425786  17.8925837
  39.7940142 125.3434304  22.4474140  40.5068115 125.9781769  22.3750041
  39.3030171 125.4398170  21.6314142  41.5157669 119.2485557  14.0191431
  40.5813948 119.3687020  13.8496136  41.6934338 118.3458024  13.7551441
  37.0162857 112.6331253  16.1724693  36.6460645 112.0802293  16.8605598
  37.5121950 112.0289386  15.6199693  44.9030221 115.0902876  14.5541466
  45.3690673 115.9230868  14.4801768  45.3537721 114.6247858  15.2586724
  34.8452056 123.0928748  23.2679711  35.5461515 123.7265231  23.4209105
  34.3747171 123.4343480  22.5075350  42.9706452 121.4346698  11.5527618
  43.2466296 121.3203292  12.4621492  42.1010951 121.0364183  11.5139791
  42.8746883 107.4583463  18.5932367  41.9609963 107.6887690  18.7614574
  43.3039985 107.5421908  19.4446399  42.6453342 115.6473355  21.0932261
  41.9924792 115.8949263  20.4384714  43.0233722 114.8337494  20.7594738
  39.6060516 125.6833049  15.1960431  39.7882910 124.8654705  15.6588184
  40.4293502 125.9000741  14.7585321  39.9402681 124.6101234  12.4575480
  40.4690448 124.0993688  11.8445642  40.2030901 124.2943764  13.3221013
  38.6940915 116.3893166  27.5798298  38.0181552 116.2887296  28.2500673
  39.5168549 116.2332380  28.0434295  30.4419774 122.6265103  20.2010813
  31.0273211 121.8808791  20.3338718  30.2444613 122.9369060  21.0847477
  37.4363698 127.6960094  21.8155914  37.9882006 127.8591715  22.5804999
  37.7769891 128.2864532  21.1435939  32.4128191 110.0435244  22.4177799
  32.4769518 110.9050075  22.0055196  32.3495311 109.4309245  21.6850157
  31.8880464 112.1158376  26.0650833  32.5152502 111.7335454  26.6788357
  31.0308382 111.8972578  26.4306526  42.2874572 122.5221351  27.6704568
  42.8314476 123.1351310  27.1759523  41.7061417 123.0800930  28.1871582
  40.5732085 125.6442069  18.8019596  40.4483225 124.8431809  18.2930542
  41.2311176 126.1388263  18.3133566  32.1940253 111.9990802  17.9796736
  31.4726839 112.6126770  17.8404210  32.9833509 112.5348567  17.9013382
  42.6366994 123.4451090  20.4299146  41.6897329 123.3256441  20.3577473
  42.9849767 122.5573588  20.5125408  34.9966567 109.3345228  24.2537388
  35.5200969 109.5807525  25.0163698  34.7778900 110.1665263  23.8340526
  39.6413427 123.2403806  16.6303499  39.4938389 122.3120513  16.8111069
  40.4666920 123.2623896  16.1460574  33.5075671 111.8921873  12.4883991
  33.8471744 112.4207794  11.7662599  33.9547792 112.2302279  13.2642557
  43.2447549 124.0632364  17.7168371  44.1694096 123.8575226  17.5792822
  43.0762852 123.8148766  18.6257713  36.2019112 110.2758924  21.9387059
  35.8615932 109.4766737  22.3407739  35.4958118 110.5760634  21.3663892
  36.8535584 107.3608236  20.3914382  37.6761653 106.8868714  20.2693272
  37.0973647 108.1398720  20.8913068  35.4943818 110.3896494  10.6877283
  36.2152181 110.7677747  10.1841000  34.8709122 111.1085371  10.7912261
  39.6374941 111.0941643  11.6235616  39.8538556 111.9766281  11.3224444
  39.1569008 110.7027857  10.8941258  34.3774163 114.0527357  18.2006360
  34.2318743 114.3667660  19.0930642  33.8999366 114.6712257  17.6477259
  36.2370545 111.0429905  18.2487250  36.2232114 110.1470998  17.9119548
  36.9542974 111.0500568  18.8825536  38.0896676 111.4767245  20.2940377
  37.8314454 112.3984315  20.2924708  37.5581716 111.0797679  20.9840842
  43.0342865 124.5818032  13.0730463  43.2079742 124.0164454  12.3204315
  43.5271756 125.3818927  12.8909953  28.8519825 116.5932701  21.1394022
  28.3073293 117.3692509  21.2714296  29.7299175 116.9403505  20.9813143
  35.6407441 109.9244285  13.5174820  35.7623353 108.9960931  13.7165708
  35.3509484 109.9382971  12.6053136  38.5098632 107.6099195  16.6541540
  38.5320329 107.6738528  15.6993519  38.9266691 106.7703704  16.8482046
  48.8882256 117.3454455  14.6920762  49.3313402 116.5961780  14.2939886
  48.0108766 117.3364591  14.3094494  44.0218037 123.8984796  10.1727361
  44.7168942 124.5191489  10.3914676  44.3641188 123.0480148  10.4479739
  29.6385847 115.7202597  24.0324178  28.8967583 115.8685233  24.6188809
  29.3178591 115.9810863  23.1690928  45.9209460 121.3484502  11.7014692
  46.4460785 121.6871775  10.9764012  45.8331813 120.4131517  11.5177826
  37.5829509 125.2618576  23.8304568  37.8916636 125.0167722  24.7027268
  38.3804991 125.4665214  23.3423439  37.6050121 127.4156485  16.0609945
  37.1655112 126.9232864  16.7542802  38.3558238 126.8729453  15.8202020
  35.0523993 122.9594494  18.1332247  34.4304003 122.2965199  17.8334475
  35.7228860 122.9855626  17.4505894  35.1248521 111.4376282  27.7264753
  35.1736676 112.3138405  27.3442522  35.6671035 110.8953675  27.1536396
  45.6103367 121.9817406  27.0065890  44.8198910 121.9641544  26.4670389
  45.3736721 122.5205699  27.7614926  45.7301242 118.8309872  24.3198618
  45.7799247 118.6659879  25.2614141  45.6215165 117.9637131  23.9296499
  43.0205004 114.8140800  25.6357925  43.9214867 114.6747265  25.3441923
  43.0952979 114.9795255  26.5756102  37.3547809 112.1907655  24.4811111
  36.4851119 112.4841221  24.2093700  37.5907290 112.7748100  25.2018375
  47.2319438 121.2506813  24.5640640  46.9404247 121.6136794  25.4004101
  46.6191570 120.5373822  24.3853972  48.4315121 118.8159693  17.0843210
  49.2662012 119.2549497  17.2480770  48.5674250 118.3398346  16.2651456
  45.4806627 116.3739428  23.0320698  45.9560748 116.5667074  22.2239549
  44.5572192 116.4298614  22.7864081  40.0586843 108.4087272  21.9976532
  40.5768787 109.1448299  21.6723020  39.7041976 108.7151265  22.8323291
  40.3099437 104.8287554  17.5177428  40.5901191 104.1610743  18.1437855
  41.0950044 105.0216650  17.0052092  44.1808296 113.2505188  21.2649003
  45.1325719 113.3503286  21.2861227  44.0111746 112.4583457  21.7747088
  42.2022675 110.3360771  21.4508404  41.6072607 110.6165784  20.7554893
  41.9172372 110.8254672  22.2225145  46.6596373 116.4711308  20.3791303
  46.6272694 115.5327309  20.5650987  47.2696997 116.5495345  19.6457128
  46.8090862 113.2622351  20.4249586  46.2929911 112.4780808  20.2379515
  47.6930810 112.9341068  20.5896106  44.4701589 107.0063367  16.3845399
  44.2726410 106.6978455  17.2688731  45.0801294 107.7325006  16.5143329
  52.4772923 117.5327315  19.5197340  53.2076312 117.2712603  20.0805043
  51.8679869 116.7956037  19.5599408  50.5588220 115.6735177  20.1171791
  49.8321384 115.5391142  19.5088283  50.1435507 115.9812006  20.9228509
  38.3818397 119.3925107  27.8819164  39.3021406 119.5703706  28.0759211
  38.3467980 118.4481152  27.7298863  27.6000562 114.5863701  16.8072439
  27.2803346 113.7329009  16.5146813  27.0533990 114.8012279  17.5630406
  31.3780469 117.3026142  20.5241945  31.5966479 118.2343249  20.5429979
  31.7906243 116.9434116  21.3096749  38.2984687 107.8094227  12.5117634
  37.4885416 107.4641312  12.8872880  38.9869104 107.5001771  13.1005245
  40.2275235 106.8872274  14.1341930  40.7806274 107.3067727  14.7931953
  40.4645322 105.9608022  14.1764886  36.2508335 112.8759347  29.9144694
  36.1505062 113.8253704  29.8456785  36.0329877 112.5477586  29.0420764
  43.6054043 108.9972799  13.6420595  43.0252712 109.6557603  13.2598647
  43.3389975 108.1750143  13.2308012  42.0557609 108.3977857  15.8441915
  42.5557387 108.5094391  15.0356234  42.6993217 108.0938909  16.4842723
  36.1139605 116.3056486  28.7309756  35.6306686 117.1056846  28.9373645
  36.2000544 116.3164431  27.7777200  32.0412942 120.1961021  20.7678190
  32.9956196 120.1644963  20.7008121  31.8425466 119.7351645  21.5828416
  32.6312324 118.7662137  23.3348987  33.4505213 119.2606216  23.3583825
  32.9049132 117.8494105  23.3066555  42.3878921 111.1572889  12.6976943
  41.5004776 111.4422540  12.4797138  42.8032910 110.9966653  11.8504220
  45.7393457 111.1819410  16.4131282  46.5153847 111.6715863  16.6855899
  45.0141591 111.6077464  16.8703152  48.1766015 111.8947029  17.4705223
  48.7710506 111.6542765  16.7598531  48.2492599 111.1754160  18.0978759
  42.3619944 116.6727425  12.9127233  42.3055146 117.1295977  12.0734865
  42.9148287 115.9118110  12.7350076  46.1724750 112.4617157  13.7377352
  45.9161684 112.0613793  14.5685560  45.5477618 113.1760951  13.6127492
  50.4837088 115.2013230  16.2448644  49.9236646 115.2706420  17.0180206
  49.8780591 115.0254215  15.5248140  43.4408831 121.3600093   8.8423423
  44.2754435 120.9281292   8.6600898  43.2793174 121.1882107   9.7700317
  43.0954724 117.8632206  10.2079762  43.0403527 117.6976478   9.2668206
  42.4700779 118.5708239  10.3641952  27.8847239 113.1000271  24.0341184
  28.5306102 112.5899225  24.5228410  27.6764390 113.8368952  24.6084610
  40.4100631 120.1681118  29.5333325  41.2791790 120.3421771  29.1719960
  39.9307382 120.9875535  29.4109054  36.4050849 107.3640315   9.7865081
  36.3929519 108.3082155   9.9433351  37.2974271 107.1810461   9.4924542
  34.5786811 127.2878219  21.2122759  35.4814058 127.3201830  21.5289254
  34.3524181 126.3578670  21.2269094  36.3340413 126.0409206  17.8732837
  35.3836044 126.0411067  17.7597209  36.6372899 125.2941940  17.3568872
  40.2202969 103.9583092  14.0411017  39.4535364 103.4041579  14.1867700
  40.6313674 104.0304961  14.9025169  32.2244730 110.2467888  28.1316199
  33.0876191 109.8904693  28.3419523  31.6510140 109.9081783  28.8191603
  52.0693107 131.8769744  18.9378600  52.7071517 131.7576492  18.2341940
  51.9513949 132.8250588  18.9966552  48.8782813 131.8297172  18.8740124
  48.5401324 131.7138237  17.9860659  49.7472581 131.4288337  18.8541130
  44.7369629 133.6832649  14.8637015  44.1734494 133.5922586  14.0953303
  44.6222024 132.8632553  15.3439508  49.3602596 132.9832024  24.8326330
  49.3491237 132.5884822  23.9606833  49.5223235 132.2498097  25.4260101
  42.2834060 135.1783840  17.7021236  43.0755352 134.8374665  17.2867535
  42.5230711 135.2878815  18.6223389  47.0066064 133.1445984  20.3706873
  47.6029636 132.9202007  19.6563836  47.0641035 132.4030730  20.9732321
  51.6234375 129.6021198  16.0131808  52.4097464 129.1840621  15.6622225
  51.8873079 130.5067290  16.1813456  57.0242802 129.5396431  16.9164786
  57.7567974 128.9695648  17.1502616  56.2682158 129.1518032  17.3571292
  48.6418922 131.9623673  14.1128129  48.2777129 131.4354294  14.8241050
  49.4986038 131.5722142  13.9394614  54.5468223 123.2518005  21.3759395
  54.2151547 124.1213416  21.1520610  53.9513836 122.9354289  22.0553425
  48.2824409 126.9913572   9.1089477  48.4498811 127.8593809   9.4759948
  48.0921578 127.1540854   8.1850766  51.0399742 135.4530551  20.7755307
  50.7400465 136.3555590  20.6671115  50.6950802 135.1862735  21.6276460
  44.4912224 131.9044348  16.8092012  43.5662720 131.7720562  17.0169704
  44.7396637 132.6838567  17.3061954  54.4396886 127.9713092  18.4552745
  53.5313763 127.9028500  18.1611506  54.3884482 128.4485036  19.2834570
  48.2613630 129.4471230  10.0936144  48.1413255 129.8928281  10.9321624
  47.5666218 129.7956548   9.5349682  41.8521035 131.5477622  17.6435801
  41.9813416 131.8012101  18.5575213  41.1718486 132.1405330  17.3240456
  48.5137752 129.3902737  26.3987642  47.7371086 129.9496657  26.3890507
  49.1528315 129.8759520  26.9202512  56.3058532 126.1729530  20.2330619
  55.6632912 126.4662063  19.5870413  55.8013461 126.0582450  21.0383815
  46.7684124 132.1988190  25.9605609  47.5098808 132.7373234  25.6840433
  46.0621109 132.8254479  26.1177161  52.2439464 134.3417331  24.5577771
  52.6522820 133.8999741  23.8132403  51.5216725 133.7669958  24.8111963
  48.5970534 129.2789938  21.9311328  49.4431729 129.7029351  22.0745977
  48.5369171 128.6223562  22.6249891  52.5668278 134.9018522  18.3130059
  51.9377141 135.0664236  17.6106127  52.1793940 135.3160131  19.0841023
  51.7469979 126.9394306  23.5892501  51.5030911 127.6936367  23.0526777
  52.0229909 127.3179654  24.4239748  53.7008442 133.4832918  22.2669767
  53.9125337 134.1264678  21.5904148  53.6538190 132.6495235  21.7991697
  51.3034671 126.0950739  19.1706339  50.4419150 126.3931993  19.4623076
  51.3297105 126.3121138  18.2387372  48.1196240 134.6392930  15.5780145
  48.5834586 134.9180633  14.7884767  47.8553038 133.7376374  15.3953235
  45.0120321 134.1864411  18.5159908  45.5821678 134.6151680  17.8777392
  45.6028433 133.9046996  19.2144093  47.0565126 130.7616082  12.3869710
  47.7589169 131.2137126  12.8543636  46.7245755 130.1199901  13.0149603
  45.5045488 129.3527839  26.7620919  44.8744148 130.0344120  26.9956316
  45.3981576 129.2410920  25.8174057  40.7990460 129.0199635  17.6886843
  40.0089514 129.2757163  17.2126954  41.2901707 129.8347973  17.7938884
  54.8154270 136.3604874  20.4392124  55.6371713 135.9585061  20.1574806
  54.8116673 136.2573108  21.3908240  42.7505205 129.3844214  14.6470320
  41.9536369 129.4962908  15.1653816  42.5230798 129.7230866  13.7811210
  48.5810873 135.9088917  22.5952835  48.6455306 136.3709324  23.4311006
  47.8721797 135.2786282  22.7235144  39.0828163 129.2730125  20.1201834
  39.3336202 130.1577135  20.3859410  39.6187711 129.0934727  19.3476926
  44.7826230 123.6548605  29.1246170  44.3893176 123.1014803  29.7993814
  45.5992371 123.9659183  29.5152688  47.6994191 125.0706484  26.7166427
  48.4403905 125.6713637  26.6370889  47.9312114 124.3284121  26.1584469
  42.8435529 130.2562851  24.9944656  42.7289045 129.3548108  25.2951755
  41.9880047 130.5026548  24.6429473  48.4781659 135.9927521  25.4637067
  49.0109996 135.2315809  25.2336375  47.9495740 135.7001172  26.2061221
  51.6451354 121.0987587  20.9930708  51.3015624 121.9889228  20.9169819
  52.0130317 120.9089244  20.1300293  49.1948748 125.9345898  14.5588382
  48.3390344 125.5452749  14.3794021  49.6075700 126.0137859  13.6988167
  50.7247895 123.4692242  18.9579942  50.2212690 123.4322377  18.1447747
  51.0178502 124.3784984  19.0176598  46.9690781 123.5530971  17.9646123
  47.8343777 123.3573780  17.6052013  47.0368290 123.3241323  18.8915480
  51.3987940 128.9623290  11.3262925  51.0938076 129.2769439  12.1773068
  52.3518382 129.0404710  11.3690258  54.8227218 133.3162534  18.0922925
  54.1650893 134.0061795  18.1803054  55.6267617 133.7058965  18.4356911
  44.5753100 125.7833179  15.3362490  45.1496852 125.5608361  14.6035683
  45.1624082 125.8521874  16.0891091  53.6332677 131.6706906  16.1426867
  54.1464559 132.3036898  16.6448576  54.2833901 131.0708102  15.7770227
  46.8775767 122.6574428  14.0637560  46.2240180 122.3423445  13.4394174
  46.8356242 122.0350169  14.7897383  50.1113508 129.1456362  18.3885207
  49.1936069 129.3671309  18.2306895  50.5273651 129.2202672  17.5296915
  50.8948556 130.5447777  13.5187887  51.6420374 131.0569175  13.2095010
  51.1640145 130.2231830  14.3792281  53.3427393 127.5804894  15.5006677
  52.6050149 127.0682280  15.8316919  53.5954166 127.1405275  14.6889954
  53.4439020 120.3581146  16.0948446  53.7497897 119.4978509  15.8074361
  54.1691625 120.9498766  15.8947440  47.7160100 130.6534939  16.6024637
  47.7708710 129.7008775  16.5267114  46.9051302 130.8094378  17.0865936
  45.6552460 129.2711999  14.3615016  44.8420325 129.5706169  14.7680208
  46.1511454 128.8767687  15.0789498  51.2526671 129.7353823  23.1929910
  51.6076059 129.9625296  24.0524376  51.8998803 130.0672200  22.5707165
  45.1466534 126.8430354  19.9776251  45.7865914 126.7019113  19.2799214
  44.3144065 126.5564867  19.6014853  57.0093788 134.9248786  18.9090510
  57.4430295 134.8324075  19.7573564  57.7225369 134.9006286  18.2710526
  45.9226838 136.1432784  16.0911243  46.7167437 135.6483105  15.8893818
  45.2118531 135.6150648  15.7278949  42.1495151 126.8130679  14.7549238
  42.4101968 127.7276012  14.6458398  42.9712323 126.3455122  14.9045851
  43.6220076 128.2268436  21.9248062  44.2943130 128.0185798  21.2760711
  42.7949863 128.0290522  21.4853295  57.8709337 134.9672487  21.4423396
  58.0645228 135.8718297  21.6882671  57.7709956 134.5079906  22.2761981
  49.5245648 124.8530377  23.9413723  48.8773563 125.5520327  23.8478200
  50.2946664 125.2866521  24.3089971  52.9324446 135.1179229  27.0164276
  52.7809953 134.8889781  26.0994360  52.9229126 136.0749831  27.0295621
  49.7009783 132.6911142  22.0010543  50.6301843 132.8422302  21.8279510
  49.2800813 132.7795163  21.1459189  50.0503329 136.0943409  17.1597918
  49.7153162 136.0544179  18.0555568  49.5507275 135.4288125  16.6868328
  44.0247573 131.5011039  22.6850499  43.8867371 130.7691278  23.2862038
  44.9352497 131.4119939  22.4034687  46.6529874 131.2130999  22.1734179
  47.3629493 130.5724191  22.1320798  46.6099182 131.4643893  23.0960360
  54.6416653 138.1498352  25.0940758  54.5829199 137.4657572  24.4271341
  55.0436171 138.8917342  24.6421384  45.3658808 128.1996216  23.9929819
  44.8296165 127.7486955  24.6451415  44.7775517 128.3342125  23.2500283
  54.6434060 136.1137936  23.3254738  53.7560839 135.7763858  23.4481137
  55.2132611 135.3820967  23.5623503  41.0997929 127.3352224  21.0782813
  41.0156118 126.7277894  20.3433223  40.2780636 127.8261242  21.0792309
  51.2721643 125.8205788  16.4453008  51.7690343 125.0675750  16.1254078
  50.5008625 125.8570104  15.8796217  59.1251401 131.5246153  18.0871300
  59.1141277 132.4070869  17.7165233  58.2568780 131.1717704  17.8925837
  52.3551424 134.5777475  14.0191431  51.4207703 134.6978937  13.8496136
  52.5328092 133.6749942  13.7551441  47.8556612 127.9623171  16.1724693
  47.4854399 127.4094211  16.8605598  48.3515704 127.3581304  15.6199693
  55.7423975 130.4194794  14.5541466  56.2084427 131.2522786  14.4801768
  56.1931476 129.9539776  15.2586724  53.7140638 122.7875381  18.5932367
  52.8003718 123.0179608  18.7614574  54.1433739 122.8713825  19.4446399
  53.4847096 130.9765273  21.0932261  52.8318547 131.2241181  20.4384714
  53.8627476 130.1629411  20.7594738  49.5334669 131.7185084  27.5798298
  48.8575306 131.6179213  28.2500673  50.3562303 131.5624298  28.0434295
  43.2521946 125.3727161  22.4177799  43.3163272 126.2341992  22.0055196
  43.1889066 124.7601163  21.6850157  42.7274218 127.4450294  26.0650833
  43.3546257 127.0627371  26.6788357  41.8702137 127.2264496  26.4306526
  53.1268327 137.8513269  27.6704568  53.6708231 138.4643227  27.1759523
  52.5455172 138.4092848  28.1871582  43.0334008 127.3282720  17.9796736
  42.3120594 127.9418687  17.8404210  43.8227264 127.8640484  17.9013382
  53.4760748 138.7743007  20.4299146  52.5291084 138.6548358  20.3577473
  53.8243521 137.8865505  20.5125408  45.8360321 124.6637146  24.2537388
  46.3594723 124.9099443  25.0163698  45.6172655 125.4957181  23.8340526
  44.3469426 127.2213791  12.4883991  44.6865498 127.7499712  11.7662599
  44.7941546 127.5594197  13.2642557  47.0412866 125.6050841  21.9387059
  46.7009687 124.8058654  22.3407739  46.3351873 125.9052552  21.3663892
  47.6929338 122.6900154  20.3914382  48.5155408 122.2160632  20.2693272
  47.9367402 123.4690637  20.8913068  46.3337573 125.7188412  10.6877283
  47.0545935 126.0969665  10.1841000  45.7102877 126.4377289  10.7912261
  50.4768696 126.4233561  11.6235616  50.6932310 127.3058199  11.3224444
  49.9962763 126.0319774  10.8941258  45.2167917 129.3819274  18.2006360
  45.0712498 129.6959577  19.0930642  44.7393121 130.0004175  17.6477259
  47.0764300 126.3721822  18.2487250  47.0625869 125.4762916  17.9119548
  47.7936728 126.3792486  18.8825536  48.9290431 126.8059162  20.2940377
  48.6708208 127.7276233  20.2924708  48.3975471 126.4089597  20.9840842
  39.6913579 131.9224619  21.1394022  39.1467047 132.6984427  21.2714296
  40.5692929 132.2695423  20.9813143  46.4801196 125.2536203  13.5174820
  46.6017107 124.3252849  13.7165708  46.1903238 125.2674889  12.6053136
  49.3492386 122.9391113  16.6541540  49.3714083 123.0030446  15.6993519
  49.7660445 122.0995622  16.8482046  40.4779601 131.0494515  24.0324178
  39.7361337 131.1977150  24.6188809  40.1572345 131.3102781  23.1690928
  45.9642275 126.7668200  27.7264753  46.0130431 127.6430323  27.3442522
  46.5064790 126.2245593  27.1536396  56.4497121 137.3109323  27.0065890
  55.6592665 137.2933462  26.4670389  56.2130476 137.8497617  27.7614926
  56.5694996 134.1601790  24.3198618  56.6193001 133.9951797  25.2614141
  56.4608919 133.2929049  23.9296499  53.8598758 130.1432718  25.6357925
  54.7608621 130.0039182  25.3441923  53.9346733 130.3087172  26.5756102
  48.1941564 127.5199572  24.4811111  47.3244873 127.8133138  24.2093700
  48.4301044 128.1040017  25.2018375  58.0713193 136.5798731  24.5640640
  57.7798001 136.9428712  25.4004101  57.4585324 135.8665739  24.3853972
  59.2708875 134.1451611  17.0843210  60.1055767 134.5841415  17.2480770
  59.4068004 133.6690264  16.2651456  56.3200381 131.7031346  23.0320698
  56.7954503 131.8958992  22.2239549  55.3965947 131.7590532  22.7864081
  50.8980598 123.7379189  21.9976532  51.4162542 124.4740216  21.6723020
  50.5435730 124.0443183  22.8323291  51.1493192 120.1579472  17.5177428
  51.4294946 119.4902661  18.1437855  51.9343799 120.3508567  17.0052092
  55.0202050 128.5797106  21.2649003  55.9719473 128.6795203  21.2861227
  54.8505501 127.7875374  21.7747088  53.0416430 125.6652689  21.4508404
  52.4466362 125.9457702  20.7554893  52.7566126 126.1546590  22.2225145
  57.4990128 131.8003225  20.3791303  57.4666448 130.8619226  20.5650987
  58.1090752 131.8787262  19.6457128  57.6484616 128.5914269  20.4249586
  57.1323665 127.8072726  20.2379515  58.5324565 128.2632986  20.5896106
  55.3095343 122.3355284  16.3845399  55.1120164 122.0270373  17.2688731
  55.9195049 123.0616923  16.5143329  63.3166678 132.8619232  19.5197340
  64.0470066 132.6004520  20.0805043  62.7073623 132.1247954  19.5599408
  61.3981975 131.0027095  20.1171791  60.6715138 130.8683060  19.5088283
  60.9829262 131.3103924  20.9228509  49.2212151 134.7217025  27.8819164
  50.1415161 134.8995624  28.0759211  49.1861734 133.7773070  27.7298863
  38.4394316 129.9155618  16.8072439  38.1197101 129.0620926  16.5146813
  37.8927745 130.1304196  17.5630406  42.2174224 132.6318059  20.5241945
  42.4360234 133.5635167  20.5429979  42.6299998 132.2726034  21.3096749
  49.1378442 123.1386145  12.5117634  48.3279170 122.7933230  12.8872880
  49.8262859 122.8293688  13.1005245  51.0668990 122.2164191  14.1341930
  51.6200029 122.6359645  14.7931953  51.3039076 121.2899939  14.1764886
  47.0902089 128.2051265  29.9144694  46.9898816 129.1545622  29.8456785
  46.8723631 127.8769504  29.0420764  54.4447797 124.3264717  13.6420595
  53.8646466 124.9849521  13.2598647  54.1783730 123.5042061  13.2308012
  52.8951363 123.7269774  15.8441915  53.3951142 123.8386309  15.0356234
  53.5386971 123.4230827  16.4842723  46.9533359 131.6348404  28.7309756
  46.4700441 132.4348764  28.9373645  47.0394298 131.6456349  27.7777200
  43.4706079 134.0954055  23.3348987  44.2898968 134.5898133  23.3583825
  43.7442887 133.1786023  23.3066555  53.2272675 126.4864807  12.6976943
  52.3398530 126.7714458  12.4797138  53.6426664 126.3258570  11.8504220
  56.5787211 126.5111328  16.4131282  57.3547601 127.0007780  16.6855899
  55.8535345 126.9369382  16.8703152  59.0159770 127.2238947  17.4705223
  59.6104261 126.9834683  16.7598531  59.0886354 126.5046078  18.0978759
  57.0118505 127.7909075  13.7377352  56.7555439 127.3905710  14.5685560
  56.3871373 128.5052869  13.6127492  61.3230843 130.5305148  16.2448644
  60.7630401 130.5998337  17.0180206  60.7174346 130.3546133  15.5248140
  38.7240993 128.4292188  24.0341184  39.3699857 127.9191142  24.5228410
  38.5158144 129.1660870  24.6084610  51.2494385 135.4973036  29.5333325
  52.1185545 135.6713688  29.1719960  50.7701137 136.3167453  29.4109054
  47.2444604 122.6932233   9.7865081  47.2323273 123.6374073   9.9433351
  48.1368025 122.5102378   9.4924542  51.0596723 119.2875010  14.0411017
  50.2929119 118.7333496  14.1867700  51.4707428 119.3596878  14.9025169
  43.0638484 125.5759806  28.1316199  43.9269946 125.2196610  28.3419523
  42.4903895 125.2373700  28.8191603  55.6219985 138.9840522  29.1246170
  55.2286930 138.4306721  29.7993814  56.4386125 139.2951101  29.5152688
  58.5387946 140.3998401  26.7166427  59.2797659 141.0005554  26.6370889
  58.7705869 139.6576039  26.1584469  62.4845109 136.4279504  20.9930708
  62.1409378 137.3181146  20.9169819  62.8524071 136.2381162  20.1300293
  60.3639403 140.1822295  23.9413723  59.7167318 140.8812244  23.8478200
  61.1340418 140.6158439  24.3089971  58.5323093 138.0192071  20.3914382
  59.3549162 137.5452550  20.2693272  58.7761156 138.7982555  20.8913068
  61.7374352 139.0671107  21.9976532  62.2556296 139.8032134  21.6723020
  61.3829485 139.3735100  22.8323291  16.8421334  64.0018394  11.5571636
  16.8309974  63.6071192  10.6852140  17.0041973  63.2684466  12.1505408
  13.5628595  66.7855505  10.5050820  13.2718461  67.6901136  10.3897487
  14.1985579  66.8272033  11.2194890  15.9956489  60.4089107  13.1232949
  15.2189823  60.9683027  13.1135813  16.6347052  60.8945890  13.6447819
  14.2502862  63.2174560  12.6850916  14.9917546  63.7559604  12.4085739
  13.5439847  63.8440849  12.8422467  19.7258201  65.3603701  11.2823077
  20.1341557  64.9186111  10.5377710  19.0035463  64.7856328  11.5357270
  22.2973007  67.3791243   7.1637431  23.1190451  66.9771431   6.8820112
  22.2935410  67.2759478   8.1153547  17.4046105  69.2166961  13.3177464
  16.9609959  68.4303339  12.9998368  18.0663319  69.4046111  12.6521354
  19.5027343  69.4969761  11.3458865  19.4845818  70.3178642  10.8539134
  20.4247263  69.3723836  11.5709006  15.9600397  67.0113890  12.1882373
  16.4928734  66.2502178  11.9581681  15.4314478  66.7187542  12.9306528
  25.3528075  65.9858856   8.1668702  25.5463965  66.8904667   8.4127977
  25.2528693  65.5266275   9.0007287  20.4143184  66.1365599  13.7409583
  20.2628690  65.9076151  12.8239667  20.4047863  67.0936200  13.7540928
  22.1235391  69.1684721  11.8186065  22.0647937  68.4843942  11.1516648
  22.5254909  69.9103711  11.3666691  22.1252798  67.1324305  10.0500045
  21.2379577  66.7950227  10.1726443  22.6951349  66.4007337  10.2868810
  18.1152635  71.6912592   9.1719446  18.8280607  72.3260057   9.0995348
  17.6242663  71.7876458   8.3559448  13.1664548  69.4407035   9.9925017
  13.8674008  70.0743518  10.1454411  12.6959663  69.7821767   9.2320657
  17.0153407  62.7371454  14.3043605  16.3394044  62.6365583  14.9745980
  17.8381041  62.5810667  14.7679602  15.7576190  74.0438381   8.5401221
  16.3094498  74.2070003   9.3050306  16.0982384  74.6342819   7.8681246
  20.6087064  68.8699639  14.3949875  21.1526968  69.4829597  13.9004830
  20.0273909  69.4279217  14.9116888  20.9579486  69.7929377   7.1544453
  20.0109821  69.6734728   7.0822780  21.3062259  68.9051875   7.2370714
  15.9042001  71.6096863  10.5549875  16.2129128  71.3646010  11.4272575
  16.7017483  71.8143501  10.0668745  23.9315859  68.3295693  13.7311196
  23.1411403  68.3119832  13.1915696  23.6949213  68.8683986  14.4860233
  24.0513734  65.1788159  11.0443925  24.1011739  65.0138167  11.9859448
  23.9427657  64.3115418  10.6541806  21.3417496  61.1619087  12.3603232
  22.2427359  61.0225552  12.0687229  21.4165471  61.3273542  13.3001409
  25.5531931  67.5985101  11.2885946  25.2616739  67.9615081  12.1249407
  24.9404062  66.8852109  11.1099279  23.8019119  62.7217715   9.7566004
  24.2773241  62.9145362   8.9484856  22.8784684  62.7776901   9.5109388
  30.7985416  63.8805602   6.2442647  31.5288804  63.6190890   6.8050350
  30.1892361  63.1434324   6.2844714  16.7030889  65.7403394  14.6064471
  17.6233899  65.9181993  14.8004517  16.6680472  64.7959440  14.4544170
  14.5720827  59.2237635  16.6390001  14.4717554  60.1731992  16.5702092
  14.3542369  58.8955873  15.7666071  14.4352097  62.6534773  15.4555062
  13.9519179  63.4535134  15.6618952  14.5213036  62.6642718  14.5022506
  18.7313123  66.5159406  16.2578632  19.6004283  66.6900058  15.8965266
  18.2519875  67.3353822  16.1354361  12.8999303  73.6356507   7.9368065
  13.8026550  73.6680117   8.2534560  12.6736673  72.7056957   7.9514401
  30.3905599  78.2248031   5.6623906  31.0284009  78.1054779   4.9587246
  30.2726442  79.1728875   5.7211858  27.1995305  78.1775460   5.5985431
  26.8613817  78.0616524   4.7105966  28.0685073  77.7766625   5.5786437
  23.0582121  80.0310936   1.5882322  22.4946986  79.9400873   0.8198610
  22.9434516  79.2110840   2.0684814  27.6815088  79.3310311  11.5571636
  27.6703729  78.9363110  10.6852140  27.8435728  78.5976384  12.1505408
  20.6046553  81.5262128   4.4266542  21.3967845  81.1852952   4.0112842
  20.8443203  81.6357103   5.3468696  24.4022349  82.1147423  10.5050820
  24.1112215  83.0193054  10.3897487  25.0379334  82.1563951  11.2194890
  25.3278556  79.4924272   7.0952180  25.9242128  79.2680294   6.3809143
  25.3853528  78.7509017   7.6977628  29.9446867  75.9499485   2.7377114
  30.7309957  75.5318908   2.3867531  30.2085572  76.8545577   2.9058763
  30.1156945  81.3872336  -2.5634229  29.4802778  81.4606962  -1.8513324
  29.7854351  81.9765934  -3.2415150  35.3455294  75.8874719   3.6410093
  36.0780466  75.3173935   3.8747922  34.5894650  75.4996319   4.0816598
  26.9631414  78.3101960   0.8373435  26.5989621  77.7832581   1.5486357
  27.8198530  77.9200429   0.6639921  32.8680715  69.5996293   8.1004701
  32.5364040  70.4691704   7.8765916  32.2726328  69.2832577   8.7798732
  29.3612234  81.8008839   7.5000614  29.0612957  82.7033877   7.3916421
  29.0163294  81.5341022   8.3521767  22.8124716  78.2522635   3.5337319
  21.8875212  78.1198850   3.7415010  23.0609129  79.0316855   4.0307261
  32.7609378  74.3191379   5.1798051  31.8526255  74.2506787   4.8856812
  32.7096974  74.7963324   6.0079877  20.1733527  77.8955909   4.3681108
  20.3025908  78.1490388   5.2820519  19.4930978  78.4883617   4.0485763
  26.8350244  75.7381024  13.1232949  26.0583578  76.2974945  13.1135813
  27.4740807  76.2237807  13.6447819  34.6271025  72.5207817   6.9575925
  33.9845405  72.8140350   6.3115720  34.1225953  72.4060738   7.7629122
  32.2811188  76.2670990  -2.3538215  33.1929044  76.4998377  -2.5290518
  31.7720835  76.8508035  -2.9163137  25.0896616  78.5466478  12.6850916
  25.8311301  79.0851522  12.4085739  24.3833602  79.1732766  12.8422467
  30.5651956  80.6895618  11.2823077  30.9735312  80.2478029  10.5377710
  29.8429217  80.1148246  11.5357270  26.9183026  75.6268225   8.6556634
  27.7644221  76.0507639   8.7991283  26.8581664  74.9701849   9.3495197
  30.8880770  81.2496809   5.0375366  30.2589633  81.4142523   4.3351434
  30.5006433  81.6638418   5.8086330  34.7670002  82.1851247   2.3919730
  34.0821041  82.5650148   1.8416763  34.8513852  82.7946573   3.1251678
  30.0682471  73.2872593  10.3137808  29.8243403  74.0414654   9.7772083
  30.3442402  73.6657941  11.1485055  32.0220934  79.8311206   8.9915073
  32.2337829  80.4742966   8.3149454  31.9750682  78.9973522   8.5237003
  29.6247163  72.4429026   5.8951645  28.7631642  72.7410280   6.1868383
  29.6509598  72.6599425   4.9632678  26.4408732  80.9871217   2.3025451
  26.9047078  81.2658920   1.5130074  26.1765530  80.0854661   2.1198542
  23.3332813  80.5342698   5.2405214  23.9034170  80.9629967   4.6022699
  23.9240925  80.2525283   5.9389400  23.8257980  75.7006126  13.4866226
  23.1956641  76.3822407  13.7201623  23.7194068  75.5889208  12.5419364
  19.1202952  75.3677922   4.4132150  18.3302006  75.6235450   3.9372260
  19.6114200  76.1826260   4.5184190  33.1366762  82.7083161   7.1637431
  33.9584206  82.3063348   6.8820112  33.1329165  82.6051395   8.1153547
  26.9023365  82.2567204   9.3198141  26.9667798  82.7187612  10.1556313
  26.1934289  81.6264569   9.4480451  17.4040655  75.6208412   6.8447141
  17.6548694  76.5055422   7.1104717  17.9400204  75.4413014   6.0722233
  41.2272755  79.0521910   3.5122402  40.4736463  78.4829308   3.3566407
  41.3620296  79.0184574   4.4593037  23.1038723  70.0026892  15.8491477
  22.7105668  69.4493090  16.5239121  23.9204863  70.3137470  16.2397994
  26.0206684  71.4184771  13.4411733  26.7616397  72.0191924  13.3616196
  26.2524606  70.6762409  12.8829776  21.1648022  76.6041138  11.7189963
  21.0501537  75.7026395  12.0197062  20.3092539  76.8504835  11.3674780
  28.2439859  84.5458878  13.3177464  27.8003714  83.7595257  12.9998368
  28.9057073  84.7338029  12.6521354  23.0026981  86.0754680   7.8438142
  23.5534406  85.9471743   7.0715136  22.1638457  86.3749569   7.4933035
  30.3421097  84.8261678  11.3458865  30.3239573  85.6470559  10.8539134
  31.2641018  84.7015754  11.5709006  26.7994152  82.3405808  12.1882373
  27.3322488  81.5794096  11.9581681  26.2708233  82.0479460  12.9306528
  29.9663847  67.4465874   7.7176015  29.6228116  68.3367515   7.6415126
  30.3342809  67.2567531   6.8545600  29.0460387  69.8170529   5.6825248
  28.5425183  69.7800664   4.8693054  29.3390994  70.7263272   5.7421905
  25.2903273  69.9009259   4.6891430  26.1556270  69.7052067   4.3297319
  25.3580782  69.6719610   5.6160787  34.9048403  80.1906840  -1.8398376
  34.1277846  79.8517999  -2.2843214  35.5839884  80.1959463  -2.5143411
  28.1646864  81.4691800  -0.2998815  27.6368226  80.7344560  -0.6125577
  27.6634367  82.2466477  -0.5458846  33.1439710  79.6640821   4.8168232
  32.4863385  80.3540082   4.9048360  33.9480110  80.0537253   5.1602218
  31.9545169  78.0185193   2.8672173  32.4677051  78.6515185   3.3693883
  32.6046393  77.4186389   2.5015533  28.4326000  75.4934649   5.1130514
  27.5148561  75.7149596   4.9552202  28.8486144  75.5680960   4.2542221
  29.2161048  76.8926065   0.2433194  29.9632867  77.4047462  -0.0659684
  29.4852637  76.5710117   1.1037588  32.7206965  82.9991195   0.9951316
  32.2669292  82.1582105   1.0516506  32.0900932  83.6352593   1.3326096
  31.6639885  73.9283181   2.2251983  30.9262642  73.4160567   2.5562226
  31.9166658  73.4883563   1.4135260  31.1639905  84.8367692   1.9301134
  31.4562879  85.3972749   1.2113500  31.6738525  85.1296253   2.6854293
  26.0372592  77.0013226   3.3269944  26.0921202  76.0487062   3.2512420
  25.2263794  77.1572665   3.8111242  23.9764952  75.6190286   1.0860323
  23.1632817  75.9184456   1.4925515  24.4723946  75.2245975   1.8034805
  26.1273530  85.6148043   3.0194587  26.0849709  85.8408889   2.0903119
  27.0436229  85.3811417   3.1680388  29.5739164  76.0832110   9.9175217
  29.9288551  76.3103583  10.7769682  30.2211295  76.4150487   9.2952472
  35.3036901  79.2050546   0.6224546  35.1654799  79.3952142  -0.3054265
  34.9473119  79.9669929   1.0792597  23.4679027  73.1908641   6.7021558
  24.1078406  73.0497400   6.0044521  22.6356557  72.9043155   6.3260160
  35.3306280  81.2727073   5.6335817  35.7642787  81.1802362   6.4818871
  36.0437861  81.2484574   4.9955833  24.2439331  82.4911072   2.8156550
  25.0379929  81.9961392   2.6139125  23.5331023  81.9628935   2.4524256
  29.0634175  84.8729167   7.1668918  29.1171197  85.4420104   7.9346634
  28.1948956  85.0431052   6.8022955  21.9432568  74.5746723   8.6493369
  22.6155622  74.3664086   8.0006018  21.1162355  74.3768809   8.2098601
  36.1921830  81.3150774   8.1668702  36.3857720  82.2196584   8.4127977
  36.0922448  80.8558193   9.0007287  27.8458140  71.2008664  10.6659030
  27.1986055  71.8998614  10.5723506  28.6159156  71.6344808  11.0335278
  31.2536938  81.4657517  13.7409583  31.1022445  81.2368068  12.8239667
  31.2441618  82.4228118  13.7540928  28.0222275  79.0389429   8.7255849
  28.9514335  79.1900589   8.5524817  27.6013305  79.1273450   7.8704496
  26.8210607  83.0640094   6.4954387  26.6821692  82.6958878   7.3680325
  26.0325203  83.5787733   6.3238345  28.3715822  82.4421696   3.8843225
  28.0365654  82.4022466   4.7800875  27.8719767  81.7766412   3.4113635
  22.3460066  77.8489326   9.4095806  22.2079864  77.1169565  10.0107345
  23.2564989  77.7598227   9.1279994  24.9742366  77.5609286   8.8979486
  25.6841985  76.9202478   8.8566104  24.9311675  77.8122181   9.8205666
  32.9629145  84.4976639  11.8186065  32.9041691  83.8135859  11.1516648
  33.3648663  85.2395629  11.3666691  23.6871300  74.5474504  10.7175125
  23.1508657  74.0965242  11.3696722  23.0988009  74.6820412   9.9745590
  32.9646552  82.4616223  10.0500045  32.0773331  82.1242145  10.1726443
  33.5345103  81.7299254  10.2868810  19.4210422  73.6830511   7.8028120
  19.3368610  73.0756181   7.0678530  18.5993128  74.1739530   7.8037616
  26.4947706  87.1217675   7.0161288  26.4217877  87.9272647   7.5280592
  26.0525099  87.3209641   6.1909309  29.5934135  72.1684075   3.1698315
  30.0902835  71.4154037   2.8499385  28.8221117  72.2048392   2.6041524
  37.4463893  77.8724440   4.8116606  37.4353769  78.7549156   4.4410539
  36.5781272  77.5195991   4.6171143  28.9546389  87.0204509   9.1719446
  29.6674361  87.6551974   9.0995348  28.4636418  87.1168375   8.3559448
  30.6763916  80.9255762   0.7436738  29.7420195  81.0457225   0.5741442
  30.8540585  80.0228229   0.4796748  26.1769104  74.3101458   2.8969999
  25.8066892  73.7572498   3.5850905  26.6728197  73.7059591   2.3444999
  34.0636467  76.7673081   1.2786772  34.5296920  77.6001073   1.2047075
  34.5143968  76.3018063   1.9832031  24.0058303  84.7698953   9.9925017
  24.7067762  85.4035436  10.1454411  23.5353418  85.1113684   9.2320657
  32.1312699  83.1116903  -1.7227076  32.4072542  82.9973497  -0.8133202
  31.2617197  82.7134388  -1.7614903  32.0353130  69.1353668   5.3177674
  31.1216210  69.3657895   5.4859881  32.4646232  69.2192112   6.1691706
  31.8059589  77.3243560   7.8177568  31.1531039  77.5719468   7.1630020
  32.1839969  76.5107699   7.4840045  28.7666763  87.3603254   1.9205738
  28.9489157  86.5424909   2.3833490  29.5899749  87.5770946   1.4830628
  29.1008928  86.2871439  -0.8179214  29.6296695  85.7763893  -1.4309051
  29.3637148  85.9713969   0.0466319  27.8547162  78.0663371  14.3043605
  27.1787799  77.9657501  14.9745980  28.6774796  77.9102585  14.7679602
  19.6026021  84.3035308   6.9256120  20.1879458  83.5578996   7.0584024
  19.4050859  84.6139265   7.8092784  26.5969945  89.3730299   8.5401221
  27.1488253  89.5361920   9.3050306  26.9376138  89.9634737   7.8681246
  21.5734438  71.7205449   9.1423105  21.6375764  72.5820280   8.7300503
  21.5101558  71.1079450   8.4095464  21.0486710  73.7928581  12.7896140
  21.6758749  73.4105659  13.4033664  20.1914629  73.5742783  13.1551832
  31.4480819  84.1991556  14.3949875  31.9920723  84.8121515  13.9004830
  30.8667664  84.7571135  14.9116888  29.7338332  87.3212274   5.5264903
  29.6089471  86.5202014   5.0175848  30.3917423  87.8158468   5.0378873
  21.3546500  73.6761007   4.7042043  20.6333086  74.2896975   4.5649516
  22.1439756  74.2118772   4.6258689  31.7973240  85.1221294   7.1544453
  30.8503576  85.0026646   7.0822780  32.1456013  84.2343792   7.2370714
  24.1572814  71.0115433  10.9782695  24.6807215  71.2577730  11.7409004
  23.9385147  71.8435468  10.5585832  28.8019674  84.9174011   3.3548805
  28.6544636  83.9890718   3.5356375  29.6273167  84.9394101   2.8705880
  32.4053795  85.7402569   4.4413678  33.3300343  85.5345431   4.3038129
  32.2369099  85.4918971   5.3503019  25.3625359  71.9529128   8.6632365
  25.0222179  71.1536942   9.0653045  24.6564365  72.2530839   8.0909199
  26.0141831  69.0378441   7.1159688  26.8367900  68.5638919   6.9938579
  26.2579894  69.8168925   7.6158375  23.5380409  75.7297562   4.9251667
  23.3924990  76.0437865   5.8175949  23.0605613  76.3482462   4.3722566
  25.3976792  72.7200110   4.9732557  25.3838361  71.8241203   4.6364855
  26.1149220  72.7270773   5.6070843  27.2502923  73.1537450   7.0185684
  26.9920701  74.0754520   7.0170014  26.7187963  72.7567884   7.7086148
  32.1949112  86.2588237  -0.2024231  32.3685989  85.6934659  -0.9550378
  32.6878003  87.0589132  -0.3844741  18.0126071  78.2702906   7.8639328
  17.4679540  79.0462714   7.9959603  18.8905421  78.6173710   7.7058450
  38.0488503  79.0224660   1.4166069  38.4919649  78.2731985   1.0185192
  37.1715013  79.0134796   1.0339801  33.1824284  85.5755001  -3.1027332
  33.8775189  86.1961694  -2.8840018  33.5247434  84.7250352  -2.8274954
  18.7992093  77.3972802  10.7569485  18.0573829  77.5455438  11.3434115
  18.4784838  77.6581068   9.8936234  35.0815707  83.0254707  -1.5740002
  35.6067031  83.3641980  -2.2990682  34.9938060  82.0901722  -1.7576867
  26.7435756  86.9388780  10.5549875  27.0522882  86.6937927  11.4272575
  27.5411238  87.1435419  10.0668745  26.7656368  89.0926690   2.7855252
  26.3261358  88.6003069   3.4788108  27.5164485  88.5499658   2.5447327
  24.2130240  84.6364699   4.8577553  23.5910249  83.9735404   4.5579781
  24.8835107  84.6625831   4.1751201  24.2854768  73.1146487  14.4510059
  24.3342923  73.9908610  14.0687829  24.8277282  72.5723880  13.8781703
  34.7709613  83.6587610  13.7311196  33.9805157  83.6411749  13.1915696
  34.5342968  84.1975904  14.4860233  34.8907488  80.5080077  11.0443925
  34.9405493  80.3430084  11.9859448  34.7821412  79.6407336  10.6541806
  32.1811251  76.4911005  12.3603232  33.0821114  76.3517470  12.0687229
  32.2559225  76.6565460  13.3001409  26.5154056  73.8677860  11.2056418
  25.6457365  74.1611426  10.9339007  26.7513536  74.4518305  11.9263682
  36.3925685  82.9277018  11.2885946  36.1010494  83.2906999  12.1249407
  35.7797816  82.2144027  11.1099279  37.5921368  80.4929898   3.8088517
  38.4268259  80.9319702   3.9726077  37.7280496  80.0168551   2.9896762
  34.6412873  78.0509633   9.7566004  35.1166995  78.2437279   8.9484856
  33.7178439  78.1068819   9.5109388  29.2193090  70.0857477   8.7221838
  29.7375034  70.8218503   8.3968327  28.8648223  70.3921470   9.5568597
  29.4705684  66.5057759   4.2422735  29.7507438  65.8380948   4.8683161
  30.2556291  66.6986855   3.7297399  33.3414542  74.9275393   7.9894310
  34.2931965  75.0273491   8.0106534  33.1717993  74.1353662   8.4992394
  31.3628922  72.0130976   8.1753711  30.7678854  72.2935989   7.4800200
  31.0778619  72.5024877   8.9470452  35.8202620  78.1481513   7.1036610
  35.7878940  77.2097513   7.2896294  36.4303244  78.2265549   6.3702435
  35.9697109  74.9392556   7.1494893  35.4536157  74.1551013   6.9624822
  36.8537057  74.6111273   7.3141412  33.6307836  68.6833572   3.1090706
  33.4332657  68.3748660   3.9934038  34.2407541  69.4095211   3.2388635
  41.6379170  79.2097520   6.2442647  42.3682559  78.9482808   6.8050350
  41.0286116  78.4726242   6.2844714  39.7194467  77.3505382   6.8417098
  38.9927631  77.2161347   6.2333589  39.3041754  77.6582211   7.6473816
  27.5424644  81.0695312  14.6064471  28.4627653  81.2473911  14.8004517
  27.5074227  80.1251357  14.4544170  20.5386716  78.9796346   7.2487252
  20.7572726  79.9113454   7.2675286  20.9512490  78.6204321   8.0342056
  25.4114581  74.5529552  16.6390001  25.3111308  75.5023909  16.5702092
  25.1936124  74.2247791  15.7666071  31.2163856  70.0748061   2.5687222
  31.7163634  70.1864596   1.7601540  31.8599464  69.7709114   3.2088030
  25.2745852  77.9826691  15.4555062  24.7912933  78.7827051  15.6618952
  25.3606791  77.9934636  14.5022506  21.2019189  81.8731226   7.4923496
  22.1562443  81.8415168   7.4253428  21.0031713  81.4121850   8.3073722
  21.7918571  80.4432342  10.0594294  22.6111460  80.9376421  10.0829131
  22.0655379  79.5264310  10.0311861  34.8999703  72.8589615   3.1376589
  35.6760094  73.3486068   3.4101206  34.1747838  73.2847669   3.5948458
  37.3372262  73.5717234   4.1950529  37.9316753  73.3312970   3.4843838
  37.4098846  72.8524365   4.8224066  31.5226191  78.3497630  -0.3627460
  31.4661393  78.8066182  -1.2019828  32.0754534  77.5888315  -0.5404618
  35.3330997  74.1387362   0.4622659  35.0767931  73.7383998   1.2930867
  34.7083865  74.8531156   0.3372798  39.6443335  76.8783435   2.9693950
  39.0842893  76.9476625   3.7425513  39.0386838  76.7024420   2.2493447
  32.6015078  83.0370298  -4.4331271  33.4360682  82.6051496  -4.6153796
  32.4399421  82.8652312  -3.5054376  32.2560970  79.5402411  -3.0674931
  32.2009774  79.3746683  -4.0086487  31.6307026  80.2478444  -2.9112742
  17.0453485  74.7770476  10.7586491  17.6912349  74.2669430  11.2473716
  16.8370637  75.5139157  11.3329916  29.5706878  81.8451323  16.2578632
  30.4398037  82.0191975  15.8965266  29.0913629  82.6645740  16.1354361
  23.7393058  88.9648424   7.9368065  24.6420305  88.9972034   8.2534560
  23.5130428  88.0348875   7.9514401  25.4946660  87.7179411   4.5978144
  24.5442291  87.7181272   4.4842516  25.7979146  86.9712145   4.0814178
  21.3850976  71.9238093  14.8561505  22.2482438  71.5674898  15.0664830
  20.8116387  71.5851988  15.5436909  41.2299353  93.5539949   5.6623906
  41.8677763  93.4346696   4.9587246  41.1120196  94.5020793   5.7211858
  38.0389060  93.5067377   5.5985431  37.7007571  93.3908442   4.7105966
  38.9078828  93.1058542   5.5786437  33.8975875  95.3602854   1.5882322
  33.3340740  95.2692791   0.8198610  33.7828270  94.5402758   2.0684814
  38.5208843  94.6602229  11.5571636  38.5097483  94.2655027  10.6852140
  38.6829482  93.9268302  12.1505408  31.4440307  96.8554045   4.4266542
  32.2361599  96.5144870   4.0112842  31.6836957  96.9649020   5.3468696
  35.2416104  97.4439341  10.5050820  34.9505970  98.3484972  10.3897487
  35.8773088  97.4855868  11.2194890  36.1672311  94.8216189   7.0952180
  36.7635883  94.5972212   6.3809143  36.2247282  94.0800935   7.6977628
  40.7840622  91.2791403   2.7377114  41.5703711  90.8610826   2.3867531
  41.0479326  92.1837495   2.9058763  40.9550699  96.7164253  -2.5634229
  40.3196532  96.7898880  -1.8513324  40.6248106  97.3057852  -3.2415150
  46.1849049  91.2166636   3.6410093  46.9174221  90.6465853   3.8747922
  45.4288405  90.8288237   4.0816598  37.8025169  93.6393878   0.8373435
  37.4383376  93.1124499   1.5486357  38.6592285  93.2492347   0.6639921
  43.7074469  84.9288210   8.1004701  43.3757794  85.7983621   7.8765916
  43.1120083  84.6124494   8.7798732  37.4430656  88.6683777  -4.1665216
  37.6105058  89.5364014  -3.7994745  37.2527825  88.8311059  -5.0903927
  40.2005989  97.1300756   7.5000614  39.9006712  98.0325795   7.3916421
  39.8557048  96.8632939   8.3521767  33.6518470  93.5814553   3.5337319
  32.7268967  93.4490767   3.7415010  33.9002884  94.3608772   4.0307261
  43.6003133  89.6483296   5.1798051  42.6920010  89.5798705   4.8856812
  43.5490728  90.1255241   6.0079877  37.4219877  91.1241435  -3.1818549
  37.3019502  91.5698486  -2.3433069  36.7272465  91.4726753  -3.7405011
  31.0127281  93.2247827   4.3681108  31.1419663  93.4782306   5.2820519
  30.3324733  93.8175535   4.0485763  37.6743998  91.0672942  13.1232949
  36.8977332  91.6266862  13.1135813  38.3134561  91.5529725  13.6447819
  45.4664779  87.8499735   6.9575925  44.8239159  88.1432268   6.3115720
  44.9619708  87.7352655   7.7629122  43.1204943  91.5962908  -2.3538215
  44.0322799  91.8290295  -2.5290518  42.6114590  92.1799952  -2.9163137
  35.9290371  93.8758395  12.6850916  36.6705055  94.4143439  12.4085739
  35.2227356  94.5024684  12.8422467  41.4045710  96.0187536  11.2823077
  41.8129066  95.5769946  10.5377710  40.6822972  95.4440163  11.5357270
  37.7576780  90.9560143   8.6556634  38.6037976  91.3799556   8.7991283
  37.6975418  90.2993767   9.3495197  41.7274525  96.5788726   5.0375366
  41.0983387  96.7434441   4.3351434  41.3400187  96.9930336   5.8086330
  45.6063757  97.5143164   2.3919730  44.9214795  97.8942066   1.8416763
  45.6907606  98.1238491   3.1251678  40.9076226  88.6164511  10.3137808
  40.6637158  89.3706572   9.7772083  41.1836156  88.9949859  11.1485055
  42.8614688  95.1603123   8.9915073  43.0731584  95.8034883   8.3149454
  42.8144437  94.3265440   8.5237003  40.4640917  87.7720944   5.8951645
  39.6025396  88.0702198   6.1868383  40.4903352  87.9891343   4.9632678
  37.2802487  96.3163135   2.3025451  37.7440832  96.5950838   1.5130074
  37.0159285  95.4146579   2.1198542  34.1726568  95.8634616   5.2405214
  34.7427925  96.2921884   4.6022699  34.7634680  95.5817201   5.9389400
  36.2171373  92.4386287  -0.8884984  36.9195416  92.8907331  -0.4211057
  35.8852001  91.7970106  -0.2605091  34.6651734  91.0298044  13.4866226
  34.0350395  91.7114324  13.7201623  34.5587822  90.9181125  12.5419364
  29.9596707  90.6969840   4.4132150  29.1695761  90.9527368   3.9372260
  30.4507954  91.5118177   4.5184190  43.9760516  98.0375079   7.1637431
  44.7977960  97.6355266   6.8820112  43.9722919  97.9343313   8.1153547
  31.9111452  91.0614419   1.3715627  31.1142616  91.1733113   1.8899122
  31.6837044  91.4001071   0.5056517  37.7417120  97.5859122   9.3198141
  37.8061552  98.0479529  10.1556313  37.0328044  96.9556487   9.4480451
  28.2434410  90.9500330   6.8447141  28.4942448  91.8347340   7.1104717
  28.7793958  90.7704932   6.0722233  52.0666509  94.3813827   3.5122402
  51.3130218  93.8121225   3.3566407  52.2014051  94.3476492   4.4593037
  33.9432477  85.3318809  15.8491477  33.5499423  84.7785008  16.5239121
  34.7598617  85.6429388  16.2397994  36.8600438  86.7476689  13.4411733
  37.6010152  87.3483842  13.3616196  37.0918361  86.0054326  12.8829776
  32.0041776  91.9333056  11.7189963  31.8895291  91.0318313  12.0197062
  31.1486294  92.1796753  11.3674780  39.0833614  99.8750796  13.3177464
  38.6397468  99.0887175  12.9998368  39.7450827 100.0629947  12.6521354
  33.8420735 101.4046598   7.8438142  34.3928160 101.2763661   7.0715136
  33.0032211 101.7041487   7.4933035  41.1814852 100.1553596  11.3458865
  41.1633327 100.9762477  10.8539134  42.1034772 100.0307671  11.5709006
  37.6387906  97.6697726  12.1882373  38.1716243  96.9086014  11.9581681
  37.1101987  97.3771377  12.9306528  40.8057601  82.7757791   7.7176015
  40.4621870  83.6659433   7.6415126  41.1736564  82.5859449   6.8545600
  40.7707884  92.7666403  -3.7751550  40.2554507  93.5371007  -3.5363162
  40.4985192  92.0931539  -3.1518488  38.3554995  87.6116103   1.2833688
  37.4996591  87.2222954   1.1039327  38.7681947  87.6908064   0.4233474
  39.8854141  85.1462447   5.6825248  39.3818937  85.1092582   4.8693054
  40.1784748  86.0555189   5.7421905  36.1297027  85.2301176   4.6891430
  36.9950024  85.0343985   4.3297319  36.1974536  85.0011528   5.6160787
  45.7442158  95.5198757  -1.8398376  44.9671601  95.1809917  -2.2843214
  46.4233639  95.5251380  -2.5143411  40.5594187  90.6393495  -1.9491769
  40.2544323  90.9539644  -1.0981626  41.5124629  90.7174915  -1.9064436
  39.0040619  96.7983718  -0.2998815  38.4761980  96.0636478  -0.6125577
  38.5028122  97.5758394  -0.5458846  43.9833465  94.9932738   4.8168232
  43.3257139  95.6832000   4.9048360  44.7873864  95.3829170   5.1602218
  33.7359346  87.4603384   2.0607797  34.3103098  87.2378566   1.3280990
  34.3230329  87.5292079   2.8136398  42.7938924  93.3477111   2.8672173
  43.3070805  93.9807103   3.3693883  43.4440148  92.7478307   2.5015533
  36.0382014  84.3344633   0.7882866  35.3846426  84.0193650   0.1639481
  35.9962488  83.7120374   1.5142689  39.2719755  90.8226567   5.1130514
  38.3542316  91.0441514   4.9552202  39.6879898  90.8972877   4.2542221
  40.0554802  92.2217982   0.2433194  40.8026621  92.7339380  -0.0659684
  40.3246392  91.9002035   1.1037588  38.3281452  94.7176523  -2.7739852
  37.4192672  94.4335556  -2.6767382  38.3576536  95.1375602  -3.6336545
  43.5600720  98.3283113   0.9951316  43.1063047  97.4874022   1.0516506
  42.9294687  98.9644511   1.3326096  42.5033639  89.2575099   2.2251983
  41.7656396  88.7452485   2.5562226  42.7560413  88.8175480   1.4135260
  42.0033659 100.1659609   1.9301134  42.2956633 100.7264666   1.2113500
  42.5132280 100.4588170   2.6854293  42.6045267  82.0351351   2.8193753
  42.9104144  81.1748714   2.5319668  43.3297872  82.6268971   2.6192747
  36.8766346  92.3305144   3.3269944  36.9314956  91.3778980   3.2512420
  36.0657549  92.4864583   3.8111242  34.8158706  90.9482203   1.0860323
  34.0026572  91.2476374   1.4925515  35.3117701  90.5537892   1.8034805
  36.9667284 100.9439960   3.0194587  36.9243463 101.1700807   2.0903119
  37.8829983 100.7103335   3.1680388  40.4132918  91.4124028   9.9175217
  40.7682306  91.6395501  10.7769682  41.0605049  91.7442405   9.2952472
  46.1430655  94.5342464   0.6224546  46.0048554  94.7244060  -0.3054265
  45.7866874  95.2961847   1.0792597  34.3072781  88.5200559   6.7021558
  34.9472160  88.3789318   6.0044521  33.4750312  88.2335072   6.3260160
  46.1700035  96.6018991   5.6335817  46.6036541  96.5094280   6.4818871
  46.8831615  96.5776491   4.9955833  35.0833085  97.8202989   2.8156550
  35.8773684  97.3253310   2.6139125  34.3724777  97.2920853   2.4524256
  39.9027930 100.2021085   7.1668918  39.9564952 100.7712021   7.9346634
  39.0342711 100.3722970   6.8022955  31.3101398  88.4900884   1.4794544
  31.5708215  89.4046217   1.3703705  32.1318570  88.0225327   1.6291157
  32.7826323  89.9038641   8.6493369  33.4549376  89.6956003   8.0006018
  31.9556109  89.7060727   8.2098601  47.0315584  96.6442691   8.1668702
  47.2251474  97.5488502   8.4127977  46.9316202  96.1850111   9.0007287
  38.6851895  86.5300582  10.6659030  38.0379810  87.2290532  10.5723506
  39.4552910  86.9636726  11.0335278  42.0930693  96.7949434  13.7409583
  41.9416199  96.5659986  12.8239667  42.0835372  97.7520036  13.7540928
  38.8616029  94.3681347   8.7255849  39.7908089  94.5192507   8.5524817
  38.4407059  94.4565368   7.8704496  37.6604361  98.3932011   6.4954387
  37.5215447  98.0250796   7.3680325  36.8718957  98.9079651   6.3238345
  39.2109576  97.7713614   3.8843225  38.8759409  97.7314384   4.7800875
  38.7113522  97.1058330   3.4113635  33.1853820  93.1781244   9.4095806
  33.0473618  92.4461483  10.0107345  34.0958744  93.0890144   9.1279994
  35.8136121  92.8901203   8.8979486  36.5235739  92.2494396   8.8566104
  35.7705429  93.1414098   9.8205666  43.8022900  99.8268557  11.8186065
  43.7435446  99.1427777  11.1516648  44.2042418 100.5687547  11.3666691
  34.5265055  89.8766421  10.7175125  33.9902412  89.4257160  11.3696722
  33.9381763  90.0112330   9.9745590  43.8040307  97.7908141  10.0500045
  42.9167086  97.4534063  10.1726443  44.3738858  97.0591172  10.2868810
  30.2604176  89.0122429   7.8028120  30.1762365  88.4048099   7.0678530
  29.4386882  89.5031447   7.8037616  37.3341460 102.4509593   7.0161288
  37.2611632 103.2564565   7.5280592  36.8918853 102.6501559   6.1909309
  40.4327890  87.4975993   3.1698315  40.9296589  86.7445955   2.8499385
  39.6614871  87.5340309   2.6041524  48.2857647  93.2016358   4.8116606
  48.2747524  94.0841074   4.4410539  47.4175027  92.8487909   4.6171143
  39.7940144 102.3496427   9.1719446  40.5068116 102.9843892   9.0995348
  39.3030172 102.4460293   8.3559448  41.5157671  96.2547680   0.7436738
  40.5813949  96.3749142   0.5741442  41.6934339  95.3520147   0.4796748
  37.0162859  89.6393376   2.8969999  36.6460646  89.0864416   3.5850905
  37.5121951  89.0351509   2.3444999  44.9030222  92.0964999   1.2786772
  45.3690674  92.9292991   1.2047075  45.3537722  91.6309981   1.9832031
  34.8452057 100.0990871   9.9925017  35.5461517 100.7327354  10.1454411
  34.3747172 100.4405602   9.2320657  42.9706453  98.4408820  -1.7227076
  43.2466297  98.3265415  -0.8133202  42.1010952  98.0426305  -1.7614903
  42.8746885  84.4645586   5.3177674  41.9609965  84.6949813   5.4859881
  43.3039986  84.5484030   6.1691706  42.6453343  92.6535478   7.8177568
  41.9924793  92.9011385   7.1630020  43.0233723  91.8399616   7.4840045
  39.6060517 102.6895171   1.9205738  39.7882912 101.8716827   2.3833490
  40.4293503 102.9062863   1.4830628  39.9402683 101.6163356  -0.8179214
  40.4690449 101.1055811  -1.4309051  40.2030902 101.3005887   0.0466319
  38.6940916  93.3955289  14.3043605  38.0181553  93.2949418  14.9745980
  39.5168550  93.2394503  14.7679602  30.4419775  99.6327226   6.9256120
  31.0273212  98.8870914   7.0584024  30.2444614  99.9431182   7.8092784
  37.4363699 104.7022217   8.5401221  37.9882007 104.8653838   9.3050306
  37.7769893 105.2926654   7.8681246  32.4128192  87.0497366   9.1423105
  32.4769519  87.9112197   8.7300503  32.3495313  86.4371368   8.4095464
  31.8880465  89.1220499  12.7896140  32.5152504  88.7397576  13.4033664
  31.0308384  88.9034701  13.1551832  42.2874573  99.5283474  14.3949875
  42.8314477 100.1413432  13.9004830  41.7061418 100.0863052  14.9116888
  40.5732086 102.6504192   5.5264903  40.4483226 101.8493932   5.0175848
  41.2311178 103.1450385   5.0378873  32.1940255  89.0052925   4.7042043
  31.4726840  89.6188892   4.5649516  32.9833510  89.5410689   4.6258689
  42.6366995 100.4513212   7.1544453  41.6897330 100.3318563   7.0822780
  42.9849768  99.5635710   7.2370714  34.9966568  86.3407351  10.9782695
  35.5200970  86.5869648  11.7409004  34.7778901  87.1727386  10.5585832
  39.6413428 100.2465928   3.3548805  39.4938391  99.3182636   3.5356375
  40.4666922 100.2686019   2.8705880  33.5075672  88.8983995  -0.7870703
  33.8471745  89.4269917  -1.5092094  33.9547793  89.2364402  -0.0112136
  43.2447550 101.0694487   4.4413678  44.1694097 100.8637348   4.3038129
  43.0762853 100.8210888   5.3503019  36.2019113  87.2821046   8.6632365
  35.8615934  86.4828859   9.0653045  35.4958119  87.5822757   8.0909199
  36.8535585  84.3670359   7.1159688  37.6761654  83.8930837   6.9938579
  37.0973649  85.1460842   7.6158375  35.4943820  87.3958617  -2.5877410
  36.2152182  87.7739870  -3.0913693  34.8709124  88.1147494  -2.4842432
  39.6374942  88.1003766  -1.6519078  39.8538557  88.9828404  -1.9530249
  39.1569010  87.7089979  -2.3813436  34.3774164  91.0589479   4.9251667
  34.2318744  91.3729782   5.8175949  33.8999367  91.6774380   4.3722566
  36.2370547  88.0492027   4.9732557  36.2232115  87.1533121   4.6364855
  36.9542975  88.0562691   5.6070843  38.0896677  88.4829367   7.0185684
  37.8314455  89.4046438   7.0170014  37.5581718  88.0859802   7.7086148
  43.0342866 101.5880155  -0.2024231  43.2079744 101.0226577  -0.9550378
  43.5271757 102.3881049  -0.3844741  28.8519826  93.5994824   7.8639328
  28.3073294  94.3754632   7.9959603  29.7299176  93.9465628   7.7058450
  35.6407443  86.9306407   0.2420127  35.7623354  86.0023054   0.4411014
  35.3509485  86.9445093  -0.6701558  38.5098633  84.6161318   3.3786847
  38.5320330  84.6800651   2.4238826  38.9266692  83.7765827   3.5727353
  48.8882257  94.3516577   1.4166069  49.3313403  93.6023903   1.0185192
  48.0108768  94.3426714   1.0339801  44.0218039 100.9046919  -3.1027332
  44.7168943 101.5253612  -2.8840018  44.3641189 100.0542270  -2.8274954
  29.6385848  92.7264720  10.7569485  28.8967584  92.8747355  11.3434115
  29.3178592  92.9872985   9.8936234  45.9209462  98.3546624  -1.5740002
  46.4460786  98.6933897  -2.2990682  45.8331814  97.4193640  -1.7576867
  37.5829510 102.2680698  10.5549875  37.8916637 102.0229845  11.4272575
  38.3804992 102.4727337  10.0668745  37.6050122 104.4218608   2.7855252
  37.1655113 103.9294986   3.4788108  38.3558239 103.8791575   2.5447327
  35.0523995  99.9656617   4.8577553  34.4304004  99.3027322   4.5579781
  35.7228862  99.9917749   4.1751201  35.1248522  88.4438405  14.4510059
  35.1736678  89.3200528  14.0687829  35.6671036  87.9015798  13.8781703
  45.6103368  98.9879528  13.7311196  44.8198912  98.9703667  13.1915696
  45.3736722  99.5267822  14.4860233  45.7301243  95.8371994  11.0443925
  45.7799248  95.6722002  11.9859448  45.6215166  94.9699253  10.6541806
  43.0205005  91.8202922  12.3603232  43.9214868  91.6809387  12.0687229
  43.0952980  91.9857377  13.3001409  37.3547811  89.1969777  11.2056418
  36.4851120  89.4903343  10.9339007  37.5907291  89.7810222  11.9263682
  47.2319440  98.2568936  11.2885946  46.9404248  98.6198917  12.1249407
  46.6191571  97.5435944  11.1099279  48.4315122  95.8221816   3.8088517
  49.2662013  96.2611620   3.9726077  48.5674251  95.3460469   2.9896762
  45.4806628  93.3801551   9.7566004  45.9560750  93.5729197   8.9484856
  44.5572193  93.4360736   9.5109388  40.0586844  85.4149394   8.7221838
  40.5768788  86.1510421   8.3968327  39.7041977  85.7213387   9.5568597
  40.3099439  81.8349677   4.2422735  40.5901192  81.1672866   4.8683161
  41.0950046  82.0278772   3.7297399  44.1808297  90.2567311   7.9894310
  45.1325720  90.3565408   8.0106534  44.0111747  89.4645579   8.4992394
  42.2022676  87.3422894   8.1753711  41.6072609  87.6227907   7.4800200
  41.9172373  87.8316795   8.9470452  46.6596375  93.4773430   7.1036610
  46.6272695  92.5389431   7.2896294  47.2696998  93.5557467   6.3702435
  46.8090863  90.2684474   7.1494893  46.2929912  89.4842930   6.9624822
  47.6930812  89.9403190   7.3141412  44.4701590  84.0125489   3.1090706
  44.2726411  83.7040578   3.9934038  45.0801296  84.7387128   3.2388635
  52.4772925  94.5389437   6.2442647  53.2076313  94.2774725   6.8050350
  51.8679870  93.8018159   6.2844714  50.5588222  92.6797300   6.8417098
  49.8321385  92.5453265   6.2333589  50.1435509  92.9874128   7.6473816
  38.3818398  96.3987229  14.6064471  39.3021408  96.5765829  14.8004517
  38.3467981  95.4543275  14.4544170  27.6000563  91.5925823   3.5317745
  27.2803347  90.7391131   3.2392119  27.0533991  91.8074401   4.2875713
  31.3780471  94.3088264   7.2487252  31.5966480  95.2405372   7.2675286
  31.7906244  93.9496239   8.0342056  38.2984688  84.8156349  -0.7637060
  37.4885417  84.4703434  -0.3881814  38.9869105  84.5063893  -0.1749448
  40.2275237  83.8934396   0.8587237  40.7806275  84.3129850   1.5177260
  40.4645323  82.9670144   0.9010193  36.2508336  89.8821470  16.6390001
  36.1505063  90.8315827  16.5702092  36.0329878  89.5539709  15.7666071
  43.6054044  86.0034921   0.3665901  43.0252713  86.6619725  -0.0156046
  43.3389977  85.1812266  -0.0446681  42.0557610  85.4039979   2.5687222
  42.5557389  85.5156514   1.7601540  42.6993218  85.1001032   3.2088030
  36.1139606  93.3118609  15.4555062  35.6306688  94.1118969  15.6618952
  36.2000545  93.3226554  14.5022506  32.0412944  97.2023143   7.4923496
  32.9956197  97.1707086   7.4253428  31.8425467  96.7413767   8.3073722
  32.6312326  95.7724260  10.0594294  33.4505215  96.2668338  10.0829131
  32.9049133  94.8556228  10.0311861  42.3878922  88.1635012  -0.5777751
  41.5004777  88.4484662  -0.7957556  42.8032911  88.0028775  -1.4250474
  45.7393458  88.1881533   3.1376589  46.5153848  88.6777985   3.4101206
  45.0141592  88.6139587   3.5948458  48.1766017  88.9009152   4.1950529
  48.7710507  88.6604888   3.4843838  48.2492600  88.1816283   4.8224066
  42.3619946  93.6789548  -0.3627460  42.3055147  94.1358099  -1.2019828
  42.9148288  92.9180232  -0.5404618  46.1724752  89.4679280   0.4622659
  45.9161686  89.0675915   1.2930867  45.5477620  90.1823074   0.3372798
  50.4837089  92.2075353   2.9693950  49.9236647  92.2768542   3.7425513
  49.8780593  92.0316337   2.2493447  43.4408833  98.3662216  -4.4331271
  44.2754437  97.9343414  -4.6153796  43.2793176  98.1944229  -3.5054376
  43.0954725  94.8694329  -3.0674931  43.0403529  94.7038600  -4.0086487
  42.4700780  95.5770362  -2.9112742  27.8847240  90.1062393  10.7586491
  28.5306103  89.5961347  11.2473716  27.6764391  90.8431075  11.3329916
  40.4100632  97.1743241  16.2578632  41.2791792  97.3483893  15.8965266
  39.9307384  97.9937658  16.1354361  36.4050850  84.3702438  -3.4889613
  36.3929520  85.3144278  -3.3321342  37.2974272  84.1872583  -3.7830152
  34.5786812 104.2940342   7.9368065  35.4814059 104.3263952   8.2534560
  34.3524182 103.3640793   7.9514401  36.3340414 103.0471328   4.5978144
  35.3836045 103.0473190   4.4842516  36.6372900 102.3004063   4.0814178
  40.2202970  80.9645215   0.7656324  39.4535366  80.4103701   0.9113006
  40.6313675  81.0367083   1.6270476  32.2244731  87.2530010  14.8561505
  33.0876192  86.8966815  15.0664830  31.6510142  86.9143905  15.5436909
  52.0693108 108.8831867   5.6623906  52.7071518 108.7638614   4.9587246
  51.9513951 109.8312711   5.7211858  48.8782814 108.8359295   5.5985431
  48.5401326 108.7200360   4.7105966  49.7472582 108.4350460   5.5786437
  44.7369630 110.6894771   1.5882322  44.1734495 110.5984708   0.8198610
  44.6222025 109.8694676   2.0684814  49.3602597 109.9894147  11.5571636
  49.3491238 109.5946945  10.6852140  49.5223237 109.2560219  12.1505408
  42.2834062 112.1845963   4.4266542  43.0755354 111.8436788   4.0112842
  42.5230712 112.2940938   5.3468696  46.0809858 112.7731258  10.5050820
  45.7899724 113.6776889  10.3897487  46.7166843 112.8147786  11.2194890
  47.0066065 110.1508107   7.0952180  47.6029637 109.9264129   6.3809143
  47.0641037 109.4092852   7.6977628  51.6234376 106.6083321   2.7377114
  52.4097466 106.1902744   2.3867531  51.8873081 107.5129413   2.9058763
  57.0242803 106.5458554   3.6410093  57.7567975 105.9757771   3.8747922
  56.2682159 106.1580154   4.0816598  48.6418923 108.9685795   0.8373435
  48.2777130 108.4416416   1.5486357  49.4986039 108.5784264   0.6639921
  54.5468224 100.2580128   8.1004701  54.2151549 101.1275539   7.8765916
  53.9513837  99.9416412   8.7798732  48.2824410 103.9975695  -4.1665216
  48.4498812 104.8655931  -3.7994745  48.0921579 104.1602977  -5.0903927
  51.0399743 112.4592674   7.5000614  50.7400466 113.3617713   7.3916421
  50.6950803 112.1924857   8.3521767  44.4912225 108.9106471   3.5337319
  43.5662721 108.7782685   3.7415010  44.7396638 109.6900690   4.0307261
  54.4396887 104.9775214   5.1798051  53.5313764 104.9090623   4.8856812
  54.3884483 105.4547159   6.0079877  48.2613631 106.4533353  -3.1818549
  48.1413256 106.8990403  -2.3433069  47.5666219 106.8018670  -3.7405011
  41.8521036 108.5539744   4.3681108  41.9813417 108.8074223   5.2820519
  41.1718487 109.1467452   4.0485763  48.5137753 106.3964860  13.1232949
  47.7371087 106.9558780  13.1135813  49.1528316 106.8821643  13.6447819
  56.3058534 103.1791653   6.9575925  55.6632914 103.4724186   6.3115720
  55.8013462 103.0644573   7.7629122  46.7684125 109.2050313  12.6850916
  47.5098810 109.7435357  12.4085739  46.0621111 109.8316602  12.8422467
  52.2439465 111.3479454  11.2823077  52.6522821 110.9061864  10.5377710
  51.5216726 110.7732081  11.5357270  48.5970535 106.2852060   8.6556634
  49.4431730 106.7091474   8.7991283  48.5369173 105.6285685   9.3495197
  52.5668279 111.9080644   5.0375366  51.9377142 112.0726358   4.3351434
  52.1793942 112.3222254   5.8086330  51.7469980 103.9456429  10.3137808
  51.5030912 104.6998489   9.7772083  52.0229911 104.3241776  11.1485055
  53.7008443 110.4895041   8.9915073  53.9125338 111.1326801   8.3149454
  53.6538191 109.6557358   8.5237003  51.3034672 103.1012862   5.8951645
  50.4419151 103.3994115   6.1868383  51.3297107 103.3183261   4.9632678
  48.1196241 111.6455052   2.3025451  48.5834587 111.9242755   1.5130074
  47.8553039 110.7438497   2.1198542  45.0120322 111.1926534   5.2405214
  45.5821679 111.6213802   4.6022699  45.6028434 110.9109119   5.9389400
  47.0565127 107.7678205  -0.8884984  47.7589171 108.2199248  -0.4211057
  46.7245756 107.1262023  -0.2605091  45.5045489 106.3589961  13.4866226
  44.8744150 107.0406242  13.7201623  45.3981577 106.2473043  12.5419364
  40.7990461 106.0261757   4.4132150  40.0089515 106.2819286   3.9372260
  41.2901709 106.8410095   4.5184190  54.8154271 113.3666996   7.1637431
  55.6371715 112.9647184   6.8820112  54.8116674 113.2635231   8.1153547
  42.7505207 106.3906337   1.3715627  41.9536370 106.5025031   1.8899122
  42.5230799 106.7292989   0.5056517  48.5810874 112.9151040   9.3198141
  48.6455307 113.3771447  10.1556313  47.8721798 112.2848405   9.4480451
  39.0828164 106.2792248   6.8447141  39.3336203 107.1639258   7.1104717
  39.6187713 106.0996849   6.0722233  44.7826232 100.6610727  15.8491477
  44.3893177 100.1076926  16.5239121  45.5992372 100.9721306  16.2397994
  47.6994193 102.0768606  13.4411733  48.4403906 102.6775759  13.3616196
  47.9312115 101.3346244  12.8829776  42.8435531 107.2624973  11.7189963
  42.7289046 106.3610231  12.0197062  41.9880048 107.5088670  11.3674780
  49.9227368 115.2042714  13.3177464  49.4791223 114.4179092  12.9998368
  50.5844582 115.3921864  12.6521354  44.6814490 116.7338515   7.8438142
  45.2321915 116.6055579   7.0715136  43.8425965 117.0333404   7.4933035
  52.0208606 115.4845514  11.3458865  52.0027082 116.3054395  10.8539134
  52.9428527 115.3599589  11.5709006  48.4781661 112.9989643  12.1882373
  49.0109997 112.2377931  11.9581681  47.9495742 112.7063295  12.9306528
  51.6451356  98.1049709   7.7176015  51.3015625  98.9951351   7.6415126
  52.0130318  97.9151367   6.8545600  49.1948749 102.9408021   1.2833688
  48.3390346 102.5514871   1.1039327  49.6075701 103.0199982   0.4233474
  50.7247896 100.4754364   5.6825248  50.2212692 100.4384499   4.8693054
  51.0178503 101.3847107   5.7421905  46.9690782 100.5593094   4.6891430
  47.8343779 100.3635903   4.3297319  47.0368291 100.3303446   5.6160787
  51.3987941 105.9685412  -1.9491769  51.0938077 106.2831562  -1.0981626
  52.3518384 106.0466832  -1.9064436  54.8227219 110.3224656   4.8168232
  54.1650894 111.0123918   4.9048360  55.6267619 110.7121088   5.1602218
  44.5753101 102.7895302   2.0607797  45.1496853 102.5670483   1.3280990
  45.1624083 102.8583996   2.8136398  53.6332678 108.6769029   2.8672173
  54.1464560 109.3099021   3.3693883  54.2833902 108.0770224   2.5015533
  46.8775769  99.6636551   0.7882866  46.2240181  99.3485568   0.1639481
  46.8356243  99.0412291   1.5142689  50.1113509 106.1518484   5.1130514
  49.1936070 106.3733431   4.9552202  50.5273653 106.2264795   4.2542221
  50.8948557 107.5509900   0.2433194  51.6420376 108.0631297  -0.0659684
  51.1640146 107.2293953   1.1037588  53.3427394 104.5867016   2.2251983
  52.6050151 104.0744403   2.5562226  53.5954167 104.1467398   1.4135260
  53.4439021  97.3643268   2.8193753  53.7497898  96.5040632   2.5319668
  54.1691626  97.9560889   2.6192747  47.7160101 107.6597061   3.3269944
  47.7708711 106.7070898   3.2512420  46.9051303 107.8156500   3.8111242
  45.6552461 106.2774121   1.0860323  44.8420326 106.5768292   1.4925515
  46.1511455 105.8829810   1.8034805  47.8061039 116.2731878   3.0194587
  47.7637218 116.4992724   2.0903119  48.7223738 116.0395253   3.1680388
  51.2526673 106.7415946   9.9175217  51.6076060 106.9687419  10.7769682
  51.8998804 107.0734322   9.2952472  45.1466536 103.8492477   6.7021558
  45.7865915 103.7081236   6.0044521  44.3144066 103.5626990   6.3260160
  57.0093789 111.9310908   5.6335817  57.4430296 111.8386198   6.4818871
  57.7225370 111.9068409   4.9955833  45.9226840 113.1494907   2.8156550
  46.7167438 112.6545227   2.6139125  45.2118532 112.6212770   2.4524256
  50.7421684 115.5313003   7.1668918  50.7958706 116.1003939   7.9346634
  49.8736465 115.7014888   6.8022955  42.1495152 103.8192802   1.4794544
  42.4101969 104.7338135   1.3703705  42.9712324 103.3517244   1.6291157
  43.6220077 105.2330559   8.6493369  44.2943131 105.0247921   8.0006018
  42.7949864 105.0352645   8.2098601  57.8709339 111.9734609   8.1668702
  58.0645229 112.8780420   8.4127977  57.7709957 111.5142028   9.0007287
  49.5245649 101.8592500  10.6659030  48.8773564 102.5582449  10.5723506
  50.2946665 102.2928644  11.0335278  52.9324447 112.1241352  13.7409583
  52.7809954 111.8951904  12.8239667  52.9229127 113.0811953  13.7540928
  49.7009784 109.6973265   8.7255849  50.6301844 109.8484424   8.5524817
  49.2800814 109.7857285   7.8704496  48.4998116 113.7223929   6.4954387
  48.3609201 113.3542713   7.3680325  47.7112712 114.2371568   6.3238345
  50.0503331 113.1005532   3.8843225  49.7153163 113.0606302   4.7800875
  49.5507276 112.4350248   3.4113635  44.0247575 108.5073162   9.4095806
  43.8867373 107.7753401  10.0107345  44.9352498 108.4182062   9.1279994
  46.6529875 108.2193121   8.8979486  47.3629494 107.5786313   8.8566104
  46.6099184 108.4706016   9.8205666  54.6416654 115.1560474  11.8186065
  54.5829200 114.4719695  11.1516648  55.0436172 115.8979464  11.3666691
  45.3658809 105.2058339  10.7175125  44.8296166 104.7549077  11.3696722
  44.7775518 105.3404248   9.9745590  54.6434061 113.1200058  10.0500045
  53.7560840 112.7825980  10.1726443  55.2132612 112.3883090  10.2868810
  41.0997931 104.3414347   7.8028120  41.0156119 103.7340016   7.0678530
  40.2780637 104.8323365   7.8037616  48.1735215 117.7801511   7.0161288
  48.1005386 118.5856482   7.5280592  47.7312608 117.9793477   6.1909309
  51.2721644 102.8267910   3.1698315  51.7690344 102.0737873   2.8499385
  50.5008626 102.8632227   2.6041524  59.1251402 108.5308276   4.8116606
  59.1141278 109.4132991   4.4410539  58.2568781 108.1779827   4.6171143
  50.6333898 117.6788345   9.1719446  51.3461870 118.3135810   9.0995348
  50.1423927 117.7752211   8.3559448  52.3551425 111.5839597   0.7436738
  51.4207704 111.7041060   0.5741442  52.5328094 110.6812064   0.4796748
  47.8556613 104.9685293   2.8969999  47.4854401 104.4156334   3.5850905
  48.3515706 104.3643427   2.3444999  55.7423976 107.4256917   1.2786772
  56.2084429 108.2584908   1.2047075  56.1931477 106.9601898   1.9832031
  45.6845812 115.4282788   9.9925017  46.3855271 116.0619271  10.1454411
  45.2140927 115.7697520   9.2320657  53.7140639  99.7937504   5.3177674
  52.8003719 100.0241731   5.4859881  54.1433741  99.8775948   6.1691706
  53.4847098 107.9827396   7.8177568  52.8318548 108.2303303   7.1630020
  53.8627478 107.1691534   7.4840045  49.5334671 108.7247207  14.3043605
  48.8575308 108.6241336  14.9745980  50.3562305 108.5686420  14.7679602
  41.2813530 114.9619143   6.9256120  41.8666967 114.2162831   7.0584024
  41.0838368 115.2723100   7.8092784  48.2757454 120.0314134   8.5401221
  48.8275762 120.1945756   9.3050306  48.6163647 120.6218572   7.8681246
  43.2521947 102.3789284   9.1423105  43.3163273 103.2404115   8.7300503
  43.1889067 101.7663286   8.4095464  42.7274219 104.4512417  12.7896140
  43.3546258 104.0689494  13.4033664  41.8702138 104.2326618  13.1551832
  53.1268328 114.8575392  14.3949875  53.6708232 115.4705350  13.9004830
  52.5455173 115.4154970  14.9116888  51.4125841 117.9796110   5.5264903
  51.2876980 117.1785850   5.0175848  52.0704932 118.4742303   5.0378873
  43.0334009 104.3344842   4.7042043  42.3120595 104.9480810   4.5649516
  43.8227265 104.8702607   4.6258689  53.4760749 115.7805130   7.1544453
  52.5291085 115.6610481   7.0822780  53.8243522 114.8927628   7.2370714
  45.8360323 101.6699269  10.9782695  46.3594724 101.9161565  11.7409004
  45.6172656 102.5019304  10.5585832  50.4807183 115.5757846   3.3548805
  50.3332145 114.6474553   3.5356375  51.3060676 115.5977937   2.8705880
  44.3469427 104.2275913  -0.7870703  44.6865499 104.7561834  -1.5092094
  44.7941547 104.5656319  -0.0112136  47.0412868 102.6112964   8.6632365
  46.7009688 101.8120777   9.0653045  46.3351874 102.9114675   8.0909199
  47.6929339  99.6962276   7.1159688  48.5155409  99.2222754   6.9938579
  47.9367403 100.4752760   7.6158375  46.3337574 102.7250535  -2.5877410
  47.0545936 103.1031787  -3.0913693  45.7102878 103.4439412  -2.4842432
  50.4768697 103.4295684  -1.6519078  50.6932311 104.3120322  -1.9530249
  49.9962764 103.0381897  -2.3813436  45.2167918 106.3881397   4.9251667
  45.0712499 106.7021700   5.8175949  44.7393122 107.0066297   4.3722566
  47.0764301 103.3783945   4.9732557  47.0625870 102.4825038   4.6364855
  47.7936729 103.3854609   5.6070843  48.9290432 103.8121285   7.0185684
  48.6708210 104.7338356   7.0170014  48.3975472 103.4151720   7.7086148
  39.6913580 108.9286741   7.8639328  39.1467048 109.7046549   7.9959603
  40.5692930 109.2757546   7.7058450  46.4801197 102.2598325   0.2420127
  46.6017108 101.3314971   0.4411014  46.1903239 102.2737011  -0.6701558
  49.3492387  99.9453236   3.3786847  49.3714084 100.0092569   2.4238826
  49.7660446  99.1057744   3.5727353  40.4779602 108.0556638  10.7569485
  39.7361338 108.2039273  11.3434115  40.1572347 108.3164903   9.8936234
  48.4223265 117.5972616  10.5549875  48.7310391 117.3521763  11.4272575
  49.2198747 117.8019254  10.0668745  45.8917749 115.2948535   4.8577553
  45.2697758 114.6319240   4.5579781  46.5622616 115.3209666   4.1751201
  45.9642277 103.7730323  14.4510059  46.0130432 104.6492445  14.0687829
  46.5064791 103.2307716  13.8781703  56.4497122 114.3171446  13.7311196
  55.6592666 114.2995585  13.1915696  56.2130477 114.8559739  14.4860233
  56.5694997 111.1663912  11.0443925  56.6193002 111.0013920  11.9859448
  56.4608921 110.2991171  10.6541806  53.8598760 107.1494840  12.3603232
  54.7608622 107.0101305  12.0687229  53.9346734 107.3149295  13.3001409
  48.1941565 104.5261695  11.2056418  47.3244874 104.8195261  10.9339007
  48.4301045 105.1102140  11.9263682  58.0713194 113.5860854  11.2885946
  57.7798002 113.9490834  12.1249407  57.4585325 112.8727862  11.1099279
  59.2708876 111.1513733   3.8088517  60.1055768 111.5903538   3.9726077
  59.4068005 110.6752387   2.9896762  56.3200382 108.7093468   9.7566004
  56.7954504 108.9021115   8.9484856  55.3965948 108.7652654   9.5109388
  50.8980599 100.7441312   8.7221838  51.4162543 101.4802339   8.3968327
  50.5435732 101.0505305   9.5568597  51.1493193  97.1641594   4.2422735
  51.4294947  96.4964783   4.8683161  51.9343800  97.3570690   3.7297399
  55.0202051 105.5859228   7.9894310  55.9719474 105.6857326   8.0106534
  54.8505502 104.7937497   8.4992394  53.0416431 102.6714812   8.1753711
  52.4466363 102.9519824   7.4800200  52.7566128 103.1608713   8.9470452
  57.4990129 108.8065348   7.1036610  57.4666449 107.8681349   7.2896294
  58.1090753 108.8849385   6.3702435  57.6484618 105.5976392   7.1494893
  57.1323666 104.8134848   6.9624822  58.5324566 105.2695108   7.3141412
  55.3095345  99.3417407   3.1090706  55.1120166  99.0332495   3.9934038
  55.9195050 100.0679046   3.2388635  63.3166679 109.8681355   6.2442647
  64.0470068 109.6066643   6.8050350  62.7073625 109.1310077   6.2844714
  61.3981976 108.0089217   6.8417098  60.6715140 107.8745182   6.2333589
  60.9829263 108.3166046   7.6473816  49.2212153 111.7279147  14.6064471
  50.1415162 111.9057746  14.8004517  49.1861736 110.7835193  14.4544170
  38.4394318 106.9217741   3.5317745  38.1197102 106.0683049   3.2392119
  37.8927746 107.1366319   4.2875713  42.2174225 109.6380182   7.2487252
  42.4360235 110.5697290   7.2675286  42.6299999 109.2788156   8.0342056
  49.1378443 100.1448267  -0.7637060  48.3279171  99.7995352  -0.3881814
  49.8262860  99.8355811  -0.1749448  51.0668991  99.2226314   0.8587237
  51.6200030  99.6421767   1.5177260  51.3039078  98.2962062   0.9010193
  47.0902090 105.2113388  16.6390001  46.9898817 106.1607745  16.5702092
  46.8723633 104.8831626  15.7666071  54.4447798 101.3326839   0.3665901
  53.8646467 101.9911643  -0.0156046  54.1783731 100.5104184  -0.0446681
  52.8951365 100.7331897   2.5687222  53.3951143 100.8448431   1.7601540
  53.5386973 100.4292950   3.2088030  46.9533361 108.6410526  15.4555062
  46.4700442 109.4410887  15.6618952  47.0394300 108.6518471  14.5022506
  42.8806698 112.5315061   7.4923496  43.8349952 112.4999003   7.4253428
  42.6819222 112.0705685   8.3073722  43.4706080 111.1016177  10.0594294
  44.2898969 111.5960256  10.0829131  43.7442888 110.1848145  10.0311861
  53.2272676 103.4926929  -0.5777751  52.3398531 103.7776580  -0.7957556
  53.6426665 103.3320693  -1.4250474  56.5787212 103.5173450   3.1376589
  57.3547603 104.0069903   3.4101206  55.8535347 103.9431505   3.5948458
  59.0159771 104.2301070   4.1950529  59.6104262 103.9896806   3.4843838
  59.0886355 103.5108200   4.8224066  57.0118506 104.7971197   0.4622659
  56.7555440 104.3967833   1.2930867  56.3871374 105.5114991   0.3372798
  61.3230844 107.5367271   2.9693950  60.7630402 107.6060460   3.7425513
  60.7174347 107.3608255   2.2493447  38.7240994 105.4354311  10.7586491
  39.3699858 104.9253265  11.2473716  38.5158145 106.1722993  11.3329916
  51.2494387 112.5035159  16.2578632  52.1185546 112.6775811  15.8965266
  50.7701138 113.3229575  16.1354361  47.2444605  99.6994356  -3.4889613
  47.2323275 100.6436196  -3.3321342  48.1368027  99.5164501  -3.7830152
  45.4180567 119.6232260   7.9368065  46.3207814 119.6555870   8.2534560
  45.1917937 118.6932710   7.9514401  47.1734169 118.3763246   4.5978144
  46.2229800 118.3765108   4.4842516  47.4766655 117.6295981   4.0814178
  51.0596724  96.2937132   0.7656324  50.2929120  95.7395619   0.9113006
  51.4707429  96.3659001   1.6270476  43.0638485 102.5821928  14.8561505
  43.9269947 102.2258733  15.0664830  42.4903896 102.2435823  15.5436909
  59.3531507 121.7256777  13.1232949  58.5764841 122.2850698  13.1135813
  59.9922070 122.2113560  13.6447819  57.6077880 124.5342231  12.6850916
  58.3492564 125.0727275  12.4085739  56.9014865 125.1608520  12.8422467
  62.5863735 119.2748346  10.3137808  62.3424667 120.0290407   9.7772083
  62.8623665 119.6533694  11.1485055  56.3439243 121.6881879  13.4866226
  55.7137904 122.3698160  13.7201623  56.2375331 121.5764961  12.5419364
  49.9221919 121.6084165   6.8447141  50.1729957 122.4931175   7.1104717
  50.4581467 121.4288767   6.0722233  55.6219986 115.9902645  15.8491477
  55.2286932 115.4368843  16.5239121  56.4386126 116.3013223  16.2397994
  58.5387947 117.4060524  13.4411733  59.2797661 118.0067677  13.3616196
  58.7705870 116.6638162  12.8829776  53.6829285 122.5916891  11.7189963
  53.5682800 121.6902148  12.0197062  52.8273803 122.8380588  11.3674780
  62.4845110 113.4341627   7.7176015  62.1409379 114.3243268   7.6415126
  62.8524073 113.2443284   6.8545600  54.4613832 120.5622476   8.6493369
  55.1336885 120.3539839   8.0006018  53.6343618 120.3644562   8.2098601
  60.3639404 117.1884417  10.6659030  59.7167319 117.8874367  10.5723506
  61.1340419 117.6220561  11.0335278  54.8641329 123.8365079   9.4095806
  54.7261127 123.1045318  10.0107345  55.7746253 123.7473980   9.1279994
  56.2052564 120.5350257  10.7175125  55.6689921 120.0840995  11.3696722
  55.6169272 120.6696166   9.9745590  51.9391685 119.6706264   7.8028120
  51.8549874 119.0631934   7.0678530  51.1174391 120.1615283   7.8037616
  60.3728425 124.0539124  14.3043605  59.6969062 123.9533254  14.9745980
  61.1956059 123.8978338  14.7679602  54.0915701 117.7081202   9.1423105
  54.1557028 118.5696033   8.7300503  54.0282822 117.0955203   8.4095464
  53.5667974 119.7804334  12.7896140  54.1940013 119.3981412  13.4033664
  52.7095893 119.5618536  13.1551832  56.6754077 116.9991186  10.9782695
  57.1988479 117.2453483  11.7409004  56.4566410 117.8311221  10.5585832
  57.8806622 117.9404882   8.6632365  57.5403443 117.1412695   9.0653045
  57.1745628 118.2406592   8.0909199  58.5323094 115.0254194   7.1159688
  59.3549163 114.5514672   6.9938579  58.7761158 115.8044678   7.6158375
  50.5307335 124.2578659   7.8639328  49.9860803 125.0338467   7.9959603
  51.4086685 124.6049463   7.7058450  51.3173357 123.3848555  10.7569485
  50.5755093 123.5331191  11.3434115  50.9966101 123.6456821   9.8936234
  56.8036031 119.1022240  14.4510059  56.8524187 119.9784363  14.0687829
  57.3458545 118.5599633  13.8781703  59.0335320 119.8553613  11.2056418
  58.1638629 120.1487179  10.9339007  59.2694800 120.4394058  11.9263682
  61.7374353 116.0733230   8.7221838  62.2556297 116.8094256   8.3968327
  61.3829486 116.3797223   9.5568597  60.0605907 127.0571065  14.6064471
  60.9808917 127.2349664  14.8004517  60.0255490 126.1127110  14.4544170
  57.9295845 120.5405305  16.6390001  57.8292572 121.4899662  16.5702092
  57.7117387 120.2123544  15.7666071  57.7927115 123.9702444  15.4555062
  57.3094197 124.7702804  15.6618952  57.8788054 123.9810389  14.5022506
  49.5634749 120.7646229  10.7586491  50.2093612 120.2545183  11.2473716
  49.3551900 121.5014910  11.3329916  62.0888141 127.8327076  16.2578632
  62.9579301 128.0067729  15.8965266  61.6094893 128.6521493  16.1354361
  53.9032240 117.9113846  14.8561505  54.7663701 117.5550651  15.0664830
  53.3297651 117.5727741  15.5436909  38.5208844  71.6664352  -1.7183057
  38.5097485  71.2717150  -2.5902553  38.6829483  70.9330424  -1.1249285
  35.2416105  74.4501463  -2.7703873  34.9505971  75.3547094  -2.8857207
  35.8773089  74.4917991  -2.0559803  37.6744000  68.0735065  -0.1521745
  36.8977334  68.6328985  -0.1618880  38.3134563  68.5591848   0.3693125
  35.9290372  70.8820518  -0.5903778  36.6705056  71.4205562  -0.8668954
  35.2227357  71.5086807  -0.4332226  41.4045712  73.0249658  -1.9931616
  41.8129068  72.5832069  -2.7376984  40.6822973  72.4502286  -1.7397423
  43.9760518  75.0437201  -6.1117263  44.7977961  74.6417389  -6.3934581
  43.9722921  74.9405436  -5.1601147  39.0833615  76.8812919   0.0422770
  38.6397469  76.0949297  -0.2756325  39.7450829  77.0692069  -0.6233339
  41.1814853  77.1615719  -1.9295828  41.1633329  77.9824600  -2.4215559
  42.1034773  77.0369794  -1.7045687  37.6387907  74.6759848  -1.0872320
  38.1716244  73.9148136  -1.3173012  37.1101988  74.3833500  -0.3448166
  47.0315585  73.6504814  -5.1085991  47.2251476  74.5550625  -4.8626716
  46.9316204  73.1912233  -4.2747406  42.0930694  73.8011557   0.4654890
  41.9416201  73.5722109  -0.4515027  42.0835374  74.7582158   0.4786235
  43.8022901  76.8330679  -1.4568628  43.7435447  76.1489900  -2.1238045
  44.2042419  77.5749669  -1.9088002  43.8040308  74.7970263  -3.2254649
  42.9167087  74.4596185  -3.1028250  44.3738859  74.0653295  -2.9885883
  39.7940145  79.3558550  -4.1035247  40.5068117  79.9906015  -4.1759345
  39.3030174  79.4522416  -4.9195245  34.8452059  77.1052993  -3.2829676
  35.5461518  77.7389476  -3.1300282  34.3747174  77.4467725  -4.0434037
  38.6940917  70.4017412   1.0288911  38.0181555  70.3011541   1.6991287
  39.5168551  70.2456625   1.4924909  37.4363700  81.7084339  -4.7353473
  37.9882008  81.8715961  -3.9704387  37.7769894  82.2988777  -5.4073448
  42.2874575  76.5345597   1.1195182  42.8314479  77.1475555   0.6250137
  41.7061420  77.0925175   1.6362195  42.6366996  77.4575335  -6.1210240
  41.6897332  77.3380686  -6.1931914  42.9849769  76.5697833  -6.0383979
  37.5829512  79.2742821  -2.7204818  37.8916638  79.0291967  -1.8482119
  38.3804994  79.4789459  -3.2085948  45.6103369  75.9941651   0.4556503
  44.8198913  75.9765790  -0.0838998  45.3736724  76.5329944   1.2105540
  45.7301244  72.8434117  -2.2310768  45.7799249  72.6784125  -1.2895246
  45.6215167  71.9761376  -2.6212888  43.0205007  68.8265045  -0.9151462
  43.9214869  68.6871510  -1.2067464  43.0952981  68.9919500   0.0246716
  47.2319441  75.2631059  -1.9868747  46.9404249  75.6261039  -1.1505286
  46.6191572  74.5498067  -2.1655415  45.4806629  70.3863673  -3.5188689
  45.9560751  70.5791320  -4.3269838  44.5572195  70.4422859  -3.7645305
  52.4772926  71.5451560  -7.0312047  53.2076314  71.2836848  -6.4704344
  51.8679871  70.8080282  -6.9909979  38.3818399  73.4049352   1.3309777
  39.3021409  73.5827951   1.5249824  38.3467982  72.4605397   1.1789477
  36.2508337  66.8883593   3.3635307  36.1505064  67.8377949   3.2947399
  36.0329879  66.5601831   2.4911378  36.1139607  70.3180731   2.1800369
  35.6306689  71.1181091   2.3864258  36.2000546  70.3288676   1.2267813
  40.4100633  74.1805363   2.9823938  41.2791793  74.3546016   2.6210573
  39.9307385  74.9999780   2.8599668  34.5786814  81.3002464  -5.3386628
  35.4814060  81.3326075  -5.0220133  34.3524184  80.3702915  -5.3240292
  52.0693109  85.8893989  -7.6130787  52.7071519  85.7700737  -8.3167447
  51.9513952  86.8374833  -7.5542835  48.8782815  85.8421418  -7.6769262
  48.5401327  85.7262482  -8.5648728  49.7472584  85.4412583  -7.6968256
  44.7369631  87.6956894 -11.6872371  44.1734496  87.6046831 -12.4556084
  44.6222026  86.8756798 -11.2069879  49.3602598  86.9956269  -1.7183057
  49.3491239  86.6009068  -2.5902553  49.5223238  86.2622342  -1.1249285
  42.2834063  89.1908086  -8.8488151  43.0755355  88.8498910  -9.2641852
  42.5230713  89.3003061  -7.9285998  46.0809859  89.7793381  -2.7703873
  45.7899725  90.6839012  -2.8857207  46.7166844  89.8209909  -2.0559803
  47.0066066  87.1570230  -6.1802513  47.6029639  86.9326252  -6.8945550
  47.0641038  86.4154975  -5.5777065  51.6234378  83.6145443 -10.5377579
  52.4097467  83.1964866 -10.8887162  51.8873082  84.5191535 -10.3695931
  57.0242805  83.5520676  -9.6344601  57.7567977  82.9819893  -9.4006771
  56.2682160  83.1642277  -9.1938095  48.6418924  85.9747918 -12.4381258
  48.2777132  85.4478539 -11.7268337  49.4986040  85.5846387 -12.6114773
  54.5468225  77.2642251  -5.1749992  54.2151550  78.1337662  -5.3988777
  53.9513838  76.9478535  -4.4955962  51.0399745  89.4654797  -5.7754079
  50.7400468  90.3679835  -5.8838272  50.6950804  89.1986980  -4.9232926
  44.4912226  85.9168593  -9.7417375  43.5662723  85.7844807  -9.5339683
  44.7396639  86.6962813  -9.2447432  54.4396888  81.9837337  -8.0956642
  53.5313766  81.9152745  -8.3897881  54.3884484  82.4609282  -7.2674816
  41.8521037  85.5601867  -8.9073586  41.9813418  85.8136346  -7.9934174
  41.1718488  86.1529575  -9.2268931  48.5137754  83.4026982  -0.1521745
  47.7371088  83.9620902  -0.1618880  49.1528317  83.8883765   0.3693125
  56.3058535  80.1853775  -6.3178768  55.6632915  80.4786308  -6.9638973
  55.8013463  80.0706695  -5.5125571  46.7684126  86.2112436  -0.5903778
  47.5098811  86.7497480  -0.8668954  46.0621112  86.8378724  -0.4332226
  52.2439466  88.3541576  -1.9931616  52.6522822  87.9123987  -2.7376984
  51.5216728  87.7794204  -1.7397423  48.5970536  83.2914183  -4.6198059
  49.4431731  83.7153596  -4.4763410  48.5369174  82.6347807  -3.9259496
  52.5668281  88.9142767  -8.2379327  51.9377143  89.0788481  -8.9403259
  52.1793943  89.3284376  -7.4668363  51.7469981  80.9518551  -2.9616886
  51.5030913  81.7060612  -3.4982610  52.0229912  81.3303899  -2.1269639
  53.7008444  87.4957164  -4.2839620  53.9125339  88.1388924  -4.9605239
  53.6538192  86.6619480  -4.7517690  51.3034673  80.1074984  -7.3803048
  50.4419152  80.4056238  -7.0886310  51.3297108  80.3245383  -8.3122015
  48.1196243  88.6517175 -10.9729242  48.5834588  88.9304878 -11.7624620
  47.8553041  87.7500619 -11.1556151  45.0120324  88.1988656  -8.0349479
  45.5821681  88.6275925  -8.6731994  45.6028436  87.9171241  -7.3365293
  45.5045490  83.3652084   0.2111532  44.8744151  84.0468365   0.4446929
  45.3981578  83.2535165  -0.7335329  40.7990463  83.0323880  -8.8622543
  40.0089517  83.2881408  -9.3382433  41.2901710  83.8472218  -8.7570503
  54.8154272  90.3729119  -6.1117263  55.6371716  89.9709306  -6.3934581
  54.8116675  90.2697353  -5.1601147  48.5810876  89.9213162  -3.9556552
  48.6455308  90.3833570  -3.1198380  47.8721800  89.2910527  -3.8274242
  39.0828166  83.2854370  -6.4307553  39.3336204  84.1701380  -6.1649977
  39.6187714  83.1058972  -7.2032461  44.7826233  77.6672850   2.5736783
  44.3893178  77.1139048   3.2484428  45.5992373  77.9783428   2.9643301
  47.6994194  79.0830729   0.1657040  48.4403907  79.6837882   0.0861502
  47.9312117  78.3408367  -0.3924917  42.8435532  84.2687096  -1.5564730
  42.7289047  83.3672353  -1.2557631  41.9880050  84.5150793  -1.9079914
  49.9227370  92.2104836   0.0422770  49.4791224  91.4241215  -0.2756325
  50.5844583  92.3983987  -0.6233339  44.6814491  93.7400638  -5.4316551
  45.2321916  93.6117701  -6.2039557  43.8425967  94.0395527  -5.7821658
  52.0208608  92.4907636  -1.9295828  52.0027083  93.3116517  -2.4215559
  52.9428528  92.3661712  -1.7045687  48.4781662  90.0051766  -1.0872320
  49.0109999  89.2440054  -1.3173012  47.9495743  89.7125418  -0.3448166
  51.6451357  75.1111832  -5.5578678  51.3015626  76.0013473  -5.6339568
  52.0130319  74.9213489  -6.4209093  50.7247897  77.4816487  -7.5929445
  50.2212693  77.4446622  -8.4061640  51.0178504  78.3909230  -7.5332788
  46.9690783  77.5655217  -8.5863263  47.8343780  77.3698025  -8.9457374
  47.0368292  77.3365568  -7.6593907  54.8227221  87.3286779  -8.4586462
  54.1650895  88.0186040  -8.3706333  55.6267620  87.7183211  -8.1152475
  53.6332679  85.6831151 -10.4082520  54.1464561  86.3161143  -9.9060810
  54.2833903  85.0832347 -10.7739160  50.1113510  83.1580607  -8.1624180
  49.1936072  83.3795554  -8.3202491  50.5273654  83.2326917  -9.0212472
  50.8948558  84.5572023 -13.0321499  51.6420377  85.0693420 -13.3414377
  51.1640148  84.2356075 -12.1717106  53.3427395  81.5929139 -11.0502710
  52.6050152  81.0806525 -10.7192467  53.5954169  81.1529521 -11.8619433
  47.7160102  84.6659184  -9.9484750  47.7708712  83.7133020 -10.0242273
  46.9051304  84.8218623  -9.4643451  45.6552462  83.2836244 -12.1894371
  44.8420328  83.5830414 -11.7829179  46.1511456  82.8891933 -11.4719888
  47.8061040  93.2794001 -10.2560106  47.7637219  93.5054847 -11.1851574
  48.7223739  93.0457375 -10.1074305  51.2526674  83.7478068  -3.3579477
  51.6076062  83.9749541  -2.4985011  51.8998805  84.0796445  -3.9802222
  45.1466537  80.8554599  -6.5733136  45.7865916  80.7143358  -7.2710172
  44.3144067  80.5689113  -6.9494534  57.0093790  88.9373031  -7.6418876
  57.4430297  88.8448320  -6.7935822  57.7225371  88.9130532  -8.2798860
  45.9226841  90.1557030 -10.4598143  46.7167439  89.6607350 -10.6615568
  45.2118533  89.6274893 -10.8230438  50.7421685  92.5375125  -6.1085776
  50.7958708  93.1066062  -5.3408060  49.8736467  92.7077010  -6.4731739
  43.6220079  82.2392681  -4.6261324  44.2943132  82.0310044  -5.2748676
  42.7949865  82.0414767  -5.0656092  57.8709340  88.9796732  -5.1085991
  58.0645230  89.8842542  -4.8626716  57.7709958  88.5204151  -4.2747406
  49.5245651  78.8654622  -2.6095664  48.8773566  79.5644572  -2.7031187
  50.2946666  79.2990766  -2.2419415  52.9324449  89.1303475   0.4654890
  52.7809955  88.9014026  -0.4515027  52.9229128  90.0874076   0.4786235
  49.7009785  86.7035387  -4.5498844  50.6301845  86.8546547  -4.7229877
  49.2800815  86.7919408  -5.4050197  48.4998117  90.7286052  -6.7800306
  48.3609203  90.3604836  -5.9074368  47.7112713  91.2433691  -6.9516348
  50.0503332  90.1067654  -9.3911468  49.7153165  90.0668424  -8.4953819
  49.5507278  89.4412370  -9.8641058  44.0247576  85.5135284  -3.8658887
  43.8867374  84.7815523  -3.2647348  44.9352499  85.4244184  -4.1474700
  46.6529877  85.2255244  -4.3775208  47.3629495  84.5848436  -4.4188589
  46.6099185  85.4768139  -3.4549027  54.6416655  92.1622597  -1.4568628
  54.5829201  91.4781817  -2.1238045  55.0436174  92.9041587  -1.9088002
  45.3658811  82.2120462  -2.5579568  44.8296168  81.7611200  -1.9057972
  44.7775519  82.3466370  -3.3009104  54.6434063  90.1262181  -3.2254649
  53.7560841  89.7888103  -3.1028250  55.2132614  89.3945212  -2.9885883
  41.0997932  81.3476469  -5.4726574  41.0156121  80.7402139  -6.2076164
  40.2780638  81.8385488  -5.4717077  48.1735216  94.7863633  -6.2593406
  48.1005387  95.5918605  -5.7474101  47.7312609  94.9855599  -7.0845384
  51.2721646  79.8330033 -10.1056379  51.7690345  79.0799995 -10.4255308
  50.5008627  79.8694349 -10.6713169  59.1251403  85.5370398  -8.4638087
  59.1141279  86.4195114  -8.8344154  58.2568783  85.1841949  -8.6583550
  50.6333899  94.6850467  -4.1035247  51.3461872  95.3197932  -4.1759345
  50.1423928  94.7814333  -4.9195245  52.3551426  88.5901720 -12.5317955
  51.4207705  88.7103183 -12.7013251  52.5328095  87.6874187 -12.7957945
  47.8556614  81.9747416 -10.3784694  47.4854402  81.4218456  -9.6903788
  48.3515707  81.3705549 -10.9309694  55.7423978  84.4319039 -11.9967921
  56.2084430  85.2647031 -12.0707618  56.1931478  83.9664021 -11.2922663
  45.6845813  92.4344911  -3.2829676  46.3855272  93.0681394  -3.1300282
  45.2140928  92.7759642  -4.0434037  53.7140640  76.7999626  -7.9577020
  52.8003720  77.0303853  -7.7894813  54.1433742  76.8838070  -7.1062987
  53.4847099  84.9889518  -5.4577126  52.8318549  85.2365426  -6.1124673
  53.8627479  84.1753656  -5.7914648  49.5334672  85.7309329   1.0288911
  48.8575309  85.6303459   1.6991287  50.3562306  85.5748543   1.4924909
  41.2813531  91.9681266  -6.3498573  41.8666968  91.2224954  -6.2170669
  41.0838370  92.2785223  -5.4661909  48.2757455  97.0376257  -4.7353473
  48.8275763  97.2007878  -3.9704387  48.6163648  97.6280695  -5.4073448
  43.2521948  79.3851407  -4.1331588  43.3163275  80.2466237  -4.5454190
  43.1889068  78.7725408  -4.8659229  42.7274221  81.4574539  -0.4858554
  43.3546259  81.0751616   0.1278971  41.8702139  81.2388741  -0.1202861
  53.1268329  91.8637514   1.1195182  53.6708233  92.4767473   0.6250137
  52.5455174  92.4217093   1.6362195  51.4125842  94.9858232  -7.7489790
  51.2876982  94.1847972  -8.2578845  52.0704933  95.4804426  -8.2375821
  43.0334010  81.3406965  -8.5712650  42.3120596  81.9542933  -8.7105177
  43.8227266  81.8764730  -8.6496004  53.4760751  92.7867252  -6.1210240
  52.5291086  92.6672604  -6.1931914  53.8243524  91.8989750  -6.0383979
  45.8360324  78.6761391  -2.2971998  46.3594726  78.9223688  -1.5345689
  45.6172657  79.5081426  -2.7168861  50.4807184  92.5819969  -9.9205888
  50.3332146  91.6536676  -9.7398318  51.3060677  92.6040059 -10.4048813
  47.0412869  79.6175086  -4.6122328  46.7009689  78.8182899  -4.2101648
  46.3351875  79.9176797  -5.1845495  47.6929341  76.7024399  -6.1595005
  48.5155410  76.2284877  -6.2816115  47.9367404  77.4814883  -5.6596319
  45.2167920  83.3943519  -8.3503026  45.0712500  83.7083823  -7.4578745
  44.7393123  84.0128420  -8.9032128  47.0764302  80.3846067  -8.3022137
  47.0625871  79.4887161  -8.6389839  47.7936731  80.3916731  -7.6683851
  48.9290433  80.8183408  -6.2569009  48.6708211  81.7400478  -6.2584679
  48.3975473  80.4213842  -5.5668545  39.6913582  85.9348864  -5.4115365
  39.1467050  86.7108672  -5.2795091  40.5692932  86.2819668  -5.5696244
  40.4779604  85.0618760  -2.5185208  39.7361340  85.2101396  -1.9320578
  40.1572348  85.3227026  -3.3818459  48.4223266  94.6034738  -2.7204818
  48.7310393  94.3583885  -1.8482119  49.2198748  94.8081377  -3.2085948
  45.8917750  92.3010657  -8.4177140  45.2697760  91.6381362  -8.7174912
  46.5622617  92.3271789  -9.1003492  45.9642278  80.7792445   1.1755366
  46.0130433  81.6554568   0.7933136  46.5064792  80.2369838   0.6027009
  56.4497124  91.3233568   0.4556503  55.6592667  91.3057707  -0.0838998
  56.2130478  91.8621862   1.2105540  56.5694999  88.1726035  -2.2310768
  56.6193004  88.0076042  -1.2895246  56.4608922  87.3053294  -2.6212888
  53.8598761  84.1556963  -0.9151462  54.7608624  84.0163428  -1.2067464
  53.9346736  84.3211418   0.0246716  48.1941566  81.5323818  -2.0698275
  47.3244876  81.8257384  -2.3415687  48.4301047  82.1164263  -1.3491012
  58.0713195  90.5922976  -1.9868747  57.7798004  90.9552957  -1.1505286
  57.4585327  89.8789985  -2.1655415  59.2708878  88.1575856  -9.4666177
  60.1055769  88.5965660  -9.3028616  59.4068007  87.6814509 -10.2857931
  56.3200384  85.7155591  -3.5188689  56.7954505  85.9083237  -4.3269838
  55.3965949  85.7714777  -3.7645305  50.8980600  77.7503434  -4.5532855
  51.4162544  78.4864461  -4.8786366  50.5435733  78.0567428  -3.7186096
  51.1493194  74.1703717  -9.0331958  51.4294948  73.5026906  -8.4071532
  51.9343801  74.3632813  -9.5457295  55.0202053  82.5921351  -5.2860383
  55.9719476  82.6919449  -5.2648159  54.8505503  81.7999620  -4.7762299
  53.0416432  79.6776934  -5.1000982  52.4466364  79.9581947  -5.7954494
  52.7566129  80.1670835  -4.3284241  57.4990130  85.8127471  -6.1718084
  57.4666451  84.8743471  -5.9858400  58.1090754  85.8911507  -6.9052259
  57.6484619  82.6038514  -6.1259800  57.1323668  81.8196971  -6.3129872
  58.5324567  82.2757231  -5.9613281  55.3095346  76.3479530 -10.1663988
  55.1120167  76.0394618  -9.2820656  55.9195051  77.0741169 -10.0366058
  63.3166680  86.8743478  -7.0312047  64.0470069  86.6128766  -6.4704344
  62.7073626  86.1372199  -6.9909979  61.3981977  85.0151340  -6.4337596
  60.6715141  84.8807305  -7.0421104  60.9829264  85.3228169  -5.6280878
  49.2212154  88.7341270   1.3309777  50.1415163  88.9119869   1.5249824
  49.1861737  87.7897315   1.1789477  42.2174226  86.6442304  -6.0267441
  42.4360236  87.5759412  -6.0079408  42.6300000  86.2850279  -5.2412638
  47.0902092  82.2175510   3.3635307  46.9898819  83.1669867   3.2947399
  46.8723634  81.8893749   2.4911378  52.8951366  77.7394019 -10.7067472
  53.3951144  77.8510554 -11.5153153  53.5386974  77.4355072 -10.0666663
  46.9533362  85.6472649   2.1800369  46.4700443  86.4473009   2.3864258
  47.0394301  85.6580594   1.2267813  42.8806699  89.5377184  -5.7831197
  43.8349953  89.5061126  -5.8501266  42.6819223  89.0767807  -4.9680971
  43.4706081  88.1078300  -3.2160399  44.2898970  88.6022378  -3.1925562
  43.7442889  87.1910268  -3.2442832  56.5787214  80.5235573 -10.1378105
  57.3547604  81.0132026  -9.8653488  55.8535348  80.9493627  -9.6806235
  59.0159772  81.2363192  -9.0804164  59.6104263  80.9958928  -9.7910856
  59.0886356  80.5170323  -8.4530628  57.0118507  81.8033320 -12.8132034
  56.7555441  81.4029956 -11.9823827  56.3871375  82.5177114 -12.9381895
  61.3230845  84.5429393 -10.3060743  60.7630403  84.6122582  -9.5329181
  60.7174348  84.3670378 -11.0261247  38.7240996  82.4416434  -2.5168202
  39.3699859  81.9315388  -2.0280977  38.5158147  83.1785115  -1.9424777
  51.2494388  89.5097281   2.9823938  52.1185547  89.6837933   2.6210573
  50.7701139  90.3291698   2.8599668  45.4180568  96.6294382  -5.3386628
  46.3207815  96.6617992  -5.0220133  45.1917938  95.6994833  -5.3240292
  47.1734170  95.3825369  -8.6776550  46.2229801  95.3827230  -8.7912177
  47.4766656  94.6358103  -9.1940515  43.0638487  79.5884051   1.5806812
  43.9269948  79.2320856   1.7910136  42.4903897  79.2497946   2.2682216
  59.3531509  98.7318900  -0.1521745  58.5764843  99.2912820  -0.1618880
  59.9922072  99.2175683   0.3693125  57.6077881 101.5404353  -0.5903778
  58.3492565 102.0789397  -0.8668954  56.9014866 102.1670642  -0.4332226
  62.5863736  96.2810469  -2.9616886  62.3424668  97.0352529  -3.4982610
  62.8623666  96.6595817  -2.1269639  56.3439245  98.6944002   0.2111532
  55.7137905  99.3760282   0.4446929  56.2375333  98.5827083  -0.7335329
  49.9221920  98.6146288  -6.4307553  50.1729959  99.4993298  -6.1649977
  50.4581468  98.4350890  -7.2032461  55.6219987  92.9964767   2.5736783
  55.2286933  92.4430966   3.2484428  56.4386128  93.3075346   2.9643301
  58.5387948  94.4122646   0.1657040  59.2797662  95.0129800   0.0861502
  58.7705871  93.6700284  -0.3924917  53.6829286  99.5979014  -1.5564730
  53.5682802  98.6964271  -1.2557631  52.8273804  99.8442710  -1.9079914
  62.4845111  90.4403749  -5.5578678  62.1409381  91.3305391  -5.6339568
  62.8524074  90.2505407  -6.4209093  54.4613833  97.5684599  -4.6261324
  55.1336887  97.3601961  -5.2748676  53.6343620  97.3706685  -5.0656092
  60.3639405  94.1946540  -2.6095664  59.7167320  94.8936490  -2.7031187
  61.1340421  94.6282684  -2.2419415  54.8641330 100.8427202  -3.8658887
  54.7261128 100.1107441  -3.2647348  55.7746254 100.7536102  -4.1474700
  56.2052565  97.5412379  -2.5579568  55.6689922  97.0903118  -1.9057972
  55.6169274  97.6758288  -3.3009104  51.9391686  96.6768387  -5.4726574
  51.8549875  96.0694057  -6.2076164  51.1174393  97.1677405  -5.4717077
  60.3728426 101.0601247   1.0288911  59.6969063 100.9595376   1.6991287
  61.1956060 100.9040461   1.4924909  54.0915703  94.7143324  -4.1331588
  54.1557029  95.5758155  -4.5454190  54.0282823  94.1017326  -4.8659229
  53.5667975  96.7866457  -0.4858554  54.1940014  96.4043534   0.1278971
  52.7095894  96.5680659  -0.1202861  56.6754078  94.0053309  -2.2971998
  57.1988480  94.2515606  -1.5345689  56.4566412  94.8373344  -2.7168861
  57.8806623  94.9467004  -4.6122328  57.5403444  94.1474817  -4.2101648
  57.1745630  95.2468715  -5.1845495  58.5323095  92.0316317  -6.1595005
  59.3549165  91.5576795  -6.2816115  58.7761159  92.8106800  -5.6596319
  50.5307336 101.2640782  -5.4115365  49.9860804 102.0400590  -5.2795091
  51.4086686 101.6111586  -5.5696244  51.3173358 100.3910678  -2.5185208
  50.5755094 100.5393313  -1.9320578  50.9966102 100.6518943  -3.3818459
  56.8036032  96.1084363   1.1755366  56.8524188  96.9846486   0.7933136
  57.3458547  95.5661756   0.6027009  59.0335321  96.8615735  -2.0698275
  58.1638630  97.1549301  -2.3415687  59.2694801  97.4456180  -1.3491012
  61.7374355  93.0795352  -4.5532855  62.2556299  93.8156379  -4.8786366
  61.3829487  93.3859345  -3.7186096  60.0605908 104.0633187   1.3309777
  60.9808918 104.2411786   1.5249824  60.0255491 103.1189233   1.1789477
  57.9295846  97.5467428   3.3635307  57.8292573  98.4961785   3.2947399
  57.7117388  97.2185667   2.4911378  57.7927116 100.9764567   2.1800369
  57.3094198 101.7764927   2.3864258  57.8788055 100.9872512   1.2267813
  49.5634750  97.7708351  -2.5168202  50.2093614  97.2607305  -2.0280977
  49.3551901  98.5077033  -1.9424777  62.0888142 104.8389199   2.9823938
  62.9579302 105.0129851   2.6210573  61.6094894 105.6583616   2.8599668
  53.9032241  94.9175968   1.5806812  54.7663703  94.5612773   1.7910136
  53.3297652  94.5789863   2.2682216  59.3531510  75.7381023 -13.4276438
  58.5764844  76.2974943 -13.4373573  59.9922073  76.2237806 -12.9061568
  57.6077882  78.5466476 -13.8658471  58.3492567  79.0851520 -14.1423647
  56.9014868  79.1732765 -13.7086919  60.3728428  78.0663370 -12.2465782
  59.6969065  77.9657499 -11.5763407  61.1956062  77.9102583 -11.7829785
  60.0605910  81.0695310 -11.9444916  60.9808919  81.2473909 -11.7504869
  60.0255493  80.1251355 -12.0965217  57.9295847  74.5529550  -9.9119386
  57.8292574  75.5023907  -9.9807295  57.7117390  74.2247789 -10.7843316
  57.7927118  77.9826689 -11.0954324  57.3094199  78.7827049 -10.8890435
  57.8788057  77.9934634 -12.0486880  62.0888144  81.8451321 -10.2930755
  62.9579303  82.0191974 -10.6544120  61.6094895  82.6645738 -10.4155026
 141.6139696 141.6139696 141.6139696 109.4712190 109.4712190 109.4712190
