
46040  0.0000000e+00
  38.0792546  47.9287004  72.5245094  38.1488013  48.2899237  71.5838814
  38.8211107  47.2929955  72.7806902  38.1690049  48.7263060  73.1375933
  36.7074180  47.3682785  72.7388906  36.6539264  47.0694160  73.7857580
  35.6798053  48.4641123  72.5126457  34.6460819  48.1247568  72.4466658
  35.8932161  49.7005463  73.4796858  36.7339373  50.2991724  73.1290579
  35.0573087  50.3768158  73.3007574  35.9938049  49.4169855  74.5273447
  35.8390212  48.9314032  71.1975861  35.1803684  49.5751715  70.9267664
  36.3932157  46.1261034  71.8820763  36.9254851  45.9392548  70.8044100
  35.4003453  45.3275108  72.3439789  34.8733234  45.6348753  73.1488848
  35.1316667  44.0747738  71.6700459  36.0765743  43.5985136  71.4084625
  34.1744733  43.1435680  72.5743103  33.2560205  43.7228918  72.6688051
  34.0661192  42.1995497  72.0402765  34.6025276  42.9182434  74.0367794
  35.8175468  42.9717159  74.3008757  33.7773180  42.7182102  74.9903584
  34.1351509  42.5770330  75.9242344  32.7823925  42.8208780  74.8500919
  34.4636226  44.1621923  70.2892542  34.6052957  43.1770039  69.5406103
  33.7915921  45.2574444  69.9901009  33.7356281  45.9457350  70.7271385
  33.3157897  45.5705929  68.5927010  32.8010726  44.7313786  68.1248426
  32.3895836  46.7088890  68.7077284  32.7295375  47.6615238  69.1139603
  32.0018077  46.8738079  67.7024746  31.1593628  46.2435198  69.5482969
  30.2767611  46.8593359  69.3754292  30.8175731  45.2509212  69.2549801
  31.4558649  46.3696003  71.0806131  32.1990943  47.1801043  71.5648699
  30.9499979  45.4164028  71.8530989  31.0434031  45.4811525  72.8566837
  30.3424716  44.7098207  71.4635468  34.4449949  45.9185457  67.6125813
  34.4378090  45.4032040  66.4908981  35.4508567  46.6535521  68.0832481
  35.4255366  46.9405222  69.0512896  36.6303420  46.9290209  67.3116112
  36.2346768  47.0995474  66.3103771  37.4583006  48.1155491  67.7695465
  37.4434328  48.1964684  68.8564396  38.4775591  48.0390120  67.3909330
  36.8047094  49.4559431  67.2399807  35.7217669  49.4991636  67.3560381
  37.5039148  50.6172657  68.0282068  38.5660934  50.4112244  68.1602049
  37.3977494  51.5273333  67.4377775  36.9715428  50.7886505  68.9637899
  37.0182443  49.7675991  65.7845449  36.6567278  49.0640068  65.0346375
  36.6084027  50.7423258  65.5199146  38.0621099  49.8566532  65.4836750
  37.5016975  45.6513023  67.0127201  37.9537702  45.4346752  65.9064102
  37.5775433  44.7345877  67.9764795  37.0899272  45.0120163  68.8163376
  38.1968021  43.4332180  67.8718138  39.2422104  43.4398127  67.5632954
  38.0427098  42.8030109  69.2868662  38.5349536  43.4383059  70.0232077
  37.0026040  42.7298880  69.6045637  38.6649227  41.4378309  69.3641949
  38.2517362  40.9731436  70.2594280  38.3354688  40.8948994  68.4783125
  40.1992035  41.3937759  69.4555044  40.9610081  42.3050547  69.0644026
  40.7211018  40.3063726  69.8879623  41.7282057  40.2402210  69.9263239
  40.1692009  39.4815087  70.0753546  37.4075437  42.6247072  66.7641544
  37.9751348  42.1106339  65.8432055  36.1124134  42.4965668  66.9603682
  35.7867122  42.9957533  67.7757406  35.2369356  41.7367077  66.1598396
  35.4277539  40.6716871  66.2918520  33.7852693  41.8966961  66.5965462
  33.6830497  41.4962101  67.6051378  33.4667063  42.9335356  66.7041731
  32.7319098  41.1724281  65.7807970  32.5161743  39.7732520  65.9814167
  33.2195759  39.1983652  66.5654802  31.5501904  39.1311288  65.2221918
  31.4637446  38.0568147  65.2913523  30.6630611  39.8613667  64.4108677
  29.6142817  39.2058063  63.8223886  28.9735246  39.8253536  63.4657431
  30.6732202  41.2490797  64.4459772  29.8931980  41.8303919  63.9768934
  31.7727923  41.8457937  65.0520802  31.9934368  42.8978395  64.9475956
  35.1015735  42.1472740  64.6785021  35.0370169  41.2399817  63.8890171
  35.0973010  43.4642315  64.3824005  35.0925398  44.1470909  65.1265621
  35.1964068  44.0652943  63.0297565  34.3082786  43.8810968  62.4252701
  35.3289080  45.5937719  63.2053947  35.7171488  45.7778692  64.2071295
  36.1597180  45.9309244  62.5855684  34.0080261  46.3430500  63.0835581
  33.1675529  45.7776260  63.4860468  33.9802551  47.6537657  63.8131809
  32.9190707  47.8916025  63.8868284  34.4341278  47.5375938  64.7973585
  34.5551634  48.4517765  63.3433390  33.7476897  46.5695620  61.5851450
  34.5863223  47.1730328  61.2378359  33.6499238  45.6832314  60.9582758
  32.8147030  47.1130943  61.4361143  36.3947964  43.5092735  62.2911024
  36.2932038  43.1270409  61.1411190  37.5025868  43.4049892  62.9970884
  37.4758315  43.5907936  63.9894867  38.8672924  42.9140091  62.5135851
  38.8847423  43.2570267  61.4791107  40.0261593  43.4867287  63.3288908
  39.9822545  44.5675945  63.1950855  39.9159622  43.1857443  64.3706989
  41.3854980  42.9731321  62.7099037  41.5225744  41.8946409  62.7884007
  41.4152050  43.3042860  61.2079477  41.0273218  44.3027353  61.0060930
  42.4668217  43.2320786  60.9304762  40.9089518  42.5380325  60.6208658
  42.4241781  43.7904882  63.4877062  42.2673512  43.6876726  64.5614529
  43.4037685  43.4175014  63.1887341  42.3460579  44.8256683  63.1554317
  38.8340545  41.3753462  62.4281931  38.9813018  40.8364296  61.2988758
  38.7241983  40.6578064  63.5808468  38.5492158  41.1961365  64.4173193
  38.9318299  39.2630816  63.8442850  39.8652697  38.8915753  63.4214687
  39.0398288  39.0928268  65.4173231  38.0215096  39.2948890  65.7494402
  39.3464494  38.0601692  65.5837727  40.1478720  39.9049568  66.1312771
  40.2028084  40.9007072  65.6913185  39.9424672  39.8675489  67.2010899
  41.4926672  39.4310880  65.6515884  41.5450191  38.3442283  65.7155561
  41.7855501  39.7214365  64.6426153  42.5463533  40.1024771  66.4413977
  42.8650427  40.9773397  66.0500383  43.1379986  39.6604824  67.5050163
  42.9015684  38.5615945  68.1426477  42.0805120  38.0435276  67.8641319
  43.3645821  38.4374142  69.0316343  44.1388893  40.4113340  67.8239393
  44.4177628  41.2443542  67.3255301  44.6199989  40.1368427  68.6685038
  37.7906632  38.4289885  63.1796122  37.9390264  37.2286510  62.9267836
  36.6485953  39.0862679  62.9674768  36.5512609  40.0114775  63.3606911
  35.5270600  38.4617448  62.3273373  35.7451606  37.4322104  62.0434380
  34.2784429  38.1103921  63.2675648  33.8567686  39.0669608  63.5762215
  33.2214069  37.3540473  62.4644327  32.9455137  37.9014277  61.5631247
  33.6656857  36.3961959  62.1937943  32.3364711  37.2986054  63.0984020
  34.6804547  37.4679899  64.5755434  33.8442755  37.2088909  65.2249813
  35.1943040  36.5314388  64.3589020  35.4793406  38.0357957  65.0524950
  35.0284910  39.1518378  61.0849714  35.2611279  38.5108733  60.0272989
  34.5945668  40.3911018  61.0662651  34.4916821  40.8656883  61.9518661
  33.7303233  40.8481741  59.9370337  33.0753207  40.0159454  59.6792173
  33.0333471  42.1867609  60.3110790  33.7808752  42.9794884  60.3410292
  32.0153284  42.7431726  59.2615700  32.4385786  42.6021051  58.2670546
  31.0243654  42.3074341  59.1341972  31.8362141  43.7966204  59.4766521
  32.3032570  41.9685888  61.6513586  32.9228759  42.1884489  62.5207424
  31.4914107  42.6954937  61.6761589  31.8092632  40.9984350  61.7050171
  34.6157217  41.0813761  58.7139511  34.3054581  40.6257343  57.6121759
  35.7611084  41.6996861  58.9054823  35.9619451  41.9879580  59.8524046
  36.8568492  41.9336557  57.9074383  36.3967323  42.4360991  57.0565844
  38.0261683  42.8320312  58.4656000  37.5740314  43.5824823  59.1140509
  38.6966801  42.2039795  59.0521717  38.9783716  43.4473324  57.4258184
  39.7628927  43.9738274  57.9693556  39.6730494  42.4210739  56.5930700
  40.0253010  41.5404797  57.1302652  39.0710640  42.1531153  55.7247925
  40.5398798  42.9442501  56.1893559  38.3678031  44.5357609  56.5502501
  37.8319144  45.2234125  57.2045088  39.0718007  45.0939751  55.9330893
  37.7260685  44.0622854  55.8072186  37.3278761  40.6185532  57.3932123
  37.2751641  40.4619932  56.1955118  37.6687932  39.5958495  58.2416582
  37.5770760  39.7472358  59.2360258  38.0811477  38.2018137  57.8621864
  38.9539075  38.2779264  57.2136545  38.4743237  37.4388170  59.1051626
  39.2938232  37.9359293  59.6241999  37.6722383  37.3256278  59.8345137
  38.8490891  35.9784245  58.8942337  38.1111407  35.4618526  58.2804871
  39.8034024  35.9407926  58.3689022  39.1086364  35.2820277  60.1921368
  40.0406313  35.6215644  60.6440163  38.3222079  35.4917789  60.9171438
  39.2118382  33.7946153  60.0698280  38.3088064  33.3626652  59.6384811
  40.0381947  33.4320807  59.4584370  39.2618632  33.2202959  61.4073372
  38.7397599  33.6964631  62.1289873  39.0729237  32.2281551  61.3996315
  40.1869249  33.2342196  61.8125153  36.9698071  37.5688291  56.9998598
  37.2569227  36.9214773  55.9831429  35.6671691  37.5839877  57.3500776
  35.4086709  38.0169559  58.2251930  34.5468688  37.2114396  56.5874767
  34.6445918  36.1481905  56.3682652  33.2149315  37.4871755  57.3196888
  33.1132865  38.5706639  57.3815489  32.0518374  37.0473170  56.5624714
  32.2021317  36.1424232  55.9736776  31.1420631  36.8858385  57.1406889
  31.7993903  37.8641534  55.8863401  33.1467032  36.9993448  58.6651421
  33.7774801  37.5009131  59.1868210  34.5015574  37.8238893  55.1318789
  34.4006801  37.1371102  54.1023827  34.6405244  39.1492701  55.0703669
  34.8539519  39.6052217  55.9459543  34.5611048  39.9874473  53.8880157
  33.6985683  39.6697354  53.3021832  34.3772268  41.4673471  54.2630005
  35.1057673  41.7288828  55.0304127  34.6391273  42.0604420  53.3867884
  32.8927851  41.7879391  54.6031666  32.5495028  41.1971617  55.4524231
  32.8697681  43.2737780  55.0029850  31.8501306  43.4327507  55.3539371
  33.5971594  43.4653234  55.7918501  32.9043698  43.8428879  54.0739965
  31.9322371  41.7160416  53.3986092  30.9567881  41.9052887  53.8467026
  32.1739030  42.4246883  52.6064491  32.0040607  40.7341194  52.9308796
  35.7580018  39.8705459  52.8994370  35.6005454  39.7266936  51.6714668
  36.9755459  39.8243737  53.3949375  37.1172166  40.0374651  54.3719864
  38.1146908  39.5203424  52.5807333  38.1704855  40.2243519  51.7504549
  39.3470359  39.7024393  53.5546446  39.0742493  40.5332661  54.2053509
  39.4576025  38.7479019  54.0691757  40.5932856  40.0664711  52.8508949
  41.3468456  39.1561532  52.1708107  41.1584997  38.0937362  52.2176266
  42.3498774  39.7508049  51.4435577  43.1051207  39.2484903  50.9992743
  42.3351860  41.0994434  51.6977549  43.1622410  42.1663094  51.2683868
  44.0388393  41.8448496  50.7255793  42.8637600  43.4471703  51.6322803
  43.4594965  44.3109655  51.3766241  41.6069746  43.7210751  52.2265673
  41.3855219  44.7689295  52.3657179  40.8075905  42.6792431  52.7107096
  39.8164392  42.8847265  53.0872726  41.1448240  41.3920927  52.4223518
  38.1234217  38.1839275  51.8002653  38.5763788  38.1661582  50.6569195
  37.6402950  37.1252036  52.4490643  37.4976969  37.2888756  53.4354591
  37.5722384  35.7469678  51.8877792  38.5440898  35.5046105  51.4578199
  37.3822618  34.7930741  53.0556059  38.1792212  35.0248575  53.7621641
  36.5295124  35.1415563  53.6382580  37.2606182  33.2464099  52.7622604
  36.3081169  33.0085468  52.2886944  38.0303383  32.9642200  52.0439243
  37.3468423  32.4668336  54.0289354  38.0532002  33.0113101  54.6556044
  36.3757682  32.4237394  54.5221472  37.8975439  31.0524154  53.8146782
  38.8715243  30.9757972  53.3313656  37.9405689  30.6307316  54.8188925
  36.9021368  30.2352428  52.9981279  37.2534442  29.2892957  52.9550219
  36.0231900  30.2509522  53.4954214  36.8163347  30.6568575  52.0843601
  36.4670229  35.5972838  50.8013821  36.5510440  34.6809697  50.0356960
  35.5727863  36.5309954  50.6134605  35.7016969  37.3501062  51.1901236
  34.4083667  36.3813043  49.7595882  33.9597392  35.4487109  50.1018000
  33.4492445  37.5121689  49.9931717  33.4056807  37.7217293  51.0619497
  33.7642455  38.4643173  49.5662165  32.1116495  37.0592690  49.4494772
  31.8293715  37.0547867  48.0958748  30.5326009  36.7318869  48.0536699
  29.9791050  36.7040372  47.1267033  30.0256371  36.4905667  49.2830372
  29.1121721  36.1214662  49.5054007  31.0137582  36.7634773  50.1464558
  31.0262942  36.7044783  51.2247705  34.8399878  36.2764144  48.2106161
  35.7162142  37.0485234  47.7709341  34.1058660  35.5667043  47.3269320
  33.3403182  35.0087357  47.6772261  34.3533039  35.6578112  45.8780336
  35.4034829  35.4816914  45.6452179  33.5092092  34.6446133  45.1279736
  32.5122786  35.0821805  45.1805925  33.6558771  34.4740081  44.0614462
  33.6517024  33.2057047  45.6943560  33.0983186  33.0831933  46.6254091
  33.0483913  32.6416326  44.9830580  35.0223875  32.6157951  45.5510044
  35.9207702  32.8217959  46.3781691  35.1645350  31.8154097  44.5610476
  36.1061382  31.4930058  44.3891764  34.3769836  31.5611029  43.9820910
  34.1287756  36.9899368  45.1342678  34.7600436  37.1984124  44.0839243
  33.2922840  37.9057145  45.6757641  32.7779818  37.6081204  46.4924860
  33.1343937  39.3247604  45.3153133  33.4308982  39.4339013  44.2721128
  31.6662526  39.7416830  45.4364395  31.4188552  39.9013186  46.4859247
  31.5530634  40.7192421  44.9677563  30.6179023  38.8600206  44.9224997
  30.7913685  38.0901265  43.7887716  31.7493343  37.9884624  43.3005428
  29.7690415  37.2777605  43.1914902  30.0394130  36.6479707  42.3568249
  28.5328269  37.3062873  43.8147354  27.7396441  36.7465448  43.3415079
  28.2860041  37.9724383  45.0169897  27.2898841  38.0090880  45.4326868
  29.3208814  38.8190651  45.5032349  29.0410256  39.4752002  46.3141394
  34.1213870  40.3178740  46.0273075  34.0481877  41.5397310  45.8729935
  35.1461363  39.8340082  46.8027353  35.3537321  38.8478541  46.8698835
  36.1291265  40.7193518  47.4402857  35.5362892  41.3423061  48.1100416
  36.9984889  39.8837113  48.4081936  37.7849388  40.5244732  48.8069677
  36.4431572  39.4989371  49.2635632  37.4794340  39.0854836  47.8428411
  36.8816447  41.5718794  46.4481497  37.2688293  42.7080345  46.7668581
  37.3395658  41.0075092  45.3369045  36.8996692  40.1408625  45.0621080
  38.4077525  41.4656448  44.5152903  39.2603898  41.4791107  45.1942062
  38.6464667  40.4316092  43.3881569  39.6324062  40.6910372  43.0025101
  38.6978436  39.4512939  43.8619041  37.6854134  40.3620815  42.2466469
  36.6493320  39.5604324  42.2197056  36.5140176  38.8692594  43.0384636
  35.9201860  39.7627854  41.0756731  35.2212310  39.1039872  40.7633448
  36.4538360  40.7634926  40.3008938  35.9445167  41.3626194  39.0699792
  35.1046348  40.9916067  38.5013437  36.7790937  42.3453569  38.4770536
  36.5389466  42.8033733  37.5289202  37.9673052  42.8024626  39.1086054
  38.6231947  43.5536242  38.6939120  38.3329749  42.2368240  40.3429270
  39.2820406  42.4348402  40.8188057  37.6059508  41.1681366  41.0127354
  38.3708405  42.8865814  43.8989115  39.4445777  43.4427118  43.7535238
  37.2208142  43.5840845  43.7457752  35.9503031  42.9717207  43.4371805
  35.3212523  43.0195618  44.3260622  35.9514880  41.9252539  43.1322002
  35.3898978  43.8379002  42.3553562  34.3091226  43.6978674  42.3350000
  35.9083390  43.7102413  41.4050817  35.7520247  45.1801872  42.9065514
  35.0882745  45.2794123  43.7654400  35.4782438  45.9272194  42.1615124
  37.1812868  44.9998856  43.4082651  37.9225540  45.2803516  42.6599598
  37.3396015  45.8786774  44.6012831  37.6246953  47.0964622  44.4077444
  37.2943544  45.3426600  45.8110237  37.3374009  44.3423414  45.9436989
  37.2908282  46.1250067  47.0663595  37.3532629  47.2078466  46.9583607
  35.9839368  45.9058666  47.8243065  35.9341979  44.8808813  48.1917763
  35.9805202  46.5598536  48.6963081  34.6436429  46.1615705  47.1164417
  33.9132214  45.0386000  46.6520262  34.2879200  44.0584326  46.9075012
  32.9409122  45.3031397  45.7063293  32.4142456  44.3969536  45.4458523
  32.4876666  46.6229057  45.4926300  31.6249847  46.7866373  44.8638439
  33.2371163  47.6756573  46.0279083  33.0522013  48.6699581  45.6489897
  34.2672729  47.4718237  46.9626284  34.8407555  48.2533312  47.4388313
  38.5131955  45.7838392  48.0296612  38.6301565  46.4963436  49.0418863
  39.4590449  44.9287176  47.6394081  39.3165636  44.3313265  46.8375778
  40.7230568  44.7369099  48.4206390  40.4823160  44.6345997  49.4787836
  41.3376379  43.3915520  47.9341221  41.4231920  43.3612061  46.8479061
  42.3166752  43.2802773  48.4001780  40.5416918  42.1768379  48.4342670
  40.3743029  42.2170591  49.5105839  39.5726299  42.1019077  47.9408932
  41.2959099  40.8282804  48.1298256  42.3723078  40.8388996  47.5463152
  40.8364058  39.6712732  48.5268021  41.2060690  38.8119221  48.1460571
  40.0760460  39.5563793  49.1815948  41.8426752  45.7957363  48.2978153
  42.8668165  45.7243013  48.9829969  41.6211891  46.8642950  47.5071573
  40.7300901  47.0141125  47.0559454  42.5901747  47.9624939  47.1771622
  43.1968594  48.1202078  48.0688763  43.5852909  47.5089598  46.0349560
  44.3983316  48.2160902  45.8705521  43.9906597  46.5813112  46.4389753
  42.9114342  47.3008633  44.6545696  42.2568560  48.1564236  44.4883156
  43.6748695  47.1486712  43.8916063  42.0017481  46.0270119  44.5847225
  42.3166513  44.9455357  45.1046896  40.8717155  46.1074066  43.8244581
  40.5460024  45.2158976  43.4791613  40.5382586  46.9959068  43.4788084
  41.8358850  49.2405987  46.7659426  40.8105421  49.2266941  46.1778927
  42.5391293  50.3851461  47.0016670  43.6466217  50.5935287  47.9898787
  44.5877028  50.3693247  47.4876833  43.5687590  50.0041342  48.9034748
  43.6188459  52.1623802  48.2736588  44.5796680  52.5652742  48.5939598
  42.8178024  52.3412657  48.9909029  43.1429386  52.6601362  46.9281006
  43.9249611  52.6250029  46.1696100  42.7759886  53.6709023  47.1064472
  42.0661116  51.6502571  46.5652132  41.1279964  51.8383884  47.0873690
  41.6578770  51.7410278  45.1079226  42.3435926  51.2791348  44.1690159
  40.5760193  52.5178909  44.8250151  40.1301479  53.0214405  45.5784988
  40.0943422  52.9399252  43.4257698  40.2865839  52.0287371  42.8593063
  38.5635662  53.3344698  43.3321476  38.4091949  54.3036318  43.8064861
  38.0560327  53.4265995  41.9152355  38.8398862  53.8158512  41.2655020
  38.0390644  52.3757935  41.6260719  37.0957708  53.9370394  41.9890738
  37.7664757  52.2074556  44.0528870  36.7045689  52.3521376  43.8540888
  37.9288888  51.1921453  43.6911201  37.9636931  52.2230291  45.1247835
  40.9978819  54.0718794  42.9808140  41.1959314  55.0170565  43.6883736
  41.6278410  53.9059210  41.8325663  41.5131903  53.0027294  41.3953066
  42.5541544  54.7993326  41.1347818  42.6819181  55.6942320  41.7438269
  43.8973188  54.0580559  40.9127283  44.1015482  53.5274839  41.8427229
  43.8246918  53.2288980  40.2089357  45.0425768  55.0499296  40.5705118
  44.8081112  56.1446285  40.0592184  46.1867952  54.6905565  40.9444952
  41.9914532  55.3064871  39.8230219  42.3361444  54.7949219  38.7492418
  40.8607149  56.0919237  39.8643851  40.5663490  56.3916779  40.7828617
  39.9142647  56.4635849  38.7238383  39.3520260  55.5868149  38.4024882
  39.1007924  57.5314188  39.2687750  38.4363866  57.8843689  38.4800434
  38.5174060  57.0036459  40.0232410  39.7681427  58.3003187  39.6580553
  40.6989288  56.8804264  37.4754620  40.2533484  56.5902376  36.3270855
  41.9111156  57.4189472  37.5848484  42.2079849  57.7063608  38.5064578
  42.8001070  57.6580477  36.4145041  42.3847532  58.4474659  35.7880855
  44.1280508  58.1781626  36.7381763  44.5826626  57.4947453  37.4553728
  45.1153183  58.2408190  35.4821467  46.0856962  58.5971594  35.8278275
  45.2053928  57.2578812  35.0197411  44.8149729  58.9945650  34.7542930
  44.0963078  59.6007490  37.4011850  43.7314367  60.3326273  36.6805434
  43.5119867  59.4960022  38.3153510  45.0632763  59.8933983  37.8103781
  43.0291462  56.4228201  35.5206800  42.8872967  56.5356159  34.2974091
  43.2973909  55.2576399  36.1124587  43.3921337  55.1951170  37.1160603
  43.8005114  54.0211916  35.4774547  44.3055153  54.2796278  34.5467114
  44.6821547  53.1668234  36.3570094  44.0956736  52.7693892  37.1853733
  45.1244688  52.3937941  35.7286143  45.9450674  53.8918352  36.9585681
  46.3981867  54.5134115  36.1862826  45.6959867  54.5779467  37.7680826
  46.9247055  52.8822803  37.5722265  46.5313101  52.3204994  38.4194231
  47.0654869  52.1383238  36.7881179  48.1715679  53.6625433  37.9611254
  48.9304829  52.9777098  38.3394861  48.6731005  54.1451883  37.1223044
  47.9542065  54.8490906  38.8288331  47.4138403  55.6028843  38.4289479
  47.5018024  54.5975828  39.6961164  48.8615227  55.2513885  39.0159917
  42.6509523  53.1516027  34.9715734  42.6461124  52.6784229  33.8463855
  41.6143465  53.0161047  35.8008671  41.7829752  53.3565187  36.7367053
  40.2333927  52.5913763  35.4439712  40.1295519  51.5592861  35.1091456
  39.4117236  52.8392363  36.7460799  39.6516705  53.8309050  37.1296477
  38.3438015  52.7714682  36.5385795  39.6135807  51.7324114  37.8694081
  39.9492216  50.8127165  37.3902345  40.6233263  52.0838881  38.9468050
  40.3153563  53.0635166  39.3122983  40.4543447  51.3267756  39.7125244
  41.6434908  51.8952227  38.6124825  38.3265734  51.4286089  38.6747766
  37.4891758  51.1130285  38.0524516  38.4277153  50.6024027  39.3785214
  38.0366325  52.3985624  39.0787840  39.6500564  53.4267330  34.3015814
  38.8832140  53.0326509  33.4864616  40.1966095  54.6244860  34.1020107
  40.8992767  54.8882246  34.7778821  39.9657035  55.5674696  32.9669046
  40.5975628  56.4489603  33.0756569  40.3922415  55.0033665  31.6600752
  41.4125395  54.6202517  31.6778803  39.8050570  54.1359377  31.3585830
  40.4636335  56.0657215  30.5722857  40.8211565  57.2360325  30.7462144
  40.4641485  55.6282139  29.3377233  40.3912115  56.3849068  28.6727428
  40.1369905  54.7132635  29.0621662  38.5718513  56.1191273  33.1015873
  37.6535225  56.0071373  32.1879721  38.2196784  56.6703224  34.2309046
  38.9143443  56.7135239  34.9627995  36.8122625  57.1818113  34.6342945
  36.0849333  56.8951273  33.8747525  36.3946557  56.4718103  35.9028125
  37.0642519  56.7962360  36.6993618  35.3431129  56.6873360  36.0923004
  36.5151334  54.9269104  35.8303380  37.4871373  54.5850182  35.4747820
  36.2911844  54.3420506  37.2190166  36.1271715  53.2644749  37.2243571
  37.2386026  54.5215416  37.7272344  35.4887748  54.8717976  37.7324462
  35.5007148  54.2964983  34.9263787  35.5118227  53.2139015  34.8000431
  34.4771409  54.5294189  35.2198887  35.6639814  54.7472429  33.9474654
  36.8499899  58.7352324  34.8143625  37.3667264  59.1978598  35.8270359
  36.4338851  59.5095634  33.7824726  35.7028604  59.0875053  32.6834607
  34.8972154  58.4770107  33.0912924  36.3031745  58.4876585  31.9994259
  35.0929832  60.3301859  32.0708323  34.2096925  60.6677008  32.6130366
  34.8632693  60.1828480  31.0155487  36.1501336  61.4403963  32.3083305
  35.7404852  62.4490261  32.3626781  36.9196081  61.3641071  31.5400934
  36.6721106  60.9805441  33.5978103  37.7516866  61.1145926  33.6659789
  36.0674238  61.7853498  34.7149253  36.7227340  62.7516556  35.1625562
  34.9860120  61.3444138  35.2589941  34.5234108  60.5796051  34.7887015
  34.1179943  62.1629047  36.1186242  34.4777822  63.1903839  36.1728644
  32.7462626  62.2638178  35.3573632  32.4702120  61.3016605  34.9259210
  31.9527841  62.5275993  36.0565853  32.7968907  63.3342648  34.2569375
  33.8692188  63.9021349  33.9692473  31.7038655  63.7325096  33.8302469
  33.9264822  61.6453457  37.5845218  33.5569477  62.3828745  38.4668708
  34.3476200  60.3786755  37.8494477  34.9117398  59.9367809  37.1376944
  34.2591953  59.6696806  39.1519189  33.2461357  59.3118572  39.3356943
  35.0976562  58.3973455  38.9843440  34.6513486  57.8649902  38.1443977
  36.1022973  58.6897135  38.6788654  35.1127386  57.5214386  40.1966286
  34.2458272  56.3957834  40.2392769  33.5171819  56.2555408  39.4545364
  34.1728854  55.5381966  41.3848591  33.5822725  54.6373653  41.3068867
  34.9437881  55.8749866  42.4933529  35.0492024  55.0025940  43.5571623
  34.3973351  54.2978764  43.5504866  35.7349873  57.0412636  42.4795485
  36.2553120  57.3465347  43.3753538  35.9224296  57.8102493  41.3043737
  36.5233350  58.7070799  41.2726021  34.5414591  60.5214643  40.3562260
  33.6910295  60.6739140  41.1893320  35.7196665  61.2182188  40.4444265
  36.3591456  61.1779070  39.6636915  36.1540222  62.1383047  41.4652872
  35.9213638  61.5707159  42.3662949  37.6952338  62.4132299  41.4632988
  38.0521536  62.8656864  40.5381012  37.7793527  63.0532789  42.3415709
  38.6812329  61.3255262  41.7989922  38.4178996  60.4518652  42.9334927
  37.4594474  60.3678036  43.4241056  39.4383311  59.5712328  43.3273315
  39.2633367  58.8294792  44.0925646  40.6033611  59.4407845  42.5357342
  41.5298796  58.4831762  42.8189564  42.1048641  58.3351564  42.0645809
  40.8657646  60.2727175  41.4424992  41.7878151  60.1415205  40.8956814
  39.8795223  61.1930799  41.0013294  39.9597526  61.7268753  40.0659037
  35.3488135  63.3778048  41.6350460  35.3129840  63.8871098  42.7644014
  34.7920060  63.9706898  40.5823088  34.7223091  63.3757305  39.7691202
  33.7711167  64.9807692  40.7832050  34.0682483  65.6941414  41.5519094
  33.5330725  65.6389856  39.3982029  33.3151460  64.8460340  38.6827755
  32.6461101  66.2660170  39.4889736  34.8337340  66.3774300  38.9139557
  35.0821996  67.1636677  39.6268296  35.7324505  65.7610607  38.9365053
  34.5943737  66.9447947  37.5301695  33.6530352  67.4799061  37.4051118
  35.4112411  67.6378870  37.3290396  34.6345186  65.8069992  36.4893842
  35.6076789  65.3372192  36.6320801  33.8586569  65.0655079  36.6799808
  34.5262694  66.2098837  35.1070094  35.3536439  66.6548204  34.7360921
  34.5506501  65.3618288  34.5590067  33.7532687  66.8310976  34.9155259
  32.4373221  64.4222879  41.2908125  31.7985106  65.0561714  42.0642853
  32.1069026  63.2023430  40.8836603  32.7110314  62.7930737  40.1853561
  30.8139157  62.6121521  41.3927889  30.0371361  63.3767891  41.3855314
  30.2870607  61.5074730  40.4850578  31.1341882  60.8403444  40.3256512
  29.0797710  60.6949568  40.9291172  29.2920470  60.1469374  41.8471098
  28.1823611  61.2973833  41.0699844  28.8225317  60.0137043  40.1180553
  30.0692654  62.1975136  39.0675521  29.0701437  62.6313686  39.0272260
  30.7649684  62.9784536  38.7605834  30.1225591  61.0989523  37.9512978
  30.2151108  61.5368462  36.9574213  30.8558702  60.3461170  38.2404208
  29.1856265  60.5518436  38.0558777  30.9607148  62.1692562  42.8928280
  30.0855374  62.5354242  43.7218809  31.9899035  61.4616013  43.2660532
  32.5670314  61.2256241  42.4714899  32.2749186  60.9163475  44.6253157
  31.3629603  61.0805750  45.1993084  32.6300502  59.4260740  44.4752073
  33.4812069  59.4144583  43.7944031  33.0336666  58.7736177  45.8100271
  33.2531261  57.7170086  45.6566668  33.8815880  59.2725420  46.2792873
  32.2076368  58.8770819  46.5136385  31.4775562  58.6328077  43.8610888
  31.3671970  58.8847303  42.8063631  31.7540479  57.5792837  43.8192987
  30.1940560  58.7388611  44.6315956  30.2810979  58.2874203  45.6198931
  29.8180461  59.7591972  44.7066069  29.4281745  58.2466841  44.0321970
  33.4372115  61.7884445  45.3245163  34.6157646  61.5643883  45.0759649
  33.0234241  62.6397467  46.2171030  32.0431924  62.8822517  46.1959410
  33.9049649  63.3542919  47.1077204  34.5952272  63.9427471  46.5032768
  33.0769444  64.2928123  47.9757595  32.5014615  64.8779345  47.2584343
  32.3786163  63.7336731  48.5984945  33.9123225  65.3111315  48.7848997
  34.4599438  64.7818136  49.5646667  34.6056604  65.8954191  48.1799316
  32.9882693  66.4099884  49.4427395  32.3362732  66.7873621  48.6549664
  32.3865318  66.0095406  50.2586174  33.7587619  67.5347281  50.1414442
  34.4038653  67.1950960  50.9517527  34.4698143  67.8254366  49.3681431
  32.8126240  68.6098146  50.6382895  33.3719826  69.3345356  51.0649014
  32.2831178  69.0292692  49.8874378  32.1638322  68.2463503  51.3217115
  34.7319603  62.4817467  48.0346155  35.8702564  62.8108263  48.3930302
  34.1554570  61.3328552  48.5090876  33.3318186  60.9201956  48.0950451
  34.8180938  60.5141640  49.5397568  35.8449221  60.8328247  49.7191477
  33.9050937  60.5593872  50.8266211  34.3765903  59.8587847  51.5157890
  33.9004254  61.9240808  51.4314556  34.8796821  62.1616745  51.8470287
  33.6302352  62.6867819  50.7011175  33.1155586  61.7879677  52.1754694
  32.6419330  60.0476599  50.5322170  32.8582978  59.3126774  49.9537802
  34.8845506  59.0366936  49.0271807  34.1001153  58.1247902  49.3832397
  35.8970046  58.7317848  48.2035828  36.7848778  59.6788216  47.5755358
  37.5581121  59.9585295  48.2910585  36.3666201  60.6379318  47.2701359
  37.3301744  58.8878775  46.3587379  38.2657027  59.3960094  46.1248922
  36.5409565  58.9242458  45.6078005  37.4499321  57.4203157  46.8718624
  38.4495592  57.2750759  47.2814417  37.2810483  56.6314316  46.1388922
  36.3022900  57.3590660  47.9335928  35.4791236  56.8870497  47.3972225
  36.6317439  56.5433931  49.2039633  37.1658516  57.0616961  50.1554537
  36.3661981  55.2572775  49.2319822  35.9577394  54.9561357  48.3587265
  36.6023898  54.2043829  50.2707386  37.6324725  54.3141842  50.6098270
  35.6873226  54.4504213  51.5056086  35.6157875  55.4902649  51.8245220
  34.6727180  54.1668415  51.2258434  36.0380697  53.5250521  52.7388144
  35.4724288  53.8486862  53.6125517  35.7290292  52.4799871  52.7180290
  37.7922106  53.6426783  53.2321739  37.9424524  55.3760624  53.6870241
  38.9520907  55.5894279  54.0380478  37.7840519  55.9495020  52.7736902
  37.1572638  55.7370424  54.3513107  36.5499520  52.7038670  49.8280239
  35.8223629  52.3552084  48.9071798  37.3363018  51.7955589  50.4379225
  37.9067421  52.1363306  51.1985636  37.5233269  50.4593992  49.8932362
  36.6235900  50.0592327  49.4258547  38.5942245  50.6835508  48.8120413
  38.8691926  49.7419071  48.3368587  38.0112195  51.1932325  48.0449486
  39.8248219  51.5381432  49.3119192  39.8208499  52.7289772  49.0663099
  40.8183956  50.9882927  49.8752069  38.0783796  49.6132660  51.0082102
  38.7230539  50.0869179  51.9941664  37.5742674  48.3610439  51.0320616
  37.1245098  48.0575562  50.1801729  37.9295111  47.3549271  52.0830107
  37.5217128  47.7439260  53.0160093  37.1901512  46.0015249  51.7916632
  36.1408901  46.0833979  52.0752954  37.1755886  45.7409096  50.7333803
  37.7561617  44.8759508  52.5215769  38.6888456  44.6549368  52.0025826
  37.9317760  45.2409887  53.5335064  36.6807032  43.4446669  52.5120783
  36.9796109  42.8298426  50.7664156  36.0098362  42.9503345  50.2835941
  37.7690959  43.2201719  50.1241875  37.0523739  41.7427254  50.7977629
  39.3835402  47.2632456  52.3722315  39.7783399  47.1945429  53.5562181
  40.2100563  47.4295473  51.3280201  39.8073149  47.7788067  50.4701662
  41.6914177  47.5171995  51.4944553  42.1073961  46.5326691  51.7083788
  42.1142673  47.6951742  50.5057049  42.2339725  48.5767460  52.4252892
  43.1666517  48.3691549  53.1615973  41.7215776  49.8269320  52.3615551
  40.9572649  50.0364351  51.7354250  41.8528605  50.8612537  53.3462524
  42.9097319  51.0489082  53.5357523  41.2632990  52.1606112  52.9007244
  40.2630615  51.9081354  52.5487375  41.2827206  53.3186769  53.9285851
  42.3002863  53.4292793  54.3033123  41.1042118  54.2853594  53.4576750
  40.5728197  53.2148361  54.7491598  41.9706154  52.5590563  51.7645645
  41.6016626  52.0863867  51.0148573  41.2777090  50.4932165  54.7052097
  42.0065403  50.5093527  55.6883287  40.0454617  50.0857306  54.8043060
  39.4641638  50.0671482  53.9785671  39.3771291  49.6967697  56.0903454
  39.3892217  50.6113577  56.6832113  37.9285836  49.1715193  55.8988333
  37.9802823  48.2356119  55.3425026  37.2345185  48.9910603  57.2875834
  36.2144041  48.6168718  57.2012806  37.8565335  48.2992077  57.8555202
  37.1806026  49.9672937  57.7694130  37.1597290  50.2597713  55.0733900
  37.2060657  51.2587261  55.5070353  37.5480151  50.3197479  54.0566635
  35.6870317  49.9605846  54.8261642  35.3660703  50.6236315  54.0227556
  35.5413175  48.9403486  54.4712210  35.0670743  50.0985098  55.7120180
  40.2312803  48.6394024  56.8269157  40.6260204  48.8784885  57.9565763
  40.6511402  47.5619173  56.1423206  40.3107214  47.4156046  55.2027416
  41.6303682  46.5785217  56.7197943  41.0135365  46.0220909  57.4254942
  42.1495771  45.6099701  55.6123161  41.4204550  44.9270296  55.1763439
  42.5030184  46.2355614  54.7926664  43.2727432  44.6074343  56.0369349
  44.0471458  45.1582575  56.5707827  42.8702116  43.9331245  56.7928362
  43.7721872  43.7472534  54.9275732  42.8808022  43.2972240  54.4905329
  44.2346764  44.3763781  54.1670465  44.7798967  42.6933146  55.3448009
  44.1898251  42.0261860  55.9731770  45.1315069  42.2319317  54.4219828
  46.0571098  43.1937504  55.9546566  46.8261528  42.5522089  56.0854197
  46.4699697  43.9325523  55.4034615  45.8618832  43.6445045  56.8371582
  42.8394938  47.1956778  57.4134970  43.2251120  46.8847227  58.5542345
  43.4413242  48.1852388  56.6971636  43.0996561  48.2348776  55.7480001
  44.6743488  48.9200926  57.0847416  45.4784775  48.2908916  57.4662924
  45.1874399  49.6905947  55.7525635  45.8548498  48.9638996  55.2893305
  44.3341589  49.8878956  55.1036549  46.1470032  50.8414412  56.0007858
  45.4603481  51.6836834  56.0858631  46.7593622  50.6675005  56.8855762
  47.1146345  51.0917854  54.8151541  47.6881456  50.1764870  54.6688223
  46.5712833  51.3575602  53.9083767  48.0435324  52.2655725  55.0968504
  47.3557758  53.1101274  55.1394653  48.4498453  52.0414734  56.0831547
  49.1182041  52.5077391  54.0832996  49.7138119  51.7005110  53.9660931
  48.6764574  52.8371763  53.2368803  49.6979046  53.2087898  54.5221376
  44.2765760  49.7939110  58.2136869  45.0562334  49.8287964  59.1257429
  43.1554604  50.4940987  58.2257366  42.7103567  50.5511856  57.3209000
  42.6575661  51.3383389  59.3358517  43.3803654  52.1082830  59.6057510
  41.3849258  52.1281624  58.9020157  40.6201839  51.4585495  58.5084438
  40.9380388  52.5640249  59.7955608  41.6751862  53.2450533  57.9006433
  42.4472237  53.9377594  58.2356262  42.0124388  52.8524446  56.9413614
  40.4837179  54.1752672  57.4841452  39.9019408  53.6537743  56.7240906
  39.8207307  54.3950701  58.3209515  40.9507561  55.4218006  56.8486118
  41.9098473  55.5556107  56.5616512  40.2487659  56.4907122  56.6016388
  38.9454746  56.5561628  56.8832493  38.3421016  55.7645512  57.0546961
  38.6481071  57.5212526  56.8667459  40.8002329  57.5471449  56.0247326
  41.7175150  57.4271822  55.6193972  40.1855516  58.2335043  55.6109905
  42.4094915  50.5543566  60.6754732  42.7748585  50.9591198  61.7712069
  41.9421244  49.3181038  60.5788231  41.6842842  48.9880848  59.6597433
  41.6081429  48.4590721  61.6835976  41.1816502  49.1251135  62.4336624
  40.7555389  47.2028780  61.2921429  41.0803223  46.8312550  60.3202820
  40.9296417  46.4308262  62.0416260  39.2563391  47.5248861  61.2668848
  39.1139746  48.3494234  60.5683279  38.4485459  46.4507914  60.6325436
  38.9155507  46.2139511  59.6765566  38.4595442  45.5230665  61.2046528
  37.3913932  46.7125082  60.5874681  38.6600327  47.8771734  62.6468086
  39.2947197  48.5619926  63.2092142  37.6986361  48.3460903  62.4371910
  38.4745073  46.9804192  63.2380009  42.9623556  48.0314541  62.3079395
  43.0303097  47.9851198  63.5392857  43.9788151  47.6910925  61.4462852
  43.8881350  47.7172232  60.4407072  45.2583313  47.1309566  61.8850327
  45.0770617  46.4473152  62.7144241  45.8274508  46.1875439  60.8493376
  45.8356285  46.7362118  59.9075317  46.8374729  45.9069729  61.1480522
  45.0866604  44.8456573  60.6221676  45.3434420  44.2231798  61.4793062
  44.0445709  45.1642132  60.5963993  45.3725243  44.0734816  59.3745804
  44.9286079  42.9320669  59.3275166  46.0309839  44.6687126  58.4210873
  46.2583733  48.2246017  62.3478127  46.8672943  48.0055428  63.3608627
  46.2437057  49.3832588  61.7487574  45.5418587  49.5012760  61.0321093
  46.9680023  50.5712557  62.2119713  47.8474903  50.1226377  62.6738644
  47.3507738  51.5896082  61.0410404  46.5288877  52.1607161  60.6092548
  48.0061674  52.3376465  61.4871407  48.0818462  50.9621620  59.9064016
  48.7106180  49.9301529  59.9608660  48.2508183  51.5210438  58.7381840
  48.9329910  51.0418749  58.1679726  48.1901169  52.5272751  58.6756468
  46.3259363  51.3010740  63.4554338  46.8543577  52.3306131  63.8792896
  45.1892662  50.7635641  63.9220333  44.8363781  49.9749660  63.3988857
  44.3308973  51.3477278  64.9996376  43.3771610  50.8202410  64.9842596
  44.8410702  50.8164406  66.3809299  44.0758514  51.0304356  67.1270800
  44.9845171  49.7373056  66.3263321  46.2603617  51.3097334  66.7330503
  47.1259928  50.5447674  67.0870876  46.4938593  52.5910616  66.7324734
  47.4036884  52.9229450  67.0191193  45.7444715  53.2670021  66.6921949
  43.9340830  52.8746271  64.8021936  43.8405561  53.7181902  65.7082224
  43.4559727  53.1790924  63.5243368  43.3505917  52.4326086  62.8522062
  42.9904079  54.4285202  63.0354977  43.8102245  55.1292706  63.1934738
  42.6422167  54.3593168  61.5424252  43.4689903  53.9254045  60.9800434
  41.9735575  53.5055542  61.4324760  42.1429920  55.5900240  60.8595800
  43.1798792  56.4539719  60.2869081  44.2013550  56.1443567  60.4516077
  42.7486277  57.5801992  59.6076632  43.4386873  58.2738638  59.1504335
  41.3885832  57.8968191  59.4884586  41.0148144  58.9575291  58.7153292
  41.6996813  59.3419266  58.1632376  40.4115438  57.0567274  60.0741148
  39.3555784  57.2725964  60.0052547  40.8037043  55.8974934  60.7931995
  40.0503826  55.2250957  61.1763287  41.7192030  54.9312925  63.7885189
  41.7743397  56.0939932  64.1649580  40.6961393  54.1411066  63.9653826
  40.8871078  53.1493568  63.9569998  39.4266009  54.5605135  64.4586229
  39.1657090  55.5125523  63.9963818  38.3528423  53.5169125  64.0859795
  38.5451460  52.6251125  64.6824741  37.3626494  53.8328505  64.4143248
  38.2839799  53.0741739  62.6277208  37.9100800  54.0495682  61.6889381
  37.6283979  55.0177765  62.0757580  37.9532337  53.8223124  60.3548241
  37.7881122  54.5762968  59.5994186  38.2500577  52.5036240  59.9085951
  38.2315540  52.2122478  58.5544300  37.8729010  52.9612446  58.0727911
  38.6848640  51.5278006  60.8343029  39.0670538  50.5717087  60.5083895
  38.8145971  51.8639421  62.1892691  39.2213035  51.1787081  62.9182768
  39.3813396  54.6532249  65.9997129  39.9130392  53.7790871  66.7433214
  38.5596752  55.5446243  66.5435314  38.1142735  56.1552191  65.8735371
  38.3865166  55.7381535  67.9889011  39.2325497  55.2902222  68.5101366
  38.4773707  57.2801208  68.2375526  39.3801689  57.6823473  67.7779055
  37.6575255  57.7737904  67.7157831  38.6401749  57.6364374  69.6663523
  37.7938890  58.1859446  70.5193853  36.7779565  58.4484339  70.2636862
  38.2363009  58.6633062  71.7238045  37.6937556  59.0166283  72.4989891
  39.5598340  58.3108139  71.7465162  40.5456161  58.6622429  72.6432562
  40.3105974  59.2360020  73.5275412  41.8730974  58.1459713  72.4822378
  42.6176691  58.2671881  73.2551003  42.1368313  57.3665857  71.4141560
  43.0994463  56.8846846  71.3272142  41.1810303  57.0907402  70.3932047
  41.3809156  56.5158224  69.5010662  39.8283529  57.6139975  70.5079126
  37.1566558  55.1069164  68.5465097  36.9919920  54.9083376  69.7322226
  36.2563992  54.5396471  67.6443958  36.3649893  54.6873236  66.6511679
  34.9976015  53.8210917  67.9567194  35.2676725  53.1540394  68.7753820
  33.9782071  54.9133492  68.4891796  34.3947458  55.3431129  69.4001675
  33.7649369  55.6621027  67.7263021  32.6565003  54.2334366  68.8282013
  31.7994499  54.0802097  67.9658890  32.5234199  53.6960030  70.0178909
  31.8001390  53.0034876  70.1497459  33.3064079  53.7776184  70.6506443
  34.5326042  52.9255676  66.7417717  34.8727655  53.2542562  65.6119347
  33.7075734  51.9490957  67.0416212  33.6082888  51.6864204  68.0117941
  33.1669903  51.0489464  66.0610294  34.0698123  50.6884766  65.5680084
  32.5303626  49.9409628  66.9926643  31.5732598  50.3232861  67.3474741
  32.1914124  49.1148949  66.3675070  33.0481672  49.6548605  67.9081583
  32.2493672  51.5871668  64.9665308  32.2897196  51.1542273  63.7804031
  31.4487982  52.5906420  65.3659439  31.4209676  52.9487276  66.3099241
  30.6968141  53.5329151  64.4135284  29.9196672  52.9343796  63.9382458
  29.9855113  54.5272255  65.2260876  30.6588745  55.2319145  65.7140350
  29.3744087  55.1981783  64.6223688  29.0366626  53.9159060  66.2568665
  28.2412767  53.2836199  65.8623123  29.6045160  53.2577515  66.9144964
  28.3540344  54.9325848  67.1910191  27.1220970  54.8282433  67.3634863
  28.9778638  55.9945583  67.7251244  28.4813905  56.6338491  68.3292150
  29.9603105  56.1990404  67.6107216  31.5329146  54.1596270  63.3718109
  31.0964870  54.2569494  62.2169638  32.7452612  54.5754766  63.6845970
  33.1944919  54.4480038  64.5801640  33.6874509  55.1041174  62.7100992
  33.2049227  55.8879232  62.1262217  34.9060965  55.7254457  63.4552097
  35.4409790  54.9713421  64.0325546  35.5651832  56.0273600  62.6412344
  34.4492126  56.8015957  64.4418669  33.8214922  57.5508499  63.9594936
  33.9201546  56.2806892  65.2398968  35.6543422  57.5445271  64.9998856
  36.8567467  57.1502542  64.8335648  35.4857135  58.6218786  65.5570555
  34.0797687  54.1758680  61.6001892  33.9664841  54.5238113  60.3985596
  34.4356394  52.9013014  61.8782854  34.5273042  52.6512766  62.8525496
  34.8238039  51.8822670  60.8429956  35.5701923  52.3184633  60.1791143
  35.3814268  50.7518911  61.6633654  36.1805916  51.1124468  62.3110056
  34.4881797  50.5165768  62.2420168  35.9650135  49.4185638  60.5272388
  36.8015504  50.2262783  59.8694372  33.5746050  51.3419628  60.0590992
  33.7012434  51.1824226  58.8355350  32.3848772  51.2510633  60.6294155
  32.3439002  51.4685535  61.6148710  31.0770416  51.0151815  60.0434160
  31.1859012  50.0420856  59.5645332  29.9548244  50.8563089  61.1206722
  29.9251580  51.7943525  61.6750145  28.6271262  50.7782745  60.4485130
  27.7656603  50.5648136  61.0812902  28.4425998  51.6830015  59.8692703
  28.7580228  49.9633360  59.7365856  30.0635314  49.5641422  62.0687628
  29.6420312  48.7447500  61.4864969  31.1371732  49.4478226  62.2166681
  29.3547082  49.5836639  63.4599447  29.6427941  50.5368710  63.9032364
  28.2768607  49.6689177  63.3218241  29.5619822  48.7557554  64.1379547
  30.7558942  52.0644522  58.9675808  30.4900432  51.7378664  57.8411436
  30.9055519  53.3269262  59.3510532  31.1617637  53.5367632  60.3052139
  30.7466531  54.4553232  58.4506369  29.6957374  54.4173288  58.1638670
  31.0116220  55.7192087  59.2316198  30.4910493  55.6531620  60.1869965
  32.0821261  55.8192778  59.4108009  30.5974698  56.9722652  58.5738754
  30.9939098  57.0044708  57.5590324  29.5145750  57.0648527  58.6567593
  31.0769439  58.1747007  59.3189287  31.6205859  58.1022549  60.3979588
  30.9110188  59.3612432  58.7467289  31.1638021  60.2067947  59.2378998
  30.3831291  59.4725561  57.8928900  31.6827536  54.3750525  57.2131205
  31.2141156  54.5277691  56.0926819  32.9480505  54.0450191  57.4109793
  33.2786560  54.0827131  58.3645916  33.7867475  53.6547136  56.2591600
  33.7649775  54.4702530  55.5363035  35.1863241  53.4077072  56.6674566
  35.2551770  52.7369595  57.5238800  35.7545638  52.8954792  55.8910322
  36.0233855  54.6686792  57.0407820  35.4941654  55.8068037  56.9380522
  37.2459292  54.5306301  57.2267485  33.2546496  52.4122381  55.4399443
  33.2487011  52.5724173  54.2002630  32.8242064  51.2699747  55.9881926
  32.7087641  51.2262678  56.9906235  32.1855164  50.1990032  55.1677752
  32.8757548  49.8547983  54.3975830  31.8775892  48.9494133  56.0728121
  31.5415978  49.3888855  57.0120001  31.0191655  48.3438540  55.7821035
  33.0523634  47.9364872  56.3359499  33.6119866  47.1462870  55.3563643
  33.1593347  47.2521687  54.3815327  34.5557880  46.1608934  55.6387329
  34.9407864  45.5612135  54.8272133  35.0222397  45.9050131  56.9296169
  35.7114244  45.0872469  57.0802402  34.3935919  46.6967869  57.9429865
  34.7000337  46.4815187  58.9559746  33.5126781  47.7181053  57.6656771
  33.1200576  48.3177710  58.4735441  30.8884954  50.7104254  54.3892956
  30.6795239  50.4344702  53.1907272  30.1059556  51.4181900  55.1489067
  30.4573441  51.6168499  56.0747337  28.8313794  52.0408201  54.7052956
  28.2048798  51.2718153  54.2533827  28.0274343  52.4978590  55.9247017
  27.6752377  51.6435337  56.5027857  28.6493659  53.0669212  56.6156912
  26.7954803  53.3082724  55.5308342  26.8586516  54.5509577  55.5119705
  25.7025003  52.7333164  55.0336742  24.8799944  53.3186960  55.0034428
  25.6733489  51.7291594  55.1381779  29.0224695  53.0428648  53.5191870
  28.2197499  53.1235695  52.5816298  30.1709032  53.8123226  53.5453606
  30.5951786  53.9383602  54.4532204  30.7193351  54.6777105  52.4887228
  29.9493456  55.4038620  52.2281027  31.9253087  55.4302597  53.0374146
  32.6988244  54.7387362  53.3714342  32.5382400  56.4223766  52.0868778
  33.0326128  56.0177040  51.2037325  31.8083692  57.1561670  51.7449093
  33.2163978  57.0164490  52.6994801  31.5674233  56.1736155  54.1718626
  31.4144897  55.4929352  54.8313236  31.1905479  53.9317465  51.2837887
  30.9172654  54.3116665  50.0771475  32.0473695  52.9136467  51.4501333
  32.3782825  52.7125740  52.3829603  32.4442124  51.9895315  50.3635168
  33.0978012  52.5405025  49.6872330  33.2138872  50.8151388  50.8722639
  34.1708159  51.1667347  51.2579823  32.7983165  50.2891016  51.7317295
  33.6241293  49.7875404  49.8696041  32.6693010  49.4370842  49.4777060
  34.1689754  50.2649736  49.0551710  34.5602965  48.3980513  50.4986477
  33.5234070  47.7714968  51.7991877  33.9494777  46.7926455  52.0192146
  33.4414220  48.4475517  52.6502609  32.5456238  47.6265144  51.3398170
  31.1891341  51.5554523  49.5482159  31.2474298  51.6978216  48.3196878
  30.1389265  50.9773016  50.1473188  30.1830983  50.8384323  51.1467505
  28.9523506  50.5374718  49.4293785  29.2587948  49.9292183  48.5783625
  28.0605483  49.7707367  50.4551125  27.9077435  50.3570557  51.3611889
  27.1327734  49.4753551  49.9651241  28.7511921  48.5529470  51.0765219
  29.5062900  47.6146078  50.2938604  29.6577668  47.8141403  49.2433167
  30.1289368  46.5109730  50.9209776  30.7563782  45.8277321  50.3678942
  29.9049664  46.2132072  52.3156118  30.3738403  45.3716326  52.8037739
  29.2889094  47.2260189  53.0494976  29.2150593  47.1476889  54.1241169
  28.7630224  48.3730602  52.4949741  28.2053709  49.0148497  53.1609583
  28.2512879  51.7276049  48.7500381  28.0768037  51.7954206  47.5241566
  27.8688002  52.7534676  49.5147896  28.2029939  52.7165222  50.4671812
  27.0485854  53.9328623  48.9891911  26.1692643  53.4578753  48.5541248
  26.6045380  54.9963903  50.0775814  27.4346066  55.6764078  50.2690649
  25.4726982  55.8973837  49.6984959  25.5132413  56.0713387  48.6232281
  24.5021749  55.4012156  49.6980238  25.2961421  56.8615723  50.1752281
  26.2472939  54.3683815  51.2867212  27.0589280  54.0284538  51.6705179
  27.7006269  54.6091652  47.7579784  26.9350934  54.8921919  46.8700171
  29.0113759  54.7942162  47.7622700  29.4211555  54.3776131  48.5860586
  29.8324752  55.1864004  46.5509367  29.6655083  56.2585163  46.4470530
  31.2634468  54.9200583  46.8453932  31.4080310  53.9020491  47.2071266
  31.9563079  54.9811697  46.0061598  31.8557310  55.8844519  47.9055500
  31.2541080  56.8809414  48.2966757  33.0835605  55.7526445  48.3140945
  33.4885311  56.4382172  48.9354610  33.6619830  54.9843502  48.0054665
  29.3805885  54.4871807  45.2461958  28.9079785  55.2105713  44.3758869
  29.3940854  53.1554461  45.1990366  29.7014523  52.5974131  45.9827614
  28.9447308  52.4595785  44.0402269  29.5654106  52.7812004  43.2039165
  29.1435623  50.9401655  44.2813444  28.5303903  50.6356668  45.1295185
  28.7925196  50.3511477  43.4340382  30.8019328  50.5556822  44.7414494
  31.3022828  50.6142378  43.5040665  27.4741149  52.7038574  43.7885427
  27.0906162  52.9088020  42.5948191  26.6222787  52.8305054  44.8217297
  26.9580030  52.5544786  45.7334280  25.1572084  53.1694937  44.6019745
  24.6826863  52.4530792  43.9313889  24.3209457  53.0851126  45.9315062
  24.5314741  53.9094687  46.6128397  23.2509518  53.0208540  45.7338142
  24.4417357  51.7310333  46.6673994  24.5061278  50.5215502  45.9042072
  24.4613457  50.5385065  44.8252678  24.6480560  49.3171549  46.6290665
  24.8664260  48.3823633  46.1342001  24.6856332  49.2518663  48.0046844
  24.8268366  48.0634737  48.6803055  24.6881008  48.1992197  49.6204758
  24.4494653  50.4438543  48.7157154  24.4077253  50.3062534  49.7861004
  24.1976571  51.6707230  48.0231810  24.1148806  52.5369978  48.6628056
  24.8907089  54.5604277  43.9960098  23.9292097  54.7258377  43.2657814
  25.7924795  55.5787945  44.2446041  26.6083384  55.2351046  44.7307634
  25.7855225  56.9158649  43.5096216  24.7360945  57.2024584  43.4412766
  26.3636708  57.9940796  44.3673706  27.2855759  57.5898981  44.7854948
  26.7833328  59.3101454  43.6650705  27.3562050  59.9317884  44.3531656
  27.4895549  59.0968418  42.8626680  25.9750748  59.8510027  43.1728411
  25.4111958  58.2605600  45.5921841  24.5115209  58.7973499  45.2912807
  25.0777507  57.3348713  46.0612488  26.0759044  58.9554405  46.7449427
  26.9451952  58.3753395  47.0546436  26.2952852  60.0055122  46.5517473
  25.3414297  58.9451551  47.5502634  26.4186668  56.9376802  42.0794201
  25.6956315  57.4108696  41.1490011  27.6136756  56.3919687  41.8666887
  28.0720162  55.9678268  42.6604986  28.2902336  56.2908411  40.5673981
  28.3164835  57.3041677  40.1666737  29.7476816  55.8612585  40.7645416
  30.2366161  56.3619614  41.6002083  29.6180677  54.8202515  41.0605049
  30.5253124  55.8827162  39.5462990  30.9128451  57.1092129  38.9859700
  30.5451918  58.0316496  39.4106388  31.5900302  57.2133970  37.7411270
  31.7614245  58.1971264  37.3296595  31.9503498  56.0190630  37.0453954
  32.5749302  56.0205984  35.8359027  32.2971821  55.2542877  35.3287315
  31.6568828  54.7497940  37.6206279  31.9137192  53.8669825  37.0539880
  30.8513927  54.7100115  38.8218451  30.5241036  53.7481260  39.1879988
  27.4521923  55.4575777  39.4520998  27.4390507  55.8698893  38.3069491
  26.9319057  54.2615557  39.7535253  26.8383765  54.1290092  40.7504129
  26.4468741  53.2754993  38.8293123  26.8903255  53.3092499  37.8341627
  27.0505095  52.0051861  39.3292809  26.9177294  51.9814825  40.4109049
  26.5629053  51.1892128  38.7958694  28.5153174  51.8735123  39.0467525
  29.3563485  51.8096352  39.8693395  28.8432574  51.7211390  37.7776623
  29.7804022  51.3798857  37.6182723  28.1592250  51.5024090  37.0674753
  24.9733639  53.1022263  38.5435057  24.1596818  53.1810951  39.4366670
  24.6349216  52.8409529  37.2920489  25.4182100  52.6686716  36.6781425
  23.2891536  52.5263453  36.8506527  22.5834084  53.2882786  37.1815419
  23.2499242  52.4880409  35.3227973  24.1984487  52.1547318  34.9017143
  22.4261212  51.8704844  34.9649286  22.9431176  53.8582945  34.7236681
  22.9369998  53.8632727  33.6336970  21.9736195  54.2213774  35.0647712
  23.9140034  55.0078249  35.1030445  23.6825132  55.3592634  36.1085320
  24.9024510  54.5605326  35.2079558  23.9004087  56.1771584  34.1565442
  24.0176225  55.8061218  33.1383634  22.9070139  56.6201019  34.2277360
  24.8986840  57.1621132  34.5324230  25.8208609  56.8692112  34.2427707
  24.6742463  58.0868435  34.1938877  24.8174787  57.3489857  35.5216575
  22.6233983  51.2868738  37.5289416  23.3586907  50.3895235  38.0290437
  21.2841773  51.1435938  37.6003480  20.2747202  52.0129633  37.0444155
  20.4617000  52.4125814  36.0476995  20.2166677  52.8290844  37.7646160
  19.0134490  51.1580515  36.9611835  19.1422284  50.6531525  36.0037947
  18.0583394  51.6832447  36.9543147  19.1532135  50.2862644  38.1954527
  18.5529411  49.3816423  38.0983377  18.7727976  50.7741833  39.0928459
  20.6451535  50.0279903  38.2912302  20.9250379  49.8620558  39.3315339
  21.0080576  48.7511253  37.5901198  21.0323596  48.6687279  36.3695693
  21.5742087  47.7888298  38.3263898  21.6233182  47.9706383  39.3186784
  21.8841100  46.4483118  37.8137302  21.8941593  45.7987118  38.6889553
  21.1539698  45.9765720  37.1561170  23.2206821  46.3140011  37.0814919
  23.5607219  45.3105640  36.4665079  24.0759516  47.3405266  37.2110510
  23.7885237  48.1397057  37.7576852  25.5023980  47.2045374  37.0318937
  25.7219267  46.9169140  36.0037041  26.2170124  48.5815239  37.2427559
  25.9117198  49.0345001  38.1859970  27.2858119  48.3826971  37.3217463
  26.0162926  49.5715523  36.0782886  25.4155612  49.2058420  35.0630164
  26.5563178  50.6640673  36.1396670  26.1121154  46.2315941  37.9808235
  25.8197880  46.2731647  39.1587663  26.9622087  45.3467369  37.4447036
  27.1024919  45.4047012  36.4461732  27.5858974  44.2364407  38.1496143
  26.7969489  43.5164118  38.3669138  28.5696816  43.4531927  37.1357441
  29.4393897  44.0970802  37.0049167  28.9582086  42.5483179  37.6030254
  28.0701613  43.0374527  35.7655168  26.9067049  43.3784723  35.4881740
  28.8036489  42.5137568  34.8848367  28.2520056  44.6522427  39.4884133
  28.0019426  43.9930534  40.4830885  29.0502763  45.7124949  39.4670701
  29.1189027  46.2540245  38.6172819  29.6567464  46.3026237  40.6616879
  30.1467681  45.4608774  41.1510181  30.6912184  47.4491644  40.2012396
  31.4759517  46.9987297  39.5934534  29.9303651  48.4616470  39.2769146
  30.6221199  49.1191339  38.7503362  29.2919827  47.9774141  38.5379362
  29.3313527  49.1351175  39.8898768  31.4194417  48.2217503  41.3242531
  32.0346904  49.0352488  40.9398127  30.7010698  48.6579370  42.0183611
  32.4053216  47.2643089  42.1339750  32.9425120  47.8315592  42.8940821
  31.9158030  46.4478540  42.6648903  33.2061744  46.8871212  41.4980030
  28.7071609  46.8730593  41.7966175  29.1031528  46.8203640  42.9509783
  27.4718881  47.2553539  41.3875008  27.2573876  47.2437048  40.4006052
  26.4072275  47.6040268  42.3233747  26.7322063  48.2201862  43.1617260
  25.3003001  48.3955002  41.6656446  25.0090981  47.8218031  40.7857704
  24.0309334  48.4952641  42.5153446  23.6128068  47.4943447  42.6222706
  24.2635560  48.9301157  43.4874010  23.2642293  49.0626955  41.9878197
  25.6866646  49.7721910  41.2344742  24.8020244  50.2498579  40.8133459
  26.0694861  50.2945328  42.1112394  26.4583254  49.6604252  40.4727983
  25.8281255  46.3582516  42.8695297  25.6457090  46.2925959  44.1017199
  25.6680727  45.2734995  42.1124697  25.8734298  45.2963543  41.1238337
  25.1201844  44.0946484  42.6745415  24.2525458  44.3083620  43.2987499
  24.7344041  43.1108761  41.5667486  25.6349301  42.9773378  40.9673071
  24.2324805  42.2116852  41.9240046  23.6727047  43.7028313  40.5900192
  24.0556145  44.5309544  39.9936199  23.3011460  42.4865007  39.6068978
  22.6426601  42.9404116  38.8663125  24.1705823  42.2000313  39.0151906
  22.7762103  41.6679621  40.0993729  22.3551726  44.2137814  41.3032436
  21.8571329  43.3663177  41.7742682  22.6074362  44.9042034  42.1080923
  21.7142344  44.7351933  40.5923080  26.1623526  43.3968210  43.4978056
  25.8454561  42.7960014  44.5412683  27.4646544  43.5262823  43.1814528
  27.6512623  43.9654398  42.2912788  28.5097218  42.9996014  44.0648365
  28.2730937  41.9687939  44.3285561  29.9223852  42.9742002  43.4416294
  30.0198507  43.9817286  43.0372906  30.7266688  42.7059793  44.1266775
  29.9588299  41.9446373  42.2699785  29.9329686  40.9544563  42.7249193
  29.1199589  42.1699667  41.6114807  31.4102721  41.9424820  41.2535620
  32.7616954  41.2919950  42.3290539  32.6546574  40.2166367  42.4713707
  33.6757398  41.5791655  41.8092871  32.6722002  41.9457388  43.1966448
  28.5829043  43.7631655  45.4188490  28.8132620  43.1345463  46.4394140
  28.5406423  45.0722980  45.3558779  28.3763766  45.5523634  44.4825792
  28.4838104  45.9572315  46.5668011  29.3810821  45.9184027  47.1844578
  28.2365108  47.3952627  46.0525131  27.2635317  47.5994825  45.6056309
  28.2900786  48.0907726  46.8900681  28.9702463  47.7483416  45.3278923
  27.2651124  45.4448462  47.4189281  27.3300886  45.2124071  48.6246729
  26.1166906  45.2535248  46.7326117  26.1940002  45.4182577  45.7391405
  24.8266959  44.9118328  47.4006653  24.6692061  45.6235552  48.2110691
  23.6452222  45.1634359  46.4407539  23.8043380  46.1389208  45.9811783
  23.6871791  44.5597553  45.5341578  22.2822475  45.1609898  47.1410942
  22.4255228  45.5355120  48.1546593  21.5717554  45.8529282  46.6888428
  21.6602039  43.7786245  47.2271252  21.8805790  42.9313135  46.3509512
  20.9293747  43.5363960  48.1959963  24.7924232  43.5467911  48.0651665
  24.1648626  43.3914852  49.0977669  25.4092145  42.5218153  47.4930906
  25.8457065  42.6371193  46.5896082  25.6965733  41.2103319  48.1247568
  24.7844219  40.6954288  48.4263468  26.3458323  40.3277779  47.0147467
  25.5371428  40.1349211  46.3098145  27.1272182  40.8680868  46.4803314
  26.7129850  39.3734503  47.3923206  26.5854239  41.3894701  49.3844223
  26.3127303  40.9152794  50.4955578  27.7417016  42.0517159  49.1801834
  27.8655100  42.5473690  48.3089256  28.6993074  42.3222351  50.3050947
  28.9480615  41.3231707  50.6629896  29.9343634  43.0350685  49.7367382
  29.5529556  43.8710213  49.1503811  30.5386567  43.4875965  50.5229616
  30.8114433  42.1718454  48.8653278  30.3402495  41.6229582  48.0499697
  31.7630720  43.2099390  48.2658434  32.2532129  43.7029409  49.1053724
  32.5339365  42.6784515  47.7078152  31.2427521  43.9366531  47.6419353
  31.5819526  41.1043406  49.5939970  30.8725452  40.3924704  50.0159979
  32.2688651  40.5507183  48.9538765  32.1064448  41.5869522  50.4186773
  28.0976295  43.1363630  51.5052938  28.1596398  42.6758099  52.6132202
  27.3005962  44.1483164  51.1816835  27.1876216  44.2913628  50.1882648
  26.5095043  44.8898315  52.1533871  27.2094870  45.1752090  52.9386806
  25.7833910  46.1639404  51.5914869  26.4777589  46.7574930  50.9968042
  24.9912882  45.7814169  50.9477854  25.1313519  47.0792484  52.6434135
  24.2413855  46.5069675  52.9052401  25.7689643  47.2333002  53.5139418
  24.6939778  48.3921242  52.0167875  23.9073658  48.3630466  51.0511255
  25.0784326  49.4971275  52.4541092  25.5410075  44.0092182  52.9166079
  25.5622101  44.1299963  54.1420746  24.7059822  43.0888748  52.3003578
  24.6167350  43.0666399  51.2945509  23.8327193  42.2298431  53.0645514
  23.1440997  42.8033495  53.6850309  23.0200028  41.3480043  52.0775986
  22.0949483  41.8441820  51.7840338  23.5719848  41.1804628  51.1527538
  22.4077201  39.9932575  52.5335836  23.1735849  39.3137312  52.9074669
  21.7387605  40.0706816  53.3906746  21.7407036  39.2935610  51.4315510
  22.4255252  39.2461443  50.5848694  21.6294503  38.2492876  51.7234707
  20.3071451  39.7768331  51.1891937  19.7505760  39.7384834  52.1256018
  20.4671121  40.8028555  50.8578539  19.5959282  38.7875652  50.2857780
  18.6941183  39.1986966  50.0913143  20.1057506  38.6667633  49.4223022
  19.5543301  37.8541851  50.6694126  24.5899630  41.3189363  54.0416908
  24.1446543  41.2025213  55.1982975  25.6479692  40.7551527  53.5608578
  25.8228588  40.8918095  52.5755501  26.4967227  39.9012637  54.3375540
  25.8305931  39.1317105  54.7276306  27.5001287  39.1911197  53.4357595
  26.8729734  38.5591531  52.8069544  27.9960489  39.8775101  52.7494431
  28.4774113  38.3347583  54.2401314  29.1891956  39.0178108  54.7037077
  27.9501605  37.3462725  55.2652359  27.7031469  37.7877474  56.2307405
  27.0697570  36.8910551  54.8116207  28.7078333  36.5717006  55.3838539
  29.3762016  37.5531697  53.2192087  30.0964737  36.8579912  53.6505318
  28.8274789  36.9896698  52.4645758  29.7429180  38.4338689  52.6919651
  27.0918059  40.7090855  55.5022192  27.1678185  40.2224970  56.6253710
  27.6480746  41.8887854  55.2806616  27.7877736  42.1984529  54.3295097
  28.0298114  42.7889204  56.3632441  28.8316107  42.3444462  56.9528723
  28.6044312  44.0315199  55.6746006  29.5365906  43.7753296  55.1710653
  27.8695130  44.3611670  54.9402094  28.9650059  45.1703262  56.6149139
  28.0367637  46.2062407  56.7704964  27.2215462  46.2345028  56.0626650
  28.2885861  47.2271395  57.6612329  27.6438904  48.0898285  57.7420616
  29.4519544  47.1961880  58.5248137  29.6497941  47.9740477  59.2474461
  30.3936243  46.1640787  58.3810186  31.3266993  46.3118505  58.9044046
  30.1480031  45.1319456  57.3945665  30.8112359  44.2848396  57.3000383
  26.8909001  43.0132914  57.4129677  27.1281648  42.9634523  58.6300755
  25.6747556  43.4020472  56.9220066  25.5546045  43.5612249  55.9318924
  24.5553541  43.7021637  57.7802896  24.8714948  44.4484758  58.5091162
  23.4077859  44.2997074  56.9957876  23.1013370  43.6722326  56.1588478
  22.6332664  44.5333004  57.7263021  23.6638832  45.6636000  56.3704157
  24.5797944  45.5510712  55.7902908  22.4766183  46.0405827  55.5148220
  21.5174961  46.1261702  56.0255718  22.6428032  46.9892693  55.0044489
  22.2817922  45.2152252  54.8300409  23.9505672  46.7336321  57.3785973
  23.1328273  46.9284010  58.0724812  24.8103428  46.4689207  57.9940748
  24.2942047  47.6617384  56.9218349  24.1946244  42.5443268  58.7345314
  23.9170742  42.8358555  59.8845720  24.2303348  41.3259125  58.2261324
  24.4643283  41.2860727  57.2444201  24.1210532  40.0895691  58.9593935
  23.1440878  39.9591875  59.4248390  24.2515492  38.8440323  58.0443048
  25.1272058  38.9071393  57.3982859  24.3724656  37.9568839  58.6659575
  23.0201745  38.7304664  57.0520544  22.1892238  38.4050345  57.6779270
  22.8224206  39.6885586  56.5713739  23.2804942  37.7123022  55.9216070
  24.4089675  37.2664881  55.6793308  22.3307252  37.4449348  55.0158644
  22.6616001  36.9860792  54.1791582  21.4158630  37.8585124  55.1257706
  25.1088572  40.0485897  60.1512909  24.6984911  40.0583649  61.3385105
  26.4016771  40.0684214  59.8564053  26.5797710  40.2255726  58.8747311
  27.4511814  39.9959803  60.8583164  27.3918986  39.0159321  61.3317060
  28.7658000  40.0270557  60.1509237  28.9001083  40.9108782  59.5272875
  29.4507194  39.9177408  60.9917736  29.0013671  38.8123488  59.2589092
  28.2182765  38.7124872  58.5073185  29.9771500  38.9625025  58.7969494
  29.1036320  37.4170852  59.9874640  30.0306582  37.4429488  60.5602217
  28.3354950  37.2790933  60.7484055  28.9647007  36.2336731  59.0262508
  28.0694175  36.2602043  58.4050655  29.7612762  36.3033485  58.2854986
  28.9843249  34.8633838  59.6651316  28.8143635  34.1163278  59.0070105
  29.8414278  34.6542883  60.1568174  28.1613421  34.7210956  60.2330685
  27.2157407  41.1334324  61.8987513  27.5915599  40.9114552  63.0529785
  26.6206431  42.3181438  61.5913868  26.3803625  42.4427843  60.6183338
  26.4828706  43.4875774  62.5814629  27.3366666  43.4761715  63.2589626
  26.4953852  44.8219824  61.8365717  25.7447076  44.6402979  61.0674334
  25.9940910  45.9682226  62.7496004  26.5634513  46.1616230  63.6587429
  25.9296012  46.8766737  62.1507215  24.9772072  45.8254862  63.1152105
  27.7298760  45.2524137  61.1366606  28.0308247  44.4757223  60.4336119
  27.4884391  46.2237692  60.7050514  29.0000987  45.3014135  61.9951391
  29.0187669  46.1036062  62.7328634  29.1103292  44.3710184  62.5521898
  29.8626924  45.5663204  61.3837051  25.2831721  43.2136488  63.4908724
  25.2371287  43.5445118  64.6592140  24.2099142  42.5850582  63.0478668
  24.2578411  42.2639751  62.0914650  23.2449555  42.0553350  64.0239859
  22.8242660  42.9355001  64.5102358  22.1558952  41.2447834  63.1820631
  22.6950288  40.5870247  62.5003099  21.6475749  40.5646801  63.8655615
  21.0451150  42.1071768  62.6117277  20.8766532  42.3680305  61.4279556
  20.1415539  42.5554991  63.4871340  19.3560636  43.1253338  63.2071400
  20.3046393  42.2988272  64.4502687  23.9344239  41.1878204  65.1735735
  23.6999583  41.2443972  66.3860035  24.9340534  40.3260612  64.7680235
  25.0317121  40.2561712  63.7651873  25.6290245  39.4000769  65.6537199
  24.9182701  39.1214800  66.4317417  26.1151505  38.1652904  64.8804855
  26.9193673  38.5698128  64.2659187  26.4763141  37.4903083  65.6564093
  25.1449060  37.4533725  63.9717722  24.1408372  37.5874639  64.3742228
  25.2310085  37.8960967  62.9794598  25.4526019  36.0192633  63.8328743
  24.5991445  35.1216006  63.8252068  26.6477227  35.6973481  63.5305882
  26.8043518  40.0752735  66.4960194  27.7418208  39.4297791  67.0269442
  26.9701886  41.3989115  66.3631773  26.2597537  41.8270779  65.7869291
  28.0142927  42.1477270  67.0102167  29.0014529  42.0186853  66.5664005
  27.6507711  43.6362648  66.7690468  27.4251771  43.7520123  65.7089472
  26.7303705  43.8496304  67.3125935  28.7390304  44.6638489  67.0654392
  28.9129186  44.7087526  68.1405449  30.1042938  44.5527601  66.3245916
  30.5675435  45.5387783  66.2889433  30.6483626  43.8233328  66.9246101
  30.0249028  44.1489363  65.3152704  28.3281612  46.1125278  66.6565514
  28.8468242  46.9306374  67.1563387  28.4127641  46.1829042  65.5721235
  27.2707653  46.1864710  66.9106197  28.1558371  41.8417978  68.4688091
  27.2136211  42.1657610  69.2521095  29.3313098  41.3951778  68.9756584
  30.4451561  40.8440304  68.2305050  31.0168815  41.6392565  67.7521276
  30.1399970  40.0909185  67.5040054  31.3552833  40.1234579  69.2561960
  32.3676038  39.9870372  68.8758039  30.9739017  39.1246867  69.4685745
  31.2242460  41.0067225  70.4798937  31.7305064  41.9663906  70.3757763
  31.6089249  40.5241919  71.3783836  29.6723199  41.2143040  70.4413700
  29.1361642  40.3098583  70.7288074  29.2946148  42.3751116  71.3606310
  29.3621731  43.5067272  71.0002947  28.9794779  42.0602608  72.6718903
  28.7330484  41.1023378  72.8762484  29.1118550  43.0132055  73.7373543
  28.7758780  44.0309811  73.5389614  28.2309365  42.4665308  74.9101734
  28.5887790  41.4868212  75.2267551  28.1151247  43.4317827  76.0407782
  29.0276694  43.5032034  76.6326141  27.7740693  44.3897772  75.6483173
  27.2444725  43.1239843  76.6198540  26.8876672  42.2407198  74.5462275
  26.9282341  41.6921186  73.7594700  30.5694818  43.0674982  74.2818594
  31.1861920  41.9608307  74.5107126  31.0839295  44.1943407  74.4971609
  72.4118137  28.0587530  43.3084154  73.0884171  27.9320860  44.0475130
  72.7870703  28.3511448  42.4174643  71.8538189  27.2237730  43.2009363
  71.4310932  29.1007948  43.6409426  71.1002541  28.7549233  44.6202421
  72.0321894  30.5004883  43.7760210  73.0459356  30.5209446  44.1760254
  72.1602440  30.9218884  42.7789593  71.2414742  31.5333128  44.5758915
  70.3665876  31.8359494  44.0004921  70.9101582  31.1631131  45.5460882
  72.1236992  32.7520800  44.8939371  72.8447437  32.4831057  45.6658554
  72.5411177  33.2289171  44.0070915  71.1966038  33.8864565  45.4907894
  70.4373217  34.1995430  44.7741508  70.5961657  33.5117722  46.3197565
  72.1052408  35.0265789  45.8658457  72.5861692  35.3000045  45.0208330
  71.5548372  35.8067822  46.1951494  72.7910137  34.7463202  46.5523338
  70.2106190  29.2323256  42.6987028  69.0603971  29.2459631  43.1749821
  70.3572416  29.3320060  41.3931894  71.2981987  29.3524933  41.0267401
  69.2905807  29.3893027  40.4522657  68.7200165  30.2977109  40.6455374
  69.6855402  29.4735765  38.9537287  68.7336349  29.4967151  38.4232163
  70.4863930  30.7070160  38.6136842  71.4664316  30.8055210  39.0805173
  70.6168509  30.7363439  37.5319171  69.8840714  31.5832400  38.8535500
  70.3639889  28.2528448  38.4637737  70.7206774  28.4125805  37.4462414
  71.2903500  28.0774379  39.0107560  69.6288538  27.4555922  38.3539343
  68.2417440  28.3969879  40.6993246  67.0710802  28.8228583  40.6385803
  68.5560322  27.1636295  41.0189295  69.5387030  26.9341326  41.0613108
  67.5319433  26.1218524  41.1894608  66.9614124  26.0895538  40.2612638
  68.1741905  24.8401618  41.4376640  68.7833309  24.6344543  40.5574751
  68.7515020  24.9739146  42.3525047  67.2826767  23.7741232  41.5118074
  67.7629471  22.9464865  41.5890026  66.5576792  26.4650035  42.3178053
  65.3110456  26.3332605  42.2233582  67.0840549  26.9969869  43.4417486
  68.0536652  27.2543907  43.5588121  66.2479782  27.3696804  44.6306753
  65.4841280  26.6272211  44.8617411  67.2279501  27.4793816  45.8470106
  68.1254435  28.0310440  45.5672264  66.6686630  28.0734110  46.5698004
  67.3609924  26.1131787  46.5718889  67.4200583  25.3126955  45.8344316
  68.2726002  26.1299992  47.1691990  66.1388159  25.8849216  47.4057961
  66.2050819  26.2534857  48.6012268  65.1407909  25.2418518  46.9884682
  65.6132030  28.7265944  44.3613815  64.5671701  28.9503384  44.9932861
  66.1552763  29.6100998  43.5010242  67.0531559  29.4545865  43.0654478
  65.3528261  30.7301879  43.1072712  65.0067616  31.1202431  44.0644550
  66.3290358  31.8407416  42.6139927  67.0500517  31.4215803  41.9121838
  65.7781649  32.6768398  42.1831989  67.1123075  32.3526359  43.8050175
  66.3940763  32.5569558  44.5990610  67.8665781  31.6621161  44.1823292
  67.8138208  33.7221861  43.6075115  67.9895878  34.1598344  42.4790621
  68.1072950  34.4928622  44.6554041  68.4840965  35.4061437  44.4455481
  67.7951717  34.2757130  45.5910969  64.2101765  30.3838706  42.1298504
  63.0817699  30.9542656  42.3088646  64.4066715  29.5032310  41.1574173
  65.2949619  29.0274954  41.2260818  63.3308792  28.8904881  40.3220940
  62.8344679  29.6996403  39.7864199  63.9951468  27.9390407  39.2916059
  64.7955847  27.3456502  39.7335267  63.1723022  27.2919440  38.9878130
  64.5484304  28.6616993  38.0198908  64.9664497  29.5981836  38.3891630
  65.6078672  27.8758335  37.1831989  66.3293934  27.5039124  37.9106426
  65.1057434  27.0035005  36.7648602  66.0915327  28.4723234  36.4096546
  63.4421873  29.1078734  37.0562029  62.8993368  28.1914735  36.8246436
  62.8027630  29.7621846  37.6487541  63.8730383  29.6298623  36.2018037
  62.2037745  28.1776834  41.1182499  61.0188484  28.4268403  40.8855343
  62.5272608  27.3248363  42.0548916  63.4955454  27.0614934  42.1696854
  61.5728617  26.7578864  42.9730177  60.8419418  26.2796521  42.3209858
  62.2298908  25.6953526  43.8882256  63.1804323  26.1120391  44.2213058
  61.4901924  25.4607534  44.6536779  62.5460386  24.3539762  43.1502008
  61.6055393  23.8841248  42.8624487  63.1019449  24.4580269  42.2184086
  63.3955431  23.4293365  44.0288782  63.0184126  23.6249614  45.0326729
  63.1314611  22.3937464  43.8146019  64.9193525  23.6505890  44.0837955
  65.3830957  23.1871176  43.2130289  65.1475859  24.7164202  44.0867138
  65.4268742  23.0500126  45.2875376  66.4223003  22.8855729  45.2406883
  65.3807116  23.7067413  46.0534859  64.8673964  22.2596431  45.5745935
  60.8463478  27.8329659  43.7556505  59.6551085  27.7011085  43.9791775
  61.5391397  28.8648438  44.2213869  62.5291014  28.9081502  44.0259218
  60.8387852  30.0449562  44.8555183  60.2350330  29.7274542  45.7056808
  61.8792486  31.0342479  45.4904175  62.4499798  30.4971623  46.2479830
  62.6385927  31.3297653  44.7664213  61.3204241  32.5734448  46.2838507
  61.2887335  32.0660782  47.5193548  59.7618532  30.6408429  43.8494492
  58.6512518  30.9978223  44.2284393  60.1220131  30.7085419  42.6042891
  61.0728884  30.5296493  42.3145771  59.2422199  31.1898661  41.5677977
  58.7401867  32.1180677  41.8407631  60.0386953  31.5323138  40.2761221
  60.5865335  30.6729794  39.8894429  59.3449259  31.9517636  39.5475292
  61.2141609  32.8817320  40.6132650  61.8678331  32.3117256  41.6294861
  58.0486441  30.2625871  41.2833261  56.9688797  30.7906032  41.0355568
  58.1983757  28.9479423  41.4067030  59.1555929  28.6734653  41.5755224
  57.1048260  27.9640913  41.5238810  56.4952803  28.0286336  40.6225538
  57.7663803  26.5866756  41.6934109  58.7387800  26.4190435  41.2303400
  58.0825567  26.4926004  42.7322960  56.9456387  25.4946303  41.2033510
  57.3472834  24.6796894  41.5134478  56.1045885  28.2399368  42.6478672
  54.9026775  28.0874729  42.4730635  56.6365719  28.7111449  43.8415909
  57.6379633  28.7283850  43.9720631  55.8933496  29.2505741  45.0115442
  55.2669573  28.4762740  45.4544830  56.6728830  29.4940066  45.7334709
  55.0839043  30.5559897  44.7505760  53.9082050  30.5856562  44.9740267
  55.6747866  31.5140390  44.0831995  56.6446686  31.4158082  43.8190365
  54.8985481  32.6889133  43.5211897  54.4523907  33.1732368  44.3897915
  55.8793354  33.7060952  42.8341436  56.3381624  33.3153582  41.9259071
  55.1193094  34.9660039  42.4087906  54.6694374  35.3314257  43.3319283
  55.8070707  35.7185745  42.0231438  54.3635273  34.7486663  41.6540289
  57.0305872  34.0662837  43.7719536  56.5187311  34.3862414  44.6795464
  57.6507425  33.2249260  44.0811872  58.1601906  35.1002359  43.2298470
  58.2397795  34.9218154  42.1574974  57.9722404  36.1531687  43.4398746
  59.1033745  34.8448896  43.7128592  53.7966728  32.1723962  42.6203060
  52.7017927  32.7528739  42.6186562  54.0871859  31.2468958  41.6720057
  55.0491047  30.9393144  41.6576338  53.1528330  30.9462905  40.5561829
  52.7324200  31.9292021  40.3434992  53.9222431  30.2368712  39.4629455
  54.8259830  30.8305359  39.3253899  54.2713118  29.2781758  39.8465514
  53.1454659  30.0830460  38.1219602  52.1016359  29.8441648  38.3255672
  53.1570482  31.3655615  37.3033834  52.7121115  32.1014333  37.9731822
  54.1129780  31.6916060  36.8935156  52.5487185  31.3261223  36.3997912
  53.6625290  28.9362383  37.2482657  53.3030510  27.9833293  37.6366544
  53.4040594  28.9975119  36.1911273  54.7463799  28.9146233  37.1347117
  51.9715881  30.0493526  41.0623789  50.8325958  30.3392196  40.7133436
  52.2359371  29.0893292  41.9441986  53.2041836  28.8716269  42.1318102
  51.2374783  28.4000754  42.7870035  50.7607698  27.6049924  42.2136879
  52.0376492  27.5712943  43.8345480  52.8119946  28.1614637  44.3246412
  51.3404226  27.3284841  44.6364307  52.4523687  26.2162614  43.2836533
  51.6011524  25.7754564  42.7647829  53.2130861  26.2848687  42.5060225
  53.1052208  25.1911855  44.1929293  52.3468113  24.9307871  44.9312449
  53.2845402  24.3463659  43.5279322  54.3888950  25.7693887  44.8695564
  55.0527763  25.9163094  44.0176296  54.2162275  26.6959882  45.4170084
  54.9459982  24.8032022  45.8073568  54.7342062  23.8395619  45.5913687
  55.9370661  24.8778915  45.9870815  54.6096087  25.1176023  46.7062998
  50.1911402  29.4110489  43.3472061  49.0099144  29.1629744  43.3196592
  50.7648039  30.4925632  43.9337730  51.7598438  30.6119251  43.8083029
  49.9264145  31.5194821  44.5336294  49.1952229  31.0561395  45.1960278
  50.7950544  32.5114846  45.4225922  51.5011072  31.9580746  46.0417318
  51.3284731  33.1746387  44.7415686  49.8954153  33.3726883  46.3082600
  49.2114401  34.0154099  45.7540131  49.3013763  32.7776122  47.0018721
  50.6229591  34.3195128  47.2468185  51.7785263  34.0705800  47.5940609
  49.9423504  35.1149225  47.9063082  48.9424944  32.2071552  43.5518646
  47.7501631  32.1599531  43.8328075  49.4269657  32.7979898  42.4251461
  50.4290819  32.8968358  42.3471117  48.5161638  33.3183670  41.2791824
  47.9044199  34.1301775  41.6726685  49.4202900  33.9044285  40.1398134
  50.0242710  33.0583906  39.8118901  48.8096428  34.1670227  39.2759538
  50.3787899  35.0174499  40.6662655  49.8504448  35.7061672  41.3255262
  51.1008787  34.5107627  41.3065386  51.1511707  36.0662436  39.3713069
  52.4069786  34.8827386  38.8876152  52.0360994  34.0768695  38.2542706
  53.1121731  35.3376508  38.1920171  52.9614544  34.4771218  39.7338676
  47.5137281  32.2279525  40.6546021  46.4668131  32.6100278  40.1899529
  47.8744602  30.9658623  40.6964731  48.7691021  30.7496977  41.1123896
  46.9933844  29.8018098  40.3193092  46.4188480  29.9686575  39.4081736
  47.9419804  28.6331534  40.0583315  48.7369347  28.6643457  40.8034325
  47.3407888  27.7567554  40.3004074  48.4666634  28.4461260  38.6289477
  49.7853136  28.3432245  38.2041311  50.5652905  28.2839775  38.9487958
  50.0956488  28.1675816  36.8547249  51.0590506  27.8230715  36.5089369
  49.0718746  28.2614660  35.8585525  49.2578077  28.2020450  34.7963381
  47.7322245  28.3285594  36.2831616  46.9280720  28.4309435  35.5695367
  47.4241209  28.4289908  37.6748443  46.3886023  28.4090829  37.9809499
  45.9177446  29.4123793  41.3810158  45.0274563  28.6390853  41.1437893
  46.0633564  30.0038934  42.5720978  46.7416430  30.7295728  42.7549171
  45.3460360  29.5980740  43.8090801  45.1482821  28.5265112  43.7817764
  46.1883831  29.8730397  45.0861359  47.2323084  29.6172166  44.9047852
  46.2055588  30.9435725  45.2905035  45.7702971  29.4434857  45.9965134
  43.8788557  30.1389766  43.6998177  43.6927223  31.2363768  43.1428528
  42.8262234  29.5080090  44.2717075  43.0950356  28.7670970  44.9032879
  41.3917446  29.9716401  44.4168806  40.9691525  30.1229906  43.4235954
  40.6145954  28.9069414  45.3033400  41.2103605  28.5626674  46.1487055
  39.7938538  29.4381714  45.7852936  40.0279713  27.8424215  44.4021463
  39.3214226  28.2110381  43.6584997  40.8240461  27.3723030  43.8247728
  39.1826892  26.8582630  45.2238083  39.8692465  26.0416508  45.4471540
  38.8600636  27.2872114  46.1724997  38.0192900  26.4022660  44.3691921
  37.4986768  25.6042361  44.8985434  37.3131204  27.1984172  44.1334629
  38.4850621  25.6744194  43.1941557  38.9005733  26.2674189  42.4900246
  39.1465735  24.9424386  43.4102869  37.7525687  25.1349378  42.7553892
  41.3169384  31.3357544  45.0269604  40.5675220  32.1494198  44.5308399
  42.0960760  31.5839100  46.0926580  42.6022863  30.8204651  46.5181065
  42.4783373  32.9026914  46.5946960  41.8612719  33.2812691  47.4095631
  43.8363695  32.6925826  47.1917486  43.8140678  31.9015384  47.9413128
  44.5466423  32.4154425  46.4127636  44.4763184  33.9172363  47.8827953
  44.5203352  34.7827411  47.2216845  43.8338709  34.1585445  48.7296343
  45.9052706  33.5929561  48.3193827  45.8900213  32.6604342  48.8835382
  46.5125799  33.3862114  47.4381733  46.4470625  34.7610950  49.1853714
  46.3314199  35.7188129  48.6779261  45.8490086  34.7957039  50.0959969
  47.8608799  34.5120144  49.5999336  48.5059166  34.7190595  48.8508272
  48.1304312  35.0606751  50.4039335  48.1179714  33.5880733  49.9166870
  42.5004053  33.9858317  45.5503702  41.9470310  35.0702333  45.8310223
  43.2087612  33.8139987  44.4305944  43.5802698  32.9305410  44.1118765
  43.2220411  34.8009682  43.3729315  42.6482868  35.6930399  43.6241484
  44.6544600  35.3114438  43.1550503  45.2014637  34.4783878  42.7135658
  44.7208643  36.0692859  42.3744345  45.2869129  35.7495952  44.4332075
  44.7291613  36.7116761  45.2703476  45.6404591  37.1696877  46.1779547
  45.5066109  37.9656076  46.8955851  46.7534161  36.4591646  45.8897352
  47.6390839  36.5791845  46.3601494  46.5425634  35.5984378  44.8442554
  47.2779560  34.9534822  44.3864012  42.5143957  34.4345641  42.0444441
  42.3954535  35.3250265  41.2043571  42.1450424  33.1909156  41.7560053
  42.3612261  32.4567819  42.4151039  41.4923096  32.7452517  40.5443716
  42.2680664  32.6186228  39.7892118  40.9168053  31.3739848  40.7359266
  41.5428925  30.7785654  41.4004469  39.9193573  31.4670920  41.1654997
  40.7757711  30.8160710  39.8102140  40.4050112  33.6334085  40.0511360
  40.3019476  33.7073827  38.8700032  39.6618128  34.2812252  40.9763432
  39.9171519  34.0684414  41.9300842  38.5527253  35.1166534  40.6707382
  37.7716470  34.5566368  40.1565361  37.9367542  35.5578780  41.9731379
  38.6073422  36.1104584  42.6312113  36.9981813  36.0904980  41.8198395
  37.8404951  34.6146131  42.5108004  38.8267469  36.2917948  39.6663904
  37.9657531  36.7267370  38.8214564  40.1185799  36.7382288  39.7014380
  40.7622910  36.3837218  40.3943014  40.7011795  37.6874661  38.7961984
  39.9043155  38.0174923  38.1297231  41.1360979  38.9705348  39.4112587
  41.4485073  39.6672082  38.6333466  40.3036165  39.3593144  39.9977088
  42.3426867  38.8627625  40.2800846  43.6119318  39.1861534  39.8170686
  43.8185072  39.1828680  38.7570143  44.7302294  39.2005825  40.6802654
  45.7671547  39.3692255  40.4297876  44.5188332  38.8387108  42.0557547
  45.5005360  38.9923358  42.9777336  45.3553677  38.6377215  43.8579464
  43.2205772  38.5675907  42.5873137  43.1131124  38.3679485  43.6432457
  42.1991587  38.5388041  41.6715336  41.2151527  38.3017898  42.0483065
  41.9571972  37.2167540  37.9980230  42.2148180  37.7532744  36.9093513
  42.7485180  36.2639570  38.5482788  42.3794270  35.8572197  39.3958855
  43.9295483  35.7407618  37.8352571  44.4850492  36.6068506  37.4755192
  44.6735287  34.8844481  38.8324690  44.0479279  34.0437007  39.1322517
  45.5316496  34.4851255  38.2918501  45.0158072  35.4247355  39.7150993
  43.5086536  34.9558496  36.5652394  44.2888594  34.7358394  35.6150126
  42.2084188  34.5092797  36.5009236  41.5386724  34.7420740  37.2201967
  41.8806458  33.4613132  35.4601622  42.5037956  32.5821233  35.6238842
  40.4690552  32.9166770  35.6728768  40.3457022  32.0048618  35.0885129
  40.3165245  32.5523853  36.6888165  39.3677926  33.8300824  35.2761197
  38.8671708  34.7542024  36.0727739  39.0239120  34.9551892  37.1222687
  37.9456067  35.5503011  35.3628206  37.3412251  36.2440515  35.7794070
  37.8790426  35.2270746  34.0387249  37.2857165  35.8035398  32.9132247
  36.5922260  36.6281629  32.9872584  37.4958229  35.2466536  31.6318965
  36.8059397  35.5381441  30.8537602  38.3031225  34.0611339  31.4916158
  38.2708573  33.5135031  30.5613136  38.9754558  33.5709214  32.6154351
  39.6250367  32.7144074  32.5113845  38.7550330  34.0776563  33.9308715
  42.1025181  33.8269329  34.0263677  42.3434591  32.9501820  33.1968307
  42.0623398  35.0935650  33.5619235  41.7185593  36.3629103  34.2399979
  42.5783968  36.9173145  34.6160412  41.0732412  36.2742543  35.1139593
  41.0369635  37.1884084  33.1264782  41.0299587  38.2484651  33.3801150
  40.0343037  36.7672539  33.0529857  41.9103336  36.9249153  31.9699049
  42.7440643  37.6207805  32.0635390  41.3929653  37.1870661  31.0470223
  42.2864580  35.4863882  32.1420908  41.5704393  34.9411607  31.5271521
  43.6512375  35.3327346  31.5613365  43.8933706  35.3848934  30.3842020
  44.5769978  35.0544477  32.5361061  44.3154478  35.0982952  33.5106659
  45.9785604  34.7967076  32.2301984  46.3399553  35.1466703  31.2632346
  46.8480921  35.5881810  33.1972623  46.8746853  35.2346063  34.2279816
  47.9082060  35.5795240  32.9439235  46.3938332  37.0125437  33.1550074
  46.6661215  37.8389096  32.0843840  47.1347284  37.5091100  31.1689377
  45.9687710  39.0775657  31.9091344  46.0853148  39.7178388  31.0472345
  45.0434780  39.4457269  32.9062343  44.6542263  40.4519176  32.8565526
  44.9673128  38.6810112  34.1460228  44.4905090  39.0319324  35.0493026
  45.6338549  37.4466753  34.2567635  45.4911518  36.8398619  35.1387000
  46.3383245  33.2402945  32.2626877  47.4971008  32.8392744  31.9297528
  45.5091429  32.3786736  32.8143811  44.6610260  32.7203894  33.2433653
  45.8952999  31.0217571  33.0985236  46.7581558  30.9932089  33.7639284
  44.8264360  30.2068472  33.7820578  43.8483000  30.4132295  33.3475876
  45.0807476  29.1471934  33.7584019  44.6396255  30.4707503  35.3232145
  45.3586674  31.5017843  35.9627199  46.2475634  31.9382358  35.5316973
  45.1819944  31.6957664  37.3385954  45.9919310  32.2704720  37.7629948
  44.1684628  31.0626268  38.0195665  44.1921759  31.1732936  39.3493128
  44.9074793  31.7297888  39.6659493  43.3484268  30.1074028  37.3769045
  42.5563383  29.5773959  37.8849411  43.5286856  29.9208426  35.9885192
  42.8968430  29.2150402  35.4698515  46.3116407  30.1951838  31.8867707
  46.9858456  29.1561985  32.0600224  45.8084297  30.5312824  30.7022119
  45.4294395  31.4665937  30.6613779  45.7636404  29.7703695  29.4070745
  46.5784931  29.0538311  29.5104313  44.4197321  29.1318083  29.1662526
  43.6588860  29.9116564  29.1986799  44.4112730  28.6154866  28.2063341
  44.1418362  28.0792546  30.2533078  44.9231672  27.3240018  30.3382754
  43.9887190  28.5415387  31.2284732  42.8125095  27.3327184  30.0321889
  42.0497608  28.1025434  30.1491618  42.7651596  26.8613362  29.0505219
  42.7527952  26.2448478  31.0903025  43.7457466  25.7976270  31.1365032
  42.4080467  26.4832592  32.0964932  41.8579865  25.1228833  30.6429553
  41.9169664  24.3644714  31.3073635  40.9203291  25.4847336  30.5431581
  42.0973015  24.7269750  29.7451329  46.0025454  30.8014607  28.2418442
  45.7839346  32.0071816  28.4655762  46.2869787  30.4089117  27.0221901
  46.6613388  29.0263414  26.6271162  45.7239437  28.5335398  26.3691449
  47.1782398  28.4636736  27.4044919  47.6251173  29.2156339  25.4802346
  47.5576496  28.3201957  24.8623848  48.6541367  29.3242764  25.8228827
  47.1988297  30.5408025  24.7659230  46.4816189  30.2469826  23.9995170
  48.0594015  31.0569286  24.3403363  46.6758633  31.3346744  25.9235859
  47.4057579  32.0625567  26.2779045  45.3977060  32.0401430  25.5918503
  44.2609882  31.5319157  25.5691171  45.6057310  33.2603669  25.1342845
  46.5269852  33.6662507  25.0527358  44.4642019  34.0174150  24.5902252
  43.6976099  34.0266132  25.3650498  44.8541498  35.4552412  24.3043661
  45.6290579  35.4964328  23.5389066  43.6962318  36.3127589  23.9164495
  43.9421272  37.3037195  23.5348320  43.1603575  35.9622288  23.0343652
  43.1265259  36.4473891  24.8359132  45.3307915  36.1716366  25.5602002
  44.7813511  36.0985374  26.4987493  46.3781309  35.8792758  25.6357384
  45.3012705  37.2493148  25.3994441  43.9215279  33.4127092  23.2557845
  44.6381760  33.4903598  22.3191118  42.8312922  32.7462745  23.2924581
  42.3494720  32.5452471  24.1570616  42.4854851  31.9125080  22.1395397
  43.4061050  31.4661479  21.7636013  41.8374586  30.6228447  22.5464010
  42.5008869  30.1622462  23.2783937  40.8874083  30.7729292  23.0592203
  41.6561127  29.6006227  21.4271379  42.0436716  29.7597742  20.2613115
  41.1497355  28.4951329  21.8104768  41.7851686  32.7084947  21.0881925
  40.5605078  32.7451921  20.9972358  42.6257277  33.4238243  20.2781773
  43.6169672  33.3888412  20.4687667  42.1526575  34.4792533  19.3779290
  41.8411160  35.2622962  20.0692225  43.2906818  35.0943351  18.6025679
  42.9845095  35.8475161  17.8765666  44.2545891  35.7165980  19.5633614
  44.6688366  34.8666000  20.1055837  45.0404358  36.1977386  18.9810765
  43.6891413  36.4175057  20.1774430  44.0576696  34.0697408  17.7024758
  43.4355640  33.6748028  16.8992865  44.8655272  34.6582222  17.2675622
  44.3803120  33.1888771  18.2575238  40.9631205  34.0523648  18.4769034
  40.0139809  34.8199105  18.4875357  41.0428429  32.9051423  17.8438604
  41.8354940  32.3279119  18.0859649  40.0051212  32.3737240  17.0261908
  39.7996092  33.0465221  16.1935973  40.5705690  31.0711384  16.3295972
  41.4617109  31.2952995  15.7433200  40.7428837  30.2481461  17.0232010
  39.5806241  30.5031514  15.2992380  40.0522423  29.6392393  14.8309100
  38.6710858  30.1778102  15.8042061  39.1189289  31.4083362  14.1651082
  37.9490972  31.2541223  13.5860813  39.8657513  32.3743200  13.8230240
  38.6572456  32.2307467  17.7855349  37.6085377  32.8499937  17.4618733
  38.6467862  31.4053273  18.8309264  39.4730830  31.0825682  19.3137944
  37.3646760  31.1631274  19.6424639  36.6560841  30.6042838  19.0311599
  37.7618122  30.1466966  20.7286072  37.8266025  29.1569161  20.2766752
  38.7815142  30.4091167  21.0104656  37.1062112  30.2297711  21.5954328
  36.7706251  32.4917507  20.1414752  35.5299902  32.5962353  20.2619433
  37.6743507  33.4336233  20.4494524  38.6559129  33.2248712  20.3351736
  37.3004580  34.7679734  20.8898282  36.3765478  34.7239423  21.4665031
  38.3749700  35.3521872  21.7883372  39.4014359  35.2098751  21.4503717
  38.1655264  36.4100575  21.9469047  38.2386208  34.7071719  23.1918812
  37.8392649  33.6929607  23.1917071  39.7077847  34.7230339  23.7909460
  39.6394825  34.3394947  24.8089552  40.3640366  34.0818930  23.2024121
  40.0917721  35.7416534  23.8463402  37.2389722  35.5722547  23.9890671
  36.4664245  35.8790302  23.2839727  36.8031263  34.8754930  24.7050786
  37.7490306  36.4005494  24.4808698  36.9023919  35.7864928  19.8223710
  36.1253023  36.6415167  20.1549816  37.2201824  35.5178761  18.5318661
  38.0105257  34.9115014  18.3652186  36.8626213  36.4345503  17.4262750
  36.9991255  35.8903217  16.4917779  35.8451772  36.8109202  17.5323677
  37.8190875  37.6483560  17.3805261  37.4681306  38.5960460  16.6707385
  38.9472175  37.6982450  18.1020403  39.2329693  36.8541312  18.5773599
  39.9217629  38.8324928  18.1704593  39.4208407  39.8001671  18.1425059
  40.6059504  38.7171650  19.5706856  40.7930899  37.6673698  19.7965312
  41.5493345  39.2541456  19.6695769  39.6927381  39.1090536  20.7762718
  38.7026787  38.7221527  20.5350471  40.1210928  38.5587692  22.1111178
  41.0696459  39.0046597  22.4103379  39.3779325  38.7658238  22.8811479
  40.2487230  37.4764538  22.1311426  39.6241546  40.5860615  20.8592367
  40.6537580  40.9323692  20.9491611  39.0604377  41.0039234  20.0251412
  39.0726662  40.8839464  21.7509913  40.9151888  38.8248944  17.0484936
  42.1120214  38.5954022  17.1900773  40.4867029  39.2538404  15.8428347
  39.5822859  39.6964979  15.7641768  41.3315153  39.1765308  14.6633399
  41.9269705  38.2745624  14.8047137  40.4522514  39.1669583  13.3723652
  39.8910308  40.0948715  13.2622993  41.1476851  39.0782452  12.5377393
  39.5067453  38.0136251  13.3809614  40.0697660  36.7921782  13.6273921
  39.0208888  35.9318066  13.5838497  39.0972185  34.8550582  13.5494030
  37.8896022  36.5688038  13.4256732  36.9685888  36.1964631  13.2434630
  38.1518865  37.9341340  13.3790565  37.4820948  38.7787604  13.3128488
  42.3962069  40.1854944  14.5702684  43.2590818  40.0833845  13.6648941
  42.3297262  41.1784220  15.4448271  41.5449238  41.1421442  16.0795462
  43.3627939  42.2339630  15.5525482  43.9114475  42.2333574  14.6106994
  42.7579069  43.6384010  15.8437753  43.5889387  44.3318987  15.9724343
  42.2380638  44.0762138  14.9916124  41.8133783  43.7910032  17.0603621
  41.6398621  42.8241825  17.8975654  41.1994267  44.9018049  17.1116400
  44.3751717  41.9601774  16.6156209  45.4063177  42.6387739  16.6940296
  44.2253447  40.9330273  17.4238169  43.5258770  40.2200508  17.2737455
  45.1243353  40.6555223  18.5721111  45.1272488  41.5745211  19.1582215
  44.6343613  39.5234966  19.4059634  43.5961056  39.6011400  19.7286022
  44.7650480  38.6288190  18.7972152  45.5563021  39.4867253  20.6518960
  45.0390863  40.0161648  21.8394041  44.1074133  40.5618477  21.8144965
  45.7858706  39.9351621  23.0404687  45.3891373  40.4470491  23.9047503
  46.9903898  39.1416264  23.0936217  47.7940083  39.0363646  24.1538596
  47.5168276  39.7803807  24.6934986  47.3678064  38.5085177  21.8904328
  48.2872438  37.9445839  21.8354988  46.7196703  38.7358928  20.6854510
  47.1059465  38.3156753  19.7686040  46.5488338  40.3998137  17.9874992
  47.5103045  41.0265875  18.4025586  46.6939592  39.4633842  17.0703638
  45.8921099  38.9678645  16.7075956  47.9788589  39.0571380  16.5310085
  48.6764097  38.8550425  17.3438299  47.8641081  37.5799370  15.9628785
  47.1492910  37.4375296  15.1524138  48.7976503  37.2786283  15.4876816
  47.3148489  36.4764905  17.3353398  45.9852076  36.6044354  17.3595834
  48.7193298  40.0262260  15.6161761  49.8541212  39.7877574  15.2888882
  48.0245590  41.0907745  15.1142800  47.0604467  41.0868549  15.4152310
  48.6068487  42.2432137  14.4408035  49.3133307  41.8935394  13.6880040
  47.4419308  43.0241728  13.6799777  47.0396662  42.3425293  12.9305506
  46.6715527  43.2875395  14.4047213  47.8969049  44.3338919  12.9754615
  49.1084194  44.4881582  12.8393817  47.0328283  45.1784658  12.5590146
  49.3244982  43.1036139  15.4353404  50.5072117  43.4946156  15.1921904
  48.7675333  43.3636570  16.6210127  47.8988981  42.8890848  16.8219101
  49.3505621  44.1559839  17.6767802  49.9426413  44.9483585  17.2188640
  48.2466412  44.8152685  18.6155558  47.6909304  43.9596415  18.9992130
  48.8369799  45.5374336  19.8223984  49.4770908  44.8276854  20.3464484
  49.4422245  46.3509369  19.4224107  48.0028391  45.9493160  20.3904319
  47.3066711  45.8173704  17.8447413  47.7793455  46.7994785  17.8566885
  47.3453903  45.6206894  16.7733324  45.8766890  45.9611845  18.4309149
  45.3331852  46.8174887  18.0316091  45.2675629  45.1145983  18.1141126
  45.7904387  46.0224342  19.5157695  50.3785133  43.4643555  18.4647894
  51.5287733  43.8688707  18.4849477  49.9235201  42.3339891  19.0904355
  48.9929962  42.0202780  18.8541901  50.6914902  41.5025568  20.0151348
  51.4596415  42.1274376  20.4707336  49.8144913  40.8472872  21.1106753
  49.1952848  40.1038265  20.6087327  50.6583881  40.1456976  22.1805072
  51.4027691  40.8370876  22.5754452  50.0002098  39.8382187  22.9931355
  51.1279631  39.2930746  21.6899610  48.8513279  41.7756414  21.8547487
  48.2342100  42.2615242  21.0989833  48.2142830  41.2920094  22.5952768
  49.4608498  43.0076504  22.4888349  48.6848497  43.7312555  22.7384710
  49.9368382  42.6771545  23.4120417  50.2112293  43.5310650  21.8963289
  51.4756727  40.4224062  19.2419314  50.9219980  39.3264270  18.9469028
  52.8357410  40.5472374  19.0135264  53.1567669  41.5017319  19.0908217
  53.7839222  39.6162033  18.3028066  53.1835604  38.9882779  17.6444960
  54.6907091  40.4030704  17.3569977  55.2661228  41.1009455  17.9652429
  55.3844166  39.6398330  17.0043707  54.0283537  41.1903286  16.1730075
  53.4177876  41.9527102  16.6568351  54.8280287  41.6792154  15.6165850
  53.1827068  40.3351212  15.2089274  53.8409567  39.5696545  14.7979856
  52.3666763  39.8048520  15.6998575  52.6571274  41.0929441  14.0133286
  52.2434855  42.0729256  14.2513287  53.5035181  41.2869740  13.3544803
  51.6239357  40.3380013  13.2579696  50.7961369  40.1127529  13.7909913
  51.2636757  40.8667707  12.4764836  51.9647503  39.4628787  12.8863442
  54.5539188  38.6357951  19.2163932  55.0439405  37.5727654  18.7496948
  54.4789648  38.8582873  20.5599713  54.0682316  39.7323513  20.8556199
  55.0171328  37.9676628  21.5920520  55.2566528  37.0343804  21.0824251
  56.3464355  38.5744500  22.1962929  56.3091612  39.4578552  22.8337121
  56.6976261  37.8190780  22.8992724  57.4559879  38.7901425  21.2356305
  58.4736300  39.7194195  21.5502357  59.4546843  39.4614172  20.6547093
  60.4475117  39.8861003  20.6363106  59.0504074  38.5051441  19.7589159
  59.5940208  38.2025719  18.9632821  57.8409576  38.0182981  20.1383281
  57.3027515  37.2167706  19.6542931  53.8731575  37.4737310  22.5640297
  54.0503550  37.8036976  23.7509370  52.7786398  36.7478585  22.1996164
  52.4416494  36.3402247  20.8643889  53.0008698  35.4321456  20.6390786
  52.5837326  37.0642972  20.0621200  50.9481287  36.0934711  20.8778048
  50.8174849  35.3348970  20.1060534  50.4172611  37.0061469  20.6070447
  50.6531477  35.6064272  22.3439097  50.9276867  34.5524597  22.3005557
  49.6575594  35.8097887  22.7383113  51.7087269  36.3831353  23.1978726
  51.2800217  37.3195338  23.5548997  52.3249960  35.5262613  24.3699908
  53.0688381  34.5959997  24.0668464  52.0205641  35.7866955  25.6385875
  51.5080261  36.6479611  25.7635856  52.5672913  35.0037932  26.7415237
  52.7947664  34.0104175  26.3547945  53.7974787  35.7058215  27.1910167
  54.5162725  35.7652473  26.3737607  53.4655857  36.7189693  27.4179077
  54.4817829  35.0691080  28.4597397  55.2379370  35.7891417  28.7725997
  53.7321901  35.0256467  29.2498827  55.1259089  33.4491277  28.1811905
  56.3786888  33.7463737  26.8450880  56.8829155  34.7049689  26.9673991
  57.0961905  32.9304504  26.9320512  55.9205961  33.7464070  25.8560228
  51.5411043  34.7780681  27.8911495  50.6992435  35.6910443  28.1413698
  51.4235020  33.6438894  28.5754728  52.1229839  32.9263616  28.4490585
  50.3518581  33.1909680  29.4721866  49.9444675  34.1059399  29.9022555
  49.2104197  32.4866247  28.7290788  48.3651209  32.5147223  29.4166660
  48.8487673  33.0891585  27.8958583  49.6344423  31.0785174  28.1645679
  50.3296518  31.0299468  27.1549058  49.3947172  30.0261354  28.8671422
  50.9594059  32.2530174  30.5168152  52.0048618  31.7028451  30.1994681
  50.3615952  32.0772648  31.7013788  49.5406532  32.6307821  31.9008160
  50.8378506  31.2896872  32.8857851  51.7958307  31.7476869  33.1319714
  49.8021841  31.4148808  34.0201354  48.8421011  31.0162544  33.6923528
  50.1712608  30.7918000  34.8347831  49.6631002  32.8626132  34.6047473
  50.6830883  33.2458568  34.6339202  49.1056633  33.3932137  33.8328457
  48.6970854  33.0885267  36.0745144  49.1778612  31.8830228  37.2350478
  48.7168360  32.1762776  38.1782079  48.8347960  30.8938456  36.9318342
  50.2614212  31.8157387  37.3323703  51.1685562  29.8960686  32.5492120
  52.1284151  29.3205762  33.0956793  50.4077625  29.1868591  31.6997075
  49.7098541  29.6444631  31.1308217  50.6300259  27.7464914  31.3204932
  50.9088802  27.2915530  32.2709537  49.3450785  27.0970845  30.8641839
  48.8109303  27.8490472  30.2833676  49.5545959  26.1671400  30.3356004
  48.5833883  26.6929698  31.9761562  48.0160809  27.4296927  32.2149062
  51.8343115  27.5058436  30.3587055  52.5770235  26.4827633  30.3519607
  52.1012163  28.5528803  29.4964314  51.5912771  29.4225836  29.5570946
  53.3058214  28.5678482  28.7023902  53.3721447  27.6084661  28.1892776
  53.3891964  29.6037579  27.6239133  53.3269501  30.5672836  28.1297231
  54.6730995  29.5294785  26.7727470  54.5216942  30.1005387  25.8567381
  55.5693007  29.9400115  27.2379255  54.7842741  28.5040545  26.4202595
  52.3823214  29.5993161  26.6995764  51.7260361  30.2701998  26.9016004
  54.4646883  28.7727642  29.6900845  55.2609539  27.8604436  29.6997380
  54.5200348  29.8422599  30.4951763  53.7578106  30.4872227  30.3430629
  55.4643297  29.9292231  31.6593695  56.4557457  30.2419949  31.3317084
  54.9684429  31.1601233  32.5063896  53.9133835  31.0187697  32.7408600
  55.6581402  31.2116981  33.8913298  56.7251682  31.1241651  33.6866450
  55.4880762  32.2300744  34.2407489  55.2347374  30.4519796  34.5483351
  55.1280737  32.5554585  31.8316698  56.1435699  32.9373288  31.9367623
  54.9529123  32.3210001  30.7816935  54.1527748  33.5945916  32.2258306
  54.1490984  34.3847370  31.4749932  53.1284237  33.2246161  32.1819735
  54.3769503  34.0102863  33.2081985  55.6247807  28.6700463  32.4126124
  56.6697550  28.1605768  32.7090764  54.4910622  28.0415130  32.8092742
  53.5962105  28.3948755  32.5018954  54.5270109  26.7874289  33.5828090
  55.1637506  26.9604325  34.4504118  53.0799961  26.5255332  34.1198850
  52.6414156  27.4098086  34.5822716  52.4601221  26.2635422  33.2624388
  53.1182289  25.2596378  35.0734830  54.1327763  25.2109718  35.4689884
  52.4144697  25.3255486  35.9032297  52.8063059  23.9264035  34.3582749
  51.8329525  23.9613104  33.8689208  53.5265779  23.8054609  33.5491514
  52.9225826  22.6041865  35.2308297  52.9410028  21.8660140  34.4290400
  53.8312769  22.5873804  35.8325672  51.7077780  22.4042320  36.0646725
  51.8596506  21.5804386  36.6289473  51.4504051  23.1773996  36.6613889
  50.8919811  22.1038556  35.5505252  55.1855755  25.6012225  32.7878070
  55.9770536  24.8404646  33.3606672  54.9142647  25.4671407  31.5167308
  54.1773319  26.0572362  31.1578202  55.5697870  24.6065831  30.5541062
  55.5265951  23.5636139  30.8678699  54.7338343  24.5224810  29.2139554
  54.6284056  25.5104709  28.7657809  55.2523279  23.9415407  28.4512138
  53.4437752  24.0057731  29.4215441  52.9621124  24.7450304  29.7998381
  57.0664692  24.7471046  30.3379703  57.7470589  23.8366675  29.9729633
  57.6557684  25.9255552  30.4837322  56.9992924  26.6601896  30.7061195
  59.0552950  26.2274981  30.3511286  59.4285917  25.6066322  29.5367098
  59.2301512  27.6526928  29.8376608  58.7158823  28.3811164  30.4645777
  60.2765846  27.9570746  29.8584771  58.7715673  27.9604077  28.4018588
  59.3686056  27.3163939  27.7561855  57.7383184  27.6529145  28.2407808
  58.9600611  29.3697119  27.8448844  58.7534666  29.3011284  26.7768407
  58.2542658  30.0785327  28.2779193  60.3928995  29.8961711  28.1278062
  60.6742907  29.8023677  29.1766715  60.9880924  29.1638565  27.5823116
  60.6118822  31.2466502  27.4935198  61.5724564  31.4816785  27.6988602
  60.6128550  31.2191296  26.4838934  59.9601269  31.9261169  27.8590894
  59.8395109  26.0828280  31.6326380  60.9421015  25.4905033  31.6392660
  59.1792440  26.4671898  32.7754235  58.4478140  27.1528292  32.6529217
  59.5803308  26.0021853  34.1171050  60.5865574  26.3912416  34.2728019
  58.5953665  26.5093994  35.1899910  58.5523939  27.5930500  35.0806475
  57.6138496  26.0748577  35.0005054  59.0385818  26.1891317  36.6641784
  59.3350792  25.1415944  36.6107059  60.2524042  27.0246792  37.0586252
  61.1808157  26.7429304  36.5618587  60.1053619  28.1012535  37.1450543
  60.5907011  26.7738366  38.0639791  57.9150248  26.4195704  37.6551437
  56.9859076  25.9605932  37.3172379  58.1611681  25.9511709  38.6080980
  57.7148247  27.4885511  37.7279639  59.6655464  24.4492340  34.2072415
  60.7096672  23.9383078  34.6461248  58.6766100  23.6619806  33.8472271
  57.8003311  24.1335464  33.6744118  58.5845947  22.1977544  33.7137628
  59.0503502  21.7680502  34.6006298  57.1591759  21.7396092  33.5875988
  56.7603636  22.3557734  32.7817512  57.1455193  20.7016444  33.2551217
  56.3096619  21.9938445  34.8214722  56.1713123  23.0603147  34.9992442
  55.3524685  21.4804363  34.7303414  56.8294430  21.3203287  36.0658622
  57.6377487  20.3201485  35.9771204  56.4117336  21.6966963  37.1886635
  59.4853401  21.5820384  32.6444721  59.9761915  20.4614592  32.8981042
  59.7316790  22.2116709  31.4871216  59.2053080  23.0234051  31.1970901
  60.7846260  21.7784047  30.4975390  60.7454634  20.7004428  30.3408146
  60.4175425  22.4587274  29.1454506  59.4641018  22.0712972  28.7863636
  60.3442049  23.5361147  29.2936635  61.1396694  22.1987343  28.3714771
  62.2439051  22.1233606  30.9383440  63.2174397  21.6945958  30.3075314
  62.4610043  22.9027772  32.0136380  61.5772295  23.2256699  32.3807645
  63.6860752  23.4797001  32.5675988  63.3675861  24.2047453  33.3165789
  64.6380281  22.4409962  33.2137775  64.9805164  21.7886901  32.4104714
  65.5162382  22.9905844  33.5525966  64.0626192  21.6615391  34.4109654
  64.8673391  21.3638592  35.0832105  63.4859228  22.4051189  34.9610686
  63.2477236  20.4007316  34.0855122  62.8307867  19.9613893  34.9917364
  62.3608208  20.7159638  33.5358477  64.0249157  19.3835175  33.2967019
  65.0211954  19.3286073  33.4533119  63.5481882  18.7580872  32.1766162
  62.2647333  18.6268961  31.9524670  61.5880728  19.0116179  32.5960684
  61.9635296  18.1837833  31.0962987  64.3657541  18.3133519  31.2485242
  65.3607178  18.2962310  31.4213276  63.9581108  18.1707859  30.3355074
  64.3595743  24.4550633  31.6087484  65.5442667  24.7517395  31.6640735
  63.5509586  25.0735188  30.7673788  62.5545311  25.0876570  30.9318018
  64.0211630  26.0123205  29.7369790  64.7887278  25.6003022  29.0818501
  62.9023933  26.4603567  28.7975287  62.0109892  26.5494323  29.4184685
  63.0902243  27.4990487  28.5256195  62.5863743  25.4913402  27.5744414
  62.3160982  24.5374537  28.0273843  61.7930746  25.8554649  26.9215989
  63.8224745  25.2232146  26.6982317  64.1556835  26.1179757  25.9238243
  64.4953299  24.1542363  26.8418860  64.6583033  27.2272253  30.4353285
  65.7444429  27.6785326  30.0231051  64.0545988  27.7284741  31.5561104
  63.2446337  27.3064995  31.9873857  64.6183968  28.8867831  32.2703362
  64.8197365  29.6986985  31.5715098  63.4970522  29.4161868  33.2697415
  63.3214426  28.6746526  34.0490937  63.9729881  30.2823830  33.7294102
  62.2215176  29.9735332  32.6309228  62.2752047  30.9486651  31.6771102
  63.2507277  31.3223839  31.4030910  61.0126591  31.3679552  31.1173177
  61.0212851  32.1345520  30.3566217  59.7895432  30.8466816  31.5469790
  58.6378384  31.2646008  31.0651588  58.6505651  31.7513037  30.2377772
  59.7712135  29.9508095  32.5696230  58.7802458  29.6290994  32.8540373
  60.9915781  29.4614172  33.1235051  60.9154272  28.6769891  33.8619304
  65.8702707  28.5581255  33.0504346  65.8945751  27.5279975  33.7114716
  66.9294500  29.3380213  32.9576135  66.8742418  30.0454307  32.2388482
  68.2900476  29.1696191  33.5403061  68.4065771  28.1170416  33.7983847
  69.3697977  29.7111273  32.5657225  69.2736912  30.7962871  32.6017094
  70.3257513  29.5368838  33.0595851  69.3766642  29.0008855  31.2163281
  69.9698400  28.1123829  31.4326787  68.4310341  28.6007500  30.8505774
  69.9963808  29.8356104  30.1375651  70.9844494  30.1280403  30.4929614
  70.0977850  29.1294837  29.3134236  69.2553663  30.9910464  29.6303034
  68.6321449  31.4578104  30.2736020  69.2519188  31.4880204  28.4663439
  69.7879028  30.8361650  27.5798059  70.0998449  29.8830271  27.6994729
  69.8254490  31.2781715  26.6724324  68.6172199  32.5591683  28.1256723
  68.1282616  33.1127954  28.8145256  68.5797977  32.7399611  27.1326900
  68.4152269  29.9608994  34.8390102  69.3022776  29.6997070  35.6385922
  67.4674129  30.9361625  35.0497699  66.7656898  31.0106158  34.3271756
  67.5035906  31.9070578  36.2176633  67.7252817  31.3222456  37.1103859
  68.6021280  32.9641914  35.9119654  69.5711899  32.4662995  35.8784866
  68.4031630  33.3908939  34.9288917  68.7394905  34.0243626  37.0013785
  69.6435738  34.8898482  36.8123198  68.0585146  34.0038896  38.0896783
  66.1062098  32.5456691  36.4215732  65.3834581  32.6616359  35.4182243
  65.7036781  32.7886939  37.6762629  66.3800430  32.7626801  38.4259009
  64.4494677  33.4563661  37.9934454  63.6219025  32.8045154  37.7135754
  64.4840574  33.6121702  39.5397758  64.6223497  32.6042914  39.9311233
  65.2237988  34.3394399  39.8743796  63.5169268  33.9858365  39.8761487
  64.0852213  34.7556186  37.3204446  62.9189730  34.8553252  36.9210839
  65.0621939  35.5805492  36.8409109  65.9399891  35.4107809  37.3107529
  64.9572134  36.5048480  35.7512403  64.4878387  37.4130368  36.1293745
  66.2966108  36.9069004  35.2713156  66.7255735  37.4308729  36.1254478
  66.8938065  36.0027552  35.1530933  66.3827610  37.8488898  34.0833092
  67.4174356  38.1914091  34.0985179  66.1476278  37.2792530  33.1842422
  65.5527306  39.1131902  34.1120410  65.0412798  39.5085645  35.1652169
  65.5025053  39.8335290  33.0350852  64.7860432  40.5447292  33.0663657
  65.7396460  39.3620229  32.1739554  64.1577291  36.0526156  34.6084642
  63.2873631  36.8134856  34.0235615  64.4680262  34.9605751  34.0489173
  64.9730587  34.2831779  34.6022487  63.9737225  34.4900179  32.7299309
  64.1615200  35.2672529  31.9891644  64.8028612  33.2817864  32.2397256
  64.4469976  32.4206448  32.8053212  64.5822096  33.1345868  31.1824870
  66.3067007  33.4493041  32.3759532  66.5881729  34.5009160  32.4306273
  66.5502214  33.1472731  33.3945680  66.9795895  32.6920652  31.2527704
  66.7205429  31.5179324  31.0190868  67.7701473  33.3767676  30.5247140
  62.5168896  34.2368984  32.8178310  61.8930960  34.7825789  31.9404840
  62.0544291  33.5249209  33.8353205  62.7026415  33.0492735  34.4466162
  60.6804371  33.4384823  34.3717217  60.1067924  33.1164885  33.5026121
  60.7031155  32.4746609  35.5623865  61.4102077  31.6661954  35.3766203
  61.3278675  32.9910040  36.2912059  59.3975067  32.0262170  36.1891222
  58.8942957  32.8365135  37.2517705  59.4794703  33.6929345  37.5526237
  57.7128506  32.3685074  37.8586340  57.2721434  33.0563116  38.5651064
  57.1251202  31.1373830  37.4209905  56.2137079  30.8436775  37.9204535
  57.7417135  30.2833486  36.4768124  57.3680782  29.2916203  36.2687922
  58.8696432  30.7323408  35.8647299  59.3122959  30.1703954  35.0556064
  60.0498676  34.8263597  34.7156191  58.9455271  35.0874376  34.2260623
  60.6774807  35.7470489  35.4284525  61.5011978  35.4914808  35.9540725
  60.0372124  37.0276666  35.7160711  59.0560675  36.9490194  36.1843371
  60.7517385  37.5554872  36.3477015  59.8102379  37.8367114  34.3810368
  58.8375235  38.5979033  34.3778491  60.6441545  37.7996540  33.3639741
  61.4852047  37.2404313  33.3681488  60.3910494  38.5845232  32.0855212
  60.0322294  39.5921326  32.2954512  61.6832590  38.7927866  31.2997651
  61.4459896  38.9878368  30.2539349  62.3054028  39.6314168  31.6124082
  62.2088718  37.8397393  31.3592267  59.2992926  37.9730368  31.2012839
  58.4424257  38.6617661  30.6633639  59.1117573  36.6172361  31.1499643
  59.8306561  36.0453010  31.5696955  57.8905773  35.9592199  30.6045341
  57.7889872  36.4632297  29.6434140  58.0211020  34.4917536  30.4145670
  58.3091640  34.0021896  31.3448620  57.0524454  34.0882969  30.1195717
  59.0029669  34.1070533  29.2900610  59.7608900  34.9771357  28.7287736
  59.2149258  32.8791261  29.0701032  56.6140890  36.2956309  31.3651419
  55.5478334  36.7032933  30.8397269  56.6850758  36.3687420  32.7271271
  57.5118542  36.0437465  33.2076621  55.5408812  36.8713260  33.4987497
  54.7017097  36.2234235  33.2455468  55.7290840  36.6845560  35.0429559
  56.6799784  37.1040154  35.3715181  54.6172857  37.4092674  35.7811856
  54.7818470  37.3743248  36.8581247  54.7356033  38.4766364  35.5945611
  53.6047649  37.0110488  35.7154870  55.7228422  35.1581335  35.3824854
  54.7331572  34.7710943  35.6250310  56.3573122  34.5341158  34.7530794
  56.2693357  35.0340652  36.3173914  55.2351570  38.2956672  33.1911898
  54.1019487  38.6389804  32.8497410  56.2132645  39.2338514  33.3835030
  57.1504736  38.9912271  33.6713934  55.9823942  40.6648064  33.1524587
  55.1583910  41.0736513  33.7372351  57.2657585  41.3860226  33.4596252
  58.1144762  40.8200598  33.0756116  57.2501040  42.3484373  32.9481483
  57.5195456  41.4972878  34.9536824  56.9333315  42.2747231  35.4436302
  57.3344660  40.5410099  35.4429460  59.0276003  41.7674303  35.2248073
  59.6491146  41.0086632  34.7493148  59.2018938  42.7203512  34.7251463
  59.2858887  41.9469976  36.6753054  58.6651230  42.4480391  37.2947502
  60.3828764  41.5828085  37.2992611  61.3985395  41.0512114  36.6629362
  61.2864208  40.7171011  35.7164145  62.2138357  40.7530785  37.1791816
  60.4802704  41.7467070  38.5637403  59.7260475  42.2923326  38.9555812
  61.3245916  41.4971161  39.0586376  55.5369234  40.9910345  31.6788507
  54.7658205  41.9761944  31.5145159  55.8656120  40.1555490  30.6657672
  56.4880228  39.3630791  30.7342863  55.4108477  40.1897907  29.2968488
  55.5660200  41.2035322  28.9275885  56.2155581  39.1769242  28.3921337
  57.2307444  39.5698786  28.4476495  56.2686920  38.1748629  28.8177514
  55.9448862  39.1539526  26.9223690  54.9743605  38.6857486  26.7581606
  55.8905172  40.5964851  26.3600636  55.1448631  41.2167978  26.8573737
  56.8398094  41.1029911  26.5344238  55.5595589  40.4399872  25.3333831
  57.0122242  38.3131480  26.1636209  57.9870081  38.7735748  26.3245654
  57.0441437  37.3412752  26.6561079  56.7629385  38.3075380  25.1025248
  53.8559341  39.9206591  29.2573905  53.2284451  40.6949472  28.5840821
  53.4099865  38.8747334  29.9863577  53.9658833  38.2780480  30.5822206
  51.9202232  38.6117291  29.9343634  51.7529392  38.3816743  28.8821340
  51.7357302  37.2731638  30.7764649  51.9390154  36.4112997  30.1408839
  52.5470114  37.2565007  31.5042353  50.4061794  36.9959092  31.4331722
  50.1419783  37.7968836  32.1236396  49.6681690  36.9972849  30.6310248
  50.4217243  35.3936553  32.3210549  51.6617489  35.7871556  33.5559869
  52.6623392  35.6871939  33.1353593  51.5710831  36.8181968  33.8978076
  51.6128826  35.0178051  34.3265796  50.9710121  39.7990394  30.3797650
  49.9315739  40.1062965  29.7524953  51.3522863  40.5660963  31.4345050
  52.1976328  40.2666187  31.8990588  50.8762503  41.8964863  31.8347001
  49.8006725  41.7868948  31.9733739  51.3917112  42.3843908  33.1686234
  52.4549389  42.5722456  33.0190659  50.8514261  43.3005857  33.4069014
  51.3372612  41.3158798  34.3041062  50.2046919  40.5384064  34.5118999
  49.3013477  40.7447052  33.9570928  50.2032375  39.5391583  35.5069017
  49.2910337  39.0041900  35.7262063  51.3118076  39.2537141  36.2865925
  51.3670158  38.5608888  37.1132421  52.4475718  40.0509310  36.1027741
  53.3066559  39.8330235  36.7199445  52.4649954  41.0437202  35.1289892
  53.3026457  41.7254400  35.1287985  51.0147572  42.8783035  30.6177521
  50.0115156  43.4471273  30.1864862  52.2301960  42.9835987  30.0215816
  52.9497719  42.3834753  30.3986382  52.5951910  44.0725803  29.1319299
  52.3584175  45.0064230  29.6418095  54.1062069  43.9313602  28.8100910
  54.6013212  44.2725801  29.7192287  54.3842363  42.9011393  28.5877228
  54.6638060  44.7135353  27.7313519  54.7926188  45.6431341  27.9334736
  51.8189812  43.9621782  27.8705597  51.3861275  44.9552584  27.2674704
  51.5529251  42.7061605  27.4273324  52.0570230  41.9682217  27.8979039
  50.5563354  42.4243689  26.3820434  50.8629704  43.0476713  25.5420637
  50.7050371  40.9077358  26.0491133  50.5343866  40.3191566  26.9505358
  50.0121117  40.5979395  25.2668238  52.1110678  40.5612087  25.5341864
  53.0034399  41.3382339  25.1567721  52.2483587  39.2621136  25.3868222
  53.1267786  38.8911676  25.0538349  51.4946461  38.7004256  25.7563138
  49.0331841  42.6532412  26.7187977  48.2912016  43.1046867  25.8852744
  48.6027241  42.4566460  27.9398084  49.0955639  41.9538736  28.6639833
  47.2026396  42.7206039  28.2893252  46.4405012  42.3502588  27.6036930
  46.8680573  42.2456264  29.6792603  46.8485260  41.1605358  29.5777774
  47.6628876  42.5571489  30.3569818  45.2678108  42.7967596  30.2942467
  45.5636692  42.5596952  31.5753245  47.0496464  44.2207670  28.1594706
  46.1836004  44.7230625  27.4363613  47.9527235  44.9905396  28.7891555
  48.6381149  44.5050383  29.3500733  47.9762650  46.4875889  28.7037206
  47.0179081  46.8630791  29.0624142  49.1581821  46.9672537  29.5614147
  50.0659513  46.6394854  29.0548348  49.1822624  48.0505562  29.4431996
  49.2467117  46.4670658  30.9917188  48.1406260  46.0574818  31.7733407
  47.1546316  45.9106302  31.3578272  48.2916689  45.8608532  33.1812954
  47.4391365  45.6071663  33.7938547  49.5459032  45.8102655  33.7337685
  49.6425676  45.5424309  35.0208592  50.5570173  45.6063890  35.3059769
  50.6716204  46.1556387  32.9736447  51.6414547  46.1200237  33.4475255
  50.5391264  46.4388084  31.6236401  51.3715267  46.6606283  30.9722519
  48.1879568  47.0376635  27.2261691  47.4210548  47.8754282  26.7980313
  49.0728807  46.4494896  26.4115119  49.7958565  45.9193611  26.8766785
  49.2839670  46.8369389  25.0751495  49.4573784  47.9114103  25.0156903
  50.5028772  46.0357285  24.5606017  51.3266802  46.3220596  25.2144074
  50.4207754  44.9488258  24.5575666  50.7621479  46.4367390  23.1443357
  50.0798082  45.8881426  22.4950600  50.6723070  47.5222778  23.1038690
  52.2405434  46.0503054  22.7175355  53.0461264  46.5873432  23.2182670
  52.3770905  44.9736834  22.8192019  52.2575092  46.2305498  21.1860061
  51.5147209  45.5342388  20.7967591  51.8697119  47.2102737  20.9069777
  53.5589933  46.0589600  20.5974674  53.8947487  45.1673365  20.9327078
  53.6633730  46.0104179  19.5940483  54.1702938  46.8337679  20.8121538
  48.0089951  46.6696596  24.2996001  47.7243710  47.5947237  23.5197544
  47.3072386  45.5444193  24.4641495  47.4539566  44.9030828  25.2304769
  46.0494184  45.3737402  23.6993647  46.1613417  45.5696583  22.6329732
  45.6034136  43.8712502  23.7097621  46.3974857  43.3385134  23.1865597
  45.5387020  43.3879423  24.6846056  44.4359398  43.6417484  22.7836657
  44.6136236  43.7837458  21.3964510  45.6263304  43.9761686  21.0742736
  43.5365534  43.6709356  20.4838681  43.5944796  43.7026167  19.4058824
  42.2588253  43.4356689  21.0652518  41.1132145  43.4331560  20.3766608
  41.2572098  43.2320833  19.4490623  42.0865679  43.4477282  22.4147296
  41.0760689  43.3829975  22.7903748  43.1343603  43.5439348  23.3634090
  42.9508638  43.5580778  24.4276118  44.8372936  46.2024593  24.2113042
  44.3801975  47.2114515  23.6562562  44.3557835  45.8158016  25.3894377
  44.9462700  45.2501535  25.9822822  43.0758619  46.3280725  25.8585405
  42.2289705  46.2328148  25.1789784  42.6260567  45.5562925  27.1139073
  43.4162474  45.7377529  27.8424525  41.6628933  45.9371758  27.4535370
  42.5026464  44.1101122  26.9126940  41.6054583  43.5560226  26.3088894
  43.3924866  43.3086061  27.4977040  43.2162619  42.3620319  27.1926641
  44.0580797  43.6635256  28.1693578  43.0660391  47.7964783  26.2851954
  44.0451002  48.2302856  26.8916607  41.9826031  48.5189342  25.9365034
  40.7319832  48.0462694  25.4146528  40.4442835  47.1016407  25.8761740
  40.8442307  47.9890537  24.3319607  39.6406174  49.0612745  25.7232380
  39.2670393  48.7764263  26.7068028  38.9275765  49.1205359  24.9009490
  40.4965496  50.3926945  25.8440876  39.9188972  51.1313772  26.3997579
  40.6097031  50.7354736  24.8155951  41.7865181  49.8256683  26.4245462
  42.5737381  50.5055952  26.0988283  41.7671680  49.7788620  27.9456186
  41.1874723  48.8600826  28.5320568  42.2926188  50.7732344  28.6513090
  43.2945681  51.7443800  28.1682658  42.7888203  52.5026035  27.5704217
  43.9942408  51.2578201  27.4886942  43.9882660  52.3454571  29.4065356
  44.0917826  53.4303713  29.3879986  44.9562788  51.9072294  29.6494555
  43.0631351  52.0926285  30.5004001  42.3140240  52.8767014  30.6107116
  43.5468721  51.9522953  31.4670467  42.3492193  50.7377815  30.1479983
  42.9370546  49.8820400  30.4800510  40.9817076  50.6319475  30.8908939
  40.8779478  50.1156616  31.9853425  39.9528980  51.1036634  30.2443004
  40.1453829  51.6745424  29.4336534  38.6240125  50.9727669  30.7172871
  38.5967016  51.4711905  31.6862702  37.6584339  51.7201996  29.7624063
  37.3198748  51.0376072  28.9829540  36.7435145  51.8641710  30.3371286
  38.1640124  53.0574131  29.2003942  39.2516398  53.2229614  28.6873221
  37.3159170  53.9617538  29.1104674  38.1549358  49.5005512  30.9341717
  37.1810865  49.3101645  31.7099404  38.6878061  48.4456444  30.3023982
  39.4240117  48.6128330  29.6314645  38.3811474  47.0531464  30.3859401
  37.2931623  46.9911575  30.4092383  38.8888574  46.2707615  29.1814423
  39.9452877  46.4748669  29.0071058  38.8251305  45.1885557  29.2948675
  38.1063581  46.5042734  27.9155469  38.4411907  45.9031630  26.7129159
  37.6195574  46.4237070  25.7940292  37.7033281  46.2278748  24.7352362
  36.7759371  47.3412466  26.3966990  35.9686303  47.8129673  26.0148144
  37.1256471  47.3766136  27.6991701  36.6443872  48.0078888  28.4314799
  38.8870621  46.4936829  31.7334104  40.0324774  46.6821861  32.0741844
  38.0259013  45.7025814  32.4744940  37.0782328  45.6980181  32.1252036
  38.3688784  45.1533794  33.7976909  38.5800505  45.9710979  34.4867849
  37.1174479  44.5093679  34.4677663  36.9321656  43.5530138  33.9787221
  37.3781872  44.2528343  35.4945612  35.8377337  45.3810406  34.5150542
  35.1506639  44.9584007  35.2481389  36.1341286  46.3718796  34.8592806
  35.0996900  45.5295849  33.1329536  34.1311073  46.3014889  32.9973412
  35.3360248  44.7840166  32.1961331  39.6477675  44.2032957  33.8043165
  40.4173517  44.2537880  34.7685361  39.9011207  43.4620762  32.7392507
  39.1802382  43.4219122  32.0329785  41.0873938  42.5881910  32.6098394
  41.0720682  41.8530512  33.4144759  40.9873962  41.8635225  31.2539172
  40.0095844  41.3911247  31.1599660  41.2193251  42.6329613  29.9857068
  42.2121525  43.0793524  29.9297738  40.9826946  42.0335722  29.1065955
  40.4855061  43.4373474  29.9350357  41.9716644  40.6936169  31.2624550
  41.7791319  40.0320148  30.4178762  42.9885674  41.0741711  31.1665654
  41.7671013  40.0952435  32.1502614  42.4165058  43.3572626  32.7012467
  43.4085894  42.8518915  33.1676841  42.4095583  44.6539450  32.4557924
  41.5638638  45.1061249  32.1388626  43.5790157  45.5105734  32.5662589
  44.4574785  45.0153446  32.1525550  43.5067177  46.7708302  31.7645073
  42.5168180  47.1940660  31.9350100  44.5412636  47.9028845  32.1527076
  44.3899393  48.1802320  33.1959128  45.5846500  47.6143503  32.0254230
  44.4446754  48.8514900  31.6245794  43.8535833  46.4393711  30.3347182
  43.6159945  47.2785044  29.6808767  44.9271393  46.2512541  30.3206825
  43.2468081  45.6440353  29.9018645  43.9111948  45.7605267  34.0595078
  45.0414467  45.5912828  34.4748783  42.9620695  46.1034155  34.8830342
  42.0209312  46.1603498  34.5209289  43.1010532  46.1730576  36.2887049
  43.9988565  46.7480326  36.5155292  41.9698238  46.9021559  37.0256090
  41.0083675  46.5357971  36.6657829  41.9519663  46.7166710  38.0995655
  42.1909046  47.9692030  37.0003104  43.2152224  44.8216820  36.9859242
  43.9143658  44.7312164  37.9953599  42.6603174  43.7270927  36.5059018
  42.0362329  43.8449144  35.7205749  43.0523920  42.4018335  36.9288492
  42.9442787  42.4075842  38.0134583  42.1778297  41.2793684  36.2842178
  42.2976494  41.2309217  35.2019072  42.5844336  40.3317595  36.6375279
  40.6861544  41.3986444  36.4472365  40.5038071  41.5876245  37.5051284
  40.3095388  42.1909618  35.8003330  39.7110081  39.8693728  36.1465597
  38.3713984  40.4277849  34.9993396  37.7401114  39.5558929  34.8279190
  37.7685952  41.1834621  35.5030155  38.7469602  40.8052778  34.0482593
  44.5240211  41.9088459  36.6130447  45.0798368  41.1719036  37.4280906
  45.1967096  42.3547935  35.5896783  44.6983051  42.9597998  34.9527645
  46.6303873  42.1284962  35.3348756  46.9148350  41.0785580  35.4042888
  46.8998528  42.5404644  33.9040756  47.9661942  42.4670267  33.6904669
  46.3757753  41.8874550  33.2062030  46.5359497  43.5402727  33.6673117
  47.5362062  42.9773521  36.3390017  48.3993578  42.4870253  37.0413947
  47.0725203  44.2186260  36.6028166  46.3910532  44.6936512  36.0283065
  47.7091122  45.1123381  37.6005220  48.7537527  45.1684475  37.2944546
  47.1002817  46.4707899  37.3454762  47.1083164  46.5379524  36.2575769
  46.0839367  46.5033627  37.7380323  47.9908276  47.6521873  37.9230952
  48.0791664  47.4967861  38.9983368  49.0020990  47.6813650  37.5174117
  47.3020411  49.0692997  37.7763557  46.4485025  48.9760399  38.4478307
  48.0813885  49.6775866  38.2353902  46.9850159  49.4034052  36.3867879
  47.6915169  49.3709517  35.6657457  45.7851124  49.6349001  35.9884262
  44.7005320  49.6966505  36.7189169  44.7842693  49.5098162  37.7079487
  43.8209248  49.7759151  36.2289095  45.5608463  49.7865057  34.7720385
  46.3459921  49.7523642  34.1376233  44.6539640  49.8761129  34.3365717
  47.6319504  44.6776867  38.9802217  48.5567713  44.8385096  39.7498369
  46.5705490  43.9669228  39.3755722  45.7950211  44.1439867  38.7532330
  46.5148354  43.2331848  40.6709242  46.9029856  43.9389706  41.4052963
  45.1005793  42.7664280  41.0363102  44.7536373  42.2937250  40.1174593
  45.2233648  41.9909954  41.7924356  44.1300774  43.7374926  41.6225100
  44.5806742  44.1637182  42.5188351  43.9929819  44.5600080  40.9205341
  42.7195930  43.2703018  41.9201279  42.2103405  44.1011667  42.4084234
  42.3383045  43.0624866  40.9203672  42.4271011  42.0442820  42.7736330
  41.4011765  41.6764498  42.7569246  43.0848122  41.3415432  42.2620869
  42.8570032  42.2399950  44.1903830  42.5117636  43.0984306  44.5953465
  42.4896383  41.5244007  44.8011827  43.8661289  42.2654629  44.1568947
  47.4854279  42.0353079  40.6852674  48.1615305  41.8887329  41.6647339
  47.4908304  41.3134289  39.5940804  46.8879938  41.6112804  38.8404417
  48.2724190  40.1226902  39.5636320  48.1100607  39.6290398  40.5217838
  47.8473806  39.1945744  38.4172297  46.7763615  39.2744112  38.2310939
  48.3896208  39.5359921  37.5354600  48.1596994  37.7082062  38.6020947
  49.1081810  37.5984097  39.1278505  47.1529436  37.0973921  39.5654988
  46.1436749  37.3763537  39.2627335  47.2466946  36.0124326  39.5188451
  47.3242378  37.3524928  40.6112909  48.1576920  36.8373537  37.2946310
  47.3345757  37.1088409  36.6336584  49.0985918  37.0696616  36.7957878
  48.2467127  35.7715750  37.5050831  49.7599363  40.4771757  39.5459628
  50.5068874  39.8622847  40.2813864  50.1897001  41.4970779  38.8473415
  49.5129681  42.0300007  38.3199596  51.5333700  42.0870066  38.8732505
  52.2892380  41.3508797  38.5995889  51.6501570  43.2222319  37.9616690
  51.2951851  42.9533291  36.9667888  50.9327459  43.9088917  38.4110308
  52.9848433  43.9423895  37.8362012  53.3487082  44.1078329  38.8502693
  53.7032986  43.2831383  37.3490524  52.8555155  45.2232838  37.0039868
  51.7961884  45.7221174  36.7620540  53.9348125  45.7094288  36.6030431
  53.7911892  46.5456676  36.0551548  54.8730373  45.3470373  36.6952324
  51.9498205  42.4617672  40.2679348  53.0080414  42.0101500  40.6598616
  51.2093925  43.4369278  40.9031391  50.4231071  43.9170885  40.4892445
  51.3702202  43.8025904  42.3103952  52.3520041  44.2597961  42.4335384
  50.3035069  44.7546005  42.7207518  50.2104855  45.5774641  42.0119905
  49.3498564  44.2267370  42.7256441  50.5543327  45.3227329  44.1114902
  51.7010498  45.7653189  44.3508387  49.6040773  45.2633953  44.9511337
  51.4145994  42.6373911  43.3040333  52.3434448  42.6033783  44.1134882
  50.5277205  41.6189766  43.2922173  49.7515678  41.6654682  42.6476097
  50.8353567  40.3092670  43.9189482  50.9347343  40.5283737  44.9820662
  49.6929216  39.3075013  43.7602997  49.5706511  39.0943503  42.6983547
  49.8943758  38.0354214  44.5671225  49.1129494  37.3099279  44.3410063
  50.8106947  37.5188065  44.2815113  49.9833107  38.2660985  45.6287146
  48.4253597  39.9722981  44.3364191  47.6851320  39.1736484  44.3846321
  48.5571003  40.4641104  45.3001976  48.0674028  40.7527590  43.6649704
  52.1531343  39.6087909  43.6025429  52.8318787  39.2086434  44.5650768
  52.5273705  39.6138406  42.3183060  51.8954515  39.9172020  41.5911531
  53.8015318  39.0703154  41.8884325  53.8520575  38.1030297  42.3883390
  53.7489033  38.9228058  40.3644133  52.8907490  38.3269048  40.0536489
  53.5703659  39.8702526  39.8559189  54.9939299  38.3237100  39.7850537
  55.1131439  36.9148088  39.7595191  54.2765093  36.3486052  40.1414347
  56.2036085  36.2425804  39.1783834  56.3802528  35.1796913  39.1044044
  57.1677017  37.1145344  38.4886909  57.9136896  36.6047239  37.8970814
  56.9797373  38.4819150  38.4646082  57.7468300  39.0616870  37.9728436
  55.9621620  39.1227031  39.0992832  55.9128666  40.2003241  39.0472627
  55.0855637  39.7468400  42.3352575  56.0266972  39.1182637  42.8522968
  55.1394367  41.0860395  42.1932411  54.3022776  41.5143156  41.8246603
  56.2211227  41.9718027  42.5723314  57.2079086  41.6861105  42.2080040
  55.9987831  43.4169054  41.9807816  54.9928904  43.7398672  42.2490501
  56.6649389  44.1037464  42.5028801  56.1499596  43.5276985  40.4638195
  55.5573702  42.7628183  39.9619246  55.7608128  44.4925022  40.1385260
  57.6085854  43.3892107  39.9392748  58.6231136  43.3609104  40.6685591
  57.7783585  43.2926607  38.6867738  56.3211012  42.0304155  44.0947199
  57.3874664  42.4280596  44.6008539  55.2869081  41.6726542  44.8999739
  54.3967533  41.5116501  44.4507504  55.4840469  41.6223431  46.3110828
  55.9903049  42.4966288  46.7202711  54.1547060  41.6858482  47.0875311
  53.5769939  42.5644636  46.8005037  53.5648823  40.8486938  46.7142010
  54.2653275  41.6527128  48.6164331  55.2681828  41.8248034  49.0072775
  53.6907101  42.4792290  49.0345049  53.6284828  40.0815344  49.2428827
  51.8719244  40.6134367  49.4463396  51.7811298  41.2176991  50.3489590
  51.4916182  41.2592459  48.6548758  51.2198591  39.7400856  49.4593763
  56.2765169  40.3974485  46.7508936  57.0652819  40.5293179  47.6402807
  55.9989882  39.2061472  46.1329365  55.2861547  39.2503858  45.4187870
  56.7966986  38.0146503  46.4166641  56.8827343  37.8633738  47.4926805
  56.0095692  36.7743421  45.9468794  56.0590506  36.8747377  44.8626423
  56.5416718  35.8858800  46.2868929  54.5246887  36.6289759  46.4481878
  53.9538717  37.4604297  46.0347223  54.1750669  35.6242800  46.2105989
  54.4399929  36.6868353  47.9990339  55.2600956  36.0225320  48.2714844
  54.5909977  37.6839352  48.4126616  53.1602812  36.2550998  48.5335255
  52.5042868  35.7002211  48.0026007  52.7177763  36.3626981  49.7458649
  53.2821465  37.0789886  50.6294727  54.0321016  37.7158308  50.4012203
  53.0111837  36.9706392  51.5963984  51.5853214  35.7908988  50.0405312
  51.0592318  35.3284049  49.3129110  51.3753557  35.6971765  51.0240078
  58.1724262  38.1013489  45.7717228  59.2289543  37.7693677  46.3132858
  58.2351637  38.5905361  44.5270014  57.4026299  38.9581561  44.0890026
  59.5368338  38.7027764  43.7727547  60.0287914  37.7327776  43.7007618
  59.2380428  39.1778922  42.3312473  58.2142878  39.0149117  41.9944048
  59.3423367  40.2619600  42.3762226  60.0715542  38.4341431  41.3291025
  59.5342207  37.3054552  40.6791830  58.5514879  36.9670033  40.9725952
  60.2736664  36.6864872  39.6808529  59.8933649  35.7746267  39.2446399
  61.6068125  37.1012187  39.3620038  62.2597075  36.6233945  38.6465931
  62.1603584  38.2117105  40.0600100  63.1299448  38.6013246  39.7870374
  61.2865067  38.9931941  40.9578896  61.7586231  39.7641325  41.5487909
  60.5283213  39.6274781  44.4108534  61.6948032  39.2793798  44.3763065
  60.0296307  40.7129526  45.1226377  59.0260887  40.8261347  45.1364851
  60.8139038  41.6350174  45.9575224  61.6433811  42.0134068  45.3601217
  59.9075222  42.7188206  46.5215731  59.1078568  42.2772169  47.1162415
  60.5255795  43.4728384  47.0089722  59.5036602  43.2655764  45.6694794
  61.5725470  40.9446287  47.0566082  62.7238703  41.1598396  47.3923111
  60.8891106  39.9463940  47.6000404  59.9471998  39.7048855  47.3269415
  61.2881184  39.2561722  48.8571835  61.9849062  39.8693466  49.4286823
  60.1063633  39.2609596  49.8131990  59.5985126  40.2091646  49.6368599
  59.3600464  38.5370660  49.4859409  60.3939819  38.9551282  51.2967348
  60.7113075  37.9133129  51.3417482  61.2721586  39.5005298  51.6423368
  59.1799021  39.1887665  52.2655201  58.8995314  40.2420902  52.2677994
  58.3982658  38.5226679  51.9002056  59.3821669  38.7947989  53.7121010
  60.3969765  39.0824056  53.9869595  58.6496449  39.3441415  54.3034840
  59.2551374  37.3359179  53.9576769  58.2891703  37.0550466  54.0478039
  59.6157885  36.7811203  53.1946373  59.6845388  37.1015143  54.8412943
  62.0796824  37.9464531  48.6924553  62.8301048  37.6040697  49.6075201
  62.0847178  37.3935890  47.4475193  61.4152145  37.7575469  46.7846441
  62.8015327  36.1110020  47.1893692  62.2864771  35.2596450  47.6343441
  62.7907705  35.8348036  45.6743383  61.8600559  35.3314352  45.4126453
  62.8184891  36.7994738  45.1676416  63.8534689  34.8554969  45.1930952
  64.8475122  35.2416825  45.4185724  63.8730669  33.8940048  45.7061768
  63.8637877  34.4412351  43.3612442  63.9905882  36.1209774  42.5659132
  64.8356915  36.6924071  42.9498053  64.0653658  36.0332179  41.4820242
  63.0285454  36.6077900  42.7258873  64.3115139  36.2923861  47.6313448
  64.9430895  37.2954583  47.2580767  64.9016857  35.3972244  48.4292841
  64.1540098  34.2521071  49.0188694  63.7209129  33.6179852  48.2452917
  63.3703661  34.6749616  49.6475124  65.2389193  33.5356283  49.7951031
  65.7003260  32.8770542  49.0592432  64.9070644  33.0105639  50.6908035
  66.2212467  34.5502305  50.2557278  67.2068596  34.0857697  50.2865314
  65.8161020  34.9712801  51.1758757  66.1275530  35.6320500  49.1611719
  66.1707783  36.6006351  49.6592426  67.3832130  35.5623055  48.1873465
  67.6556444  34.5570493  47.5546312  68.2088232  36.5926051  48.1925344
  68.0311108  37.3547149  48.8310528  69.2210054  36.9369411  47.1500587
  69.5835972  35.9703135  46.8003988  68.5643387  37.6871657  45.9849215
  67.7018213  37.1002102  45.6692553  68.1020784  38.6126328  46.3283300
  69.4883156  37.8963280  44.7758532  69.7891712  36.8703842  44.1565752
  69.8526525  39.0389371  44.3687916  70.5053043  37.7714491  47.6645708
  70.4300451  38.4403515  48.7733412  71.5508795  37.5396299  47.0431662
  32.1516967  42.5233698  37.7132559  32.7948451  42.1154404  36.5127516
  37.7297473  40.2339554  23.8913751  42.1099758  36.7485905  28.0576658
  32.9700351  40.8313656  36.1460018  42.2820044  40.7066584  25.6291151
  37.2051430  42.0604658  25.2545404  37.4169278  48.4303045  41.5959549
  43.4322357  40.4475641  26.3061023  32.6141143  39.8969650  36.8385625
  33.7047887  40.6074095  34.8492217  41.7898178  39.4090533  27.3059273
  33.5810494  52.1558237  36.4910889  34.2169619  41.6615725  34.0641212
  33.5905242  48.9524841  38.6671686  31.7543840  50.6738520  36.6290164
  35.0382328  41.3989782  32.9690099  34.3394494  51.2489986  42.5996399
  33.9533496  39.2713809  34.4150329  33.9362955  51.5050983  41.2763214
  34.7758913  39.0072846  33.3192492  34.8125315  49.5022774  41.3683414
  35.4006600  40.0895929  32.6071382  38.8877416  40.1603651  27.0058179
  36.2838554  39.9127555  31.4103699  37.4611306  39.1736603  31.5582609
  38.3056927  38.8969159  30.4347777  37.9281521  39.4198799  29.1499805
  38.8194203  39.2581129  27.9790258  39.8318839  40.0890923  25.7914591
  39.4872046  41.3371086  24.9484015  38.0007958  41.3021612  24.7122669
  36.4172006  39.7315216  23.7505937  41.2908602  40.0867462  26.2312484
  43.1354856  39.6218848  27.3122787  44.1576195  39.3204904  28.4052110
  41.2076235  38.2381654  27.7981877  39.8040128  38.1760454  28.0050993
  39.4575477  36.7555761  28.2067251  38.0190420  36.3393927  28.1877637
  40.5132008  35.9422493  28.1400251  40.2820301  34.4614410  28.1948709
  36.8172407  40.1854897  29.0444970  35.9632277  40.3753662  30.1172233
  35.2788305  49.4827032  43.8636780  39.1977811  46.8024158  40.1820517
  36.9041157  46.5845585  37.9104853  31.1478662  52.0112514  34.6224380
  32.7272415  49.9643660  34.5015049  30.2662253  49.6690035  34.9936175
  33.5761094  44.1651487  39.0572023  32.2571683  45.0025511  37.2670531
  34.0945411  45.4287910  39.3359852  32.8289795  46.2962675  37.5172186
  32.7858281  51.3569450  38.6143303  32.7730656  51.4936733  37.1201634
  34.4021511  47.8846836  38.8349891  32.6638007  43.9302778  38.0053067
  34.9887347  50.1468372  42.5569153  33.8038945  46.5072489  38.4972119
  37.8592515  47.5144148  40.1299667  36.8202686  47.3673248  39.1911983
  34.2079115  50.4103088  40.5915737  35.6327868  48.0329275  39.5887423
  35.8363485  48.6955452  40.8119917  33.9086437  50.3645086  39.0642333
  31.4496541  50.5823565  35.2242875  36.5318322  38.8080215  22.5460720
  35.2864981  40.8381939  23.4414220  36.1580396  39.0147376  25.1109242
  32.9526711  42.7716541  35.7573366  31.0660267  42.4430084  37.5788975
  32.3242092  41.8244362  38.5408545  34.0015411  42.7189445  34.1864228
  35.3622746  42.2219658  32.3388624  33.5678434  38.4313846  34.9852848
  34.9632502  37.9824519  33.0126333  37.9374671  38.8509727  32.4793315
  39.2959881  38.4874964  30.6110907  39.6902776  39.1037965  25.3306699
  39.5753980  42.3049641  25.4554892  39.9282241  41.2947941  23.9457226
  44.8689842  40.0766659  28.7570977  44.8079252  38.4710383  28.1660652
  43.7538338  38.9067411  29.3365645  37.3620915  36.9008923  28.8621497
  37.8892255  35.2718067  28.4000444  37.6269889  36.5332055  27.1825838
  41.1738110  33.8869476  27.9186010  39.4899917  34.3351078  27.4476290
  40.0041676  34.1002941  29.1918802  36.5620899  40.6666708  28.1049442
  35.0668907  40.9880257  30.0921440  34.8617840  48.5295773  44.2090559
  34.9100208  50.0401688  44.7325039  36.3308668  49.4271564  44.1666555
  39.0913606  45.7114697  40.1948214  39.7669244  47.1055984  41.0685110
  39.7302389  47.2009563  39.3106651  36.7824554  45.5019045  38.0317736
  37.9111314  46.6184044  37.4787092  36.1305046  46.8038321  37.1654367
  31.9911695  52.7081251  34.5526934  30.3952265  52.5310850  35.2265620
  30.7014632  51.9172573  33.6256719  33.5208774  50.7094383  34.3724394
  32.4701905  49.7455835  33.4585667  33.1215572  49.1167498  35.0739694
  30.5121756  48.6444998  35.2961826  30.0624228  49.5567656  33.9223933
  29.3820715  50.0949478  35.4819751  33.7877274  43.3003283  39.6790504
  31.6601157  44.8489571  36.3729978  34.6979260  45.4908085  40.2368069
  32.5773072  47.1560812  36.9033885  31.7959762  51.0637140  38.9829278
  32.9858136  52.3769331  38.9625931  34.8331189  50.6761932  38.5628462
  37.3045301  38.1062794  22.8809619  36.7983055  39.2967319  21.6017103
  35.6264114  38.2062888  22.4053860  34.9636984  41.2696457  24.3960500
  34.4080830  40.3770399  22.9751849  35.6375670  41.6489363  22.7924895
  35.1750326  38.5325050  25.1638722  36.2038636  39.6493053  26.0036063
  36.9051361  38.2462120  25.3408647  47.2058344  26.4583683  49.7523403
  11.3371670  77.2935915  28.1910753  11.7054570  77.9584837  27.6092529
  10.7755435  76.7643261  27.6247811  36.8557668  54.7900295  24.5164394
  37.0234084  55.7285309  24.4307375  36.4108038  54.5509768  23.7033629
  69.1550827  26.9204116  60.5478382  68.5478687  26.6952968  61.2527132
  69.4419861  27.8100562  60.7538700   4.5720804  69.7322083  16.6089463
   4.4979256  68.7832642  16.5077603   4.5371649  70.0718832  15.7147241
   4.0271905  10.4043078  19.2422569   3.7812799  11.1760437  19.7523391
   4.6809185   9.9591672  19.7814429  13.0612874  19.0087366  54.5909691
  12.1358669  19.2441857  54.6572495  13.0806088  18.0654716  54.7525549
  72.9633617  36.4699221  24.8261023  72.3649931  35.7230258  24.8442531
  72.3959398  37.2280669  24.6865416  77.5225973  70.1601458  58.1515312
  77.0961857  69.7303200  57.4101448  77.7521181  69.4441271  58.7438726
  79.1409063   4.0102640  10.3857851  79.2904568   3.1039375  10.1166415
  79.4660807   4.5342702   9.6537256   7.9205161  56.2725735  22.8619313
   8.0523026  55.3251553  22.8973627   8.0560881  56.4990091  21.9418335
  65.5694008  66.4971876   0.8050560  65.9842443  66.4641619   1.6670562
  66.1864662  66.9863939   0.2608672  81.8729305  76.4796734   1.6574226
  82.4597454  77.2349167   1.6959368  82.0462036  76.0001755   2.4675414
  40.5889082  15.0336528   1.5393755  40.4965544  14.1684985   1.1403627
  40.6450891  14.8593402   2.4788916  71.8472099  51.6499710  23.4434843
  72.4070644  52.1751451  22.8716564  72.1065283  50.7455015  23.2676220
  55.2002764  56.1625767  36.0387063  55.6782579  56.3596821  36.8442583
  55.4831076  56.8370914  35.4212403  12.1592593  38.1030631  12.4911630
  11.2056112  38.1720066  12.4460661  12.4428988  38.9406967  12.8574276
  53.8570786  51.6441393  68.0301666  54.6282864  52.0729542  68.4010935
  53.2636499  51.5341187  68.7731075  -0.2231716  28.1759667  58.6829948
  -0.1059964  28.4043598  59.6051359   0.6568821  28.2267880  58.3099604
   4.6273664   6.2843329  19.6059310   5.5460739   6.5002382  19.7659087
   4.3523750   6.8976045  18.9243817  16.5512609   3.1362826   8.2351112
  15.9643173   3.7692916   7.8215563  17.2708452   3.6657929   8.5786927
  20.4361773  14.1342640  22.6136994  20.3730750  15.0814712  22.4910283
  21.3036609  13.9066911  22.2791672  74.3857098  65.5469131   2.0255587
  74.1210318  66.2287951   2.6429889  73.5630035  65.1484871   1.7415901
  27.0044112   9.4399214  40.0490522  27.3885679   9.1617650  39.2176175
  27.7436209   9.4694984  40.6564426   2.8211740  68.3499670  29.6908951
   3.4036797  69.0436840  29.3815732   1.9720432  68.7791967  29.7956371
  10.0250280  22.6072121   4.1997129  10.3589022  23.0339170   4.9888152
   9.8119885  21.7172813   4.4805467   8.9282024   0.8147836  33.7261868
   8.2840741   0.5857124  34.3961525   9.6772575   0.2480163  33.9103699
  57.9320431  66.5603924  21.4130020  58.8554001  66.5631819  21.1607361
  57.7714014  65.6694746  21.7239618   1.2000057  70.4682970  13.6248112
   0.9313235  70.0158930  12.8252029   2.1346396  70.2779484  13.7051713
  63.6441565  72.1244812   2.5715283  63.4208727  71.7599678   1.7150784
  62.9335022  71.8392944   3.1458688  10.7224846  73.7244892  26.2535715
  10.5849195  74.6584892  26.0955930  11.2177813  73.6904049  27.0719552
  44.8506021   4.3939447  20.7088757  44.9468422   4.7806811  19.8385847
  43.9508152   4.0679783  20.7279515  30.9624910   4.1539750  29.5235896
  31.8185449   3.7340313  29.4396305  31.1628461   5.0750345  29.6901393
  23.1668830  47.9868174  28.1225824  23.4392762  48.8898897  27.9598069
  23.9393878  47.5684452  28.5026240   4.7047678  12.1047962  22.8875637
   5.6224710  12.0898306  22.6158476   4.4470719  11.1832535  22.9117179
   9.4034684  73.4450912  15.7223690   9.2496175  72.5012159  15.6816304
  10.3555608  73.5306644  15.7716441  20.6900549   6.4066219   8.2954413
  21.5220737   6.6815507   8.6806566  20.8112264   6.5258825   7.3534614
  33.6397982  15.8825839  21.7069960  34.3761301  15.7876539  22.3111773
  32.9683304  15.2949929  22.0535493   7.5505418  50.7684565  45.6262732
   7.3008001  51.6880989  45.5361700   6.8159139  50.2828979  45.2510500
  34.3656969  25.1064658  14.1372669  35.0224209  24.4538593  14.3802655
  33.5284734  24.6547627  14.2433536  52.8951073  58.3737993  61.2180758
  53.1091452  57.7108097  61.8744755  53.6419439  58.9724064  61.2298918
  78.6365509  79.4443417  30.4772806  78.7734842  78.6062765  30.9190154
  78.5874844  80.0842190  31.1874747  22.9167318   9.5824122  10.1090813
  23.3559132  10.3468478   9.7362679  23.4510565   9.3451595  10.8669996
   7.3039263   8.3723539  36.9318700   7.8102744   8.1629348  37.7167201
   6.4199108   8.0615270  37.1271515  71.3902426  55.6130219  36.6115522
  71.4562130  54.7145796  36.9350982  70.4743099  55.8520651  36.7535138
  84.0605640  19.3450141  46.3540125  83.5408020  20.1281404  46.1729431
  83.5483170  18.8622570  47.0026827   7.7690452  45.8809423   8.0641413
   8.0040395  45.8059216   8.9890099   8.0927759  46.7433453   7.8039581
   3.2498652  62.9874468   0.6622831   4.0416074  62.6946259   0.2110274
   2.7935874  63.5290670   0.0183200  53.3103180  44.3288136  58.5280848
  53.0760431  45.2294827  58.3041668  53.2822227  44.3047476  59.4845676
   1.4353116  16.6257250  34.1051579   1.2389304  15.7203841  33.8642764
   2.2679469  16.5734875  34.5744348  54.8173332  75.9213114   9.7361320
  55.7493019  75.9425020   9.5188475  54.7745085  76.2378836  10.6384516
  62.6048756  73.1036663  12.3815417  62.5954151  72.5667286  13.1739020
  62.3016787  72.5154305  11.6899633  38.3702898  10.0759208  61.6143847
  38.7923837  10.7685292  61.1060905  39.0738559   9.4551647  61.8038225
   9.1064382   5.4124749  26.9572473   9.0047008   4.5710164  27.4020267
   8.7544280   6.0537803  27.5745368  20.7958484  14.7202480  35.0682640
  21.3914967  13.9907181  34.8973227  20.4007006  14.5134199  35.9152079
  82.9222488  62.1918631  36.3830709  83.6562347  61.9821119  35.8055758
  82.3367310  61.4382029  36.3096166  20.2829790  45.0342512  11.7219031
  21.1450982  44.6684837  11.9198883  19.6669543  44.4439268  12.1557939
  29.0329576   6.1878031  27.0173812  28.1887770   6.3215476  27.4483132
  28.9013100   5.4157346  26.4670968  28.9971781   2.9575363  15.1768219
  28.4728789   2.7703220  14.3981719  29.9018312   2.9490739  14.8641491
  14.4522035  26.0100293  22.7535129  14.4269764  26.9665575  22.7280354
  15.3635788  25.7892704  22.5614429  79.1871166   5.5419391  24.9279594
  79.5354366   5.8166116  25.7761693  79.0463686   6.3596338  24.4506788
  37.2736216   0.4122248  49.6293259  37.1928382   0.6671096  50.5484200
  36.5330648   0.8374240  49.1968775  62.1546364  78.6565924   8.5700232
  61.4243650  78.1392002   8.2305521  62.3785067  78.2382679   9.4013572
  12.2765589  70.0592899  23.6935234  11.7958629  70.2008724  22.8779745
  13.1927812  70.2094412  23.4606671  15.2396679  59.8816967  37.3131919
  14.7884130  59.0969324  37.6242280  15.2493382  59.7906351  36.3603806
  51.5765333  71.1282587  23.6600256  52.1810007  70.9983349  22.9292965
  51.9142532  70.5618668  24.3538380  22.8065395  65.3929615  34.6264338
  21.9890213  65.7555199  34.2851853  23.2544780  66.1415195  35.0204468
  69.9884319  19.6010196  32.7600932  69.8736668  20.5491376  32.8243804
  69.9789858  19.4218206  31.8198633  23.4669304  10.8049393  45.7758427
  23.3129311  11.6185474  46.2560081  22.8515291  10.1802182  46.1595583
  12.3882806  54.7587395  54.6985960  12.7068090  53.8808060  54.9083567
  11.6864967  54.9161720  55.3302193  66.6565466  28.6422896  27.8528428
  66.0195255  28.8365769  27.1653175  66.1607456  28.7207770  28.6678600
  13.8248682  66.7248726  18.7431526  14.6258307  66.6158867  18.2304978
  13.5877192  67.6445818  18.6243224  30.8380580  35.6293035  68.9741611
  30.3822136  36.3117886  68.4815645  30.3129411  34.8413944  68.8338757
  26.1999249  21.9365692  49.8998213  26.0956120  20.9858012  49.9371433
  25.5039763  22.2309947  49.3122816  41.7514277  24.4823980  48.6442375
  41.5097189  25.1369953  49.2994595  40.9516907  24.3450880  48.1364965
  22.4805975  39.6602988  42.3827982  22.4634862  40.5278778  42.7868319
  23.3975649  39.3904543  42.4336386  57.1913099  41.0881424  10.2054858
  56.2788677  40.8116341  10.2904892  57.4691153  41.2761450  11.1019850
  29.0306211  16.4452088  63.7317085  29.6426177  16.3204992  64.4570637
  29.5568371  16.2964499  62.9460859  61.4676809  78.4439802  55.8547735
  60.7898378  78.3200836  55.1903915  61.1276197  79.1400385  56.4169931
  20.4250503  41.8416119  12.3199880  19.9995804  41.7190838  11.4713454
  21.2411094  42.2980118  12.1151078  66.2404680  65.4167557  10.6184745
  65.5227995  65.7630348  11.1488247  67.0332813  65.7127047  11.0657942
  36.3259983  18.4195578  67.2998047  36.5173292  17.7614844  67.9680586
  36.8467307  18.1507778  66.5429497  46.2506866  26.8902993  13.2479703
  46.8681812  27.5564408  12.9460001  46.7719173  26.3183784  13.8114011
  61.3868761  65.2420378   5.6663811  60.5958939  65.5994511   5.2628541
  61.6309261  65.8885193   6.3287532  24.2784405  49.4039202  18.5096562
  24.8854542  50.1437902  18.4908330  24.6436810  48.7784767  17.8838336
  43.6379480  40.9135628  61.0516739  43.7923527  41.7543507  60.6210184
  44.1950417  40.2959394  60.5779457  70.9348583  43.0726433   9.6528763
  71.2972403  42.1871710   9.6821147  70.2494240  43.0290270   8.9861590
  65.4840422  16.9095051  66.0642004  65.6329584  16.5619528  66.9435549
  66.2239456  16.5859544  65.5503082  39.1813779  56.2681150  17.6049256
  38.2682419  56.5499592  17.6595008  39.5486021  56.4781761  18.4635603
  12.4794018  73.7381935  19.7245824  12.2086895  72.9543352  20.2026105
  13.4172738  73.8139486  19.9003363  77.3257780  31.9916654  63.5912561
  78.2671499  31.9427872  63.4249496  76.9516850  31.2898874  63.0585289
  67.0320177  15.0161517  48.2750177  67.1187782  14.6655583  47.3885727
  67.5388241  15.8280694  48.2621336  55.0248909  61.6632032  11.5454531
  54.1144848  61.8341684  11.7866111  55.4312897  61.3477468  12.3526454
  84.0075588  15.2269149   9.5493799  83.6921215  14.7097659  10.2905214
  84.6865273  15.7896221   9.9216598  55.9953308  76.8972445   6.6279972
  56.3278532  77.7947998   6.6206461  55.2185154  76.9250345   6.0694104
  75.4788828  60.0031042   9.4833881  75.5644274  60.9474516   9.3525368
  75.2263546  59.6642065   8.6245465  81.6995525  22.0516610  39.2541718
  81.2485886  21.2157297  39.3728256  82.4266434  21.8500614  38.6651683
  42.2555971  12.2701156  55.9128904  41.9714117  12.9532957  56.5201235
  43.1979752  12.4095345  55.8195162  12.8856146  56.0583687  24.0037656
  12.1191525  56.2246609  23.4550285  12.6183355  55.3400707  24.5772147
  13.3263493   9.8107088  67.5819874  13.1905174   9.1534674  68.2644939
  14.2584908  10.0217783  67.6348495  67.2807217  33.6097836  17.6600921
  68.1419945  33.2021904  17.7512360  66.9766188  33.7308121  18.5595965
   1.3739520  72.4843645   3.0016497   0.7727288  73.0388165   2.5043073
   2.2391747  72.6932192   2.6495096  46.8539190  21.9691849  58.1635475
  47.4608850  21.2751389  58.4206963  46.1477184  21.5125394  57.7063990
  80.6527519  49.3426371  38.4382176  80.4327965  50.1688337  38.8686299
  81.4533043  49.5330095  37.9492354  67.5105619  36.3521552  29.8035526
  68.4117985  36.5938973  30.0170088  67.4552870  35.4208350  30.0176144
  76.9275093  19.9214959  61.2641287  77.8249121  20.1859212  61.0616922
  76.9560909  18.9647698  61.2736464  69.1710186  66.3122797  34.6915960
  69.9350262  66.6342068  35.1700139  69.4016218  66.4235163  33.7692738
  37.9672384  37.0528436  68.7740707  37.4698091  36.2694359  69.0087414
  37.3029137  37.6853776  68.5005665  50.5402184   9.6598577  10.8673143
  49.9719667   9.8785347  11.6058934  50.7574511   8.7367481  10.9973526
  25.5043292   4.7897893   6.9521660  24.6517754   4.8814493   6.5267485
  25.3105807   4.8325697   7.8885752  45.3179264  46.6276169  69.0950775
  45.7807970  46.5320969  68.2626963  44.5696068  47.1881628  68.8900566
  73.7207508  28.4775829  64.7334909  73.6736441  27.9504442  63.9359093
  72.8420019  28.8445401  64.8303080  44.1733027  29.4832468  51.6883898
  45.1065350  29.3878746  51.8786764  43.9683151  30.3836870  51.9402218
  20.6845379   2.3246670  22.4630475  19.7679615   2.5954252  22.4100494
  20.6617332   1.3760689  22.3370552  63.3328104  69.6723223  59.7966480
  63.9859200  70.2148199  59.3546343  63.0270958  70.2118731  60.5257988
  83.9206385  62.4495937  -0.1992452  84.6198392  63.1028154  -0.1737439
  84.1807723  61.7948820   0.4487622  54.2308569   6.0715801  67.2938490
  54.0415573   5.6478006  66.4567041  53.3860445   6.4147002  67.5850439
  77.4019575  76.5239811  10.9099615  76.9157791  75.9815121  11.5309203
  78.3214808  76.3733530  11.1291075  17.3461974  12.7993274   1.2197915
  16.7976213  12.0196760   1.3060421  16.7264450  13.5287809   1.2137428
  64.1361284  38.0596423   2.9079381  64.1406345  38.1405067   1.9541708
  65.0594997  37.9748797   3.1454894  51.5256405  19.5232713  35.5918431
  51.0776615  18.7102950  35.8255458  51.4667606  19.5633161  34.6372938
  49.4645023  13.9289176  63.4086990  49.0099812  13.3701038  64.0390682
  49.1206455  13.6584616  62.5573206  34.5021129  71.5359259  25.9457874
  33.9459634  72.1487236  26.4268374  34.4506168  71.8291950  25.0360775
   4.8261175  62.5221682  25.3417206   3.9519775  62.7433920  25.0205183
   4.9023938  61.5788651  25.1982093  64.9569368   3.2276380  60.5678272
  64.3638420   2.8063139  61.1898851  64.5884228   4.1017526  60.4399633
  57.8844786  31.3259149  46.9828987  58.1713486  30.8892202  46.1808777
  58.0544853  32.2544003  46.8240070  12.1909678   2.9363862  23.2255697
  12.6294398   2.1151185  23.0030990  12.1026397   2.9102924  24.1783285
  35.2138281  64.7235107  54.6803761  36.0027456  64.5143652  55.1804781
  35.5280614  65.2536154  53.9479303  60.9092665  40.6560993  17.5719202
  60.0108814  40.9850216  17.5411141  61.4400148  41.4273834  17.7710640
  12.7229881  53.0446672   1.5187202  13.4705770  53.2781935   0.9684408
  12.0838594  53.7397909   1.3620470  63.8377523  54.5215464  10.9208214
  63.2936287  55.3089762  10.9103513  63.2115793  53.7976074  10.9138370
  31.5054464  29.4078231  26.4548349  32.0346045  29.0408754  25.7466173
  31.5418077  30.3541183  26.3154173  58.6510134  47.8253937  27.7442861
  57.9390240  48.4217215  27.5125623  59.4485331  48.3142996  27.5413871
  55.1737070  -0.0403027  67.4963522  55.0146532   0.9013302  67.5616217
  54.4043732  -0.4417307  67.9003429  19.0264189  55.0077391  19.5162320
  18.1308615  55.2935028  19.6966469  18.9751947  54.0519762  19.5050621
  76.1609030  40.3813744  16.4925003  76.4287329  39.4632888  16.5326798
  75.2046871  40.3507948  16.4617443  37.2875094   7.7110654  65.7857418
  36.8232608   8.5121012  65.5427456  37.0830083   7.0933723  65.0836945
  43.4536743  16.9380546  59.5466137  42.9294395  17.7389085  59.5533609
  42.8171635  16.2340832  59.6711636   7.7644181  13.2678103  17.2574949
   7.5776803  13.2150555  18.1948197   8.6000657  12.8126562  17.1537673
  12.2797227   4.3054464   7.1830130  12.1649933   3.8199574   6.3660860
  12.3259759   3.6293066   7.8589767   1.9566612  47.7150154  38.8965249
   1.6482909  47.6088047  39.7964478   1.3701667  48.3700371  38.5181046
  25.9782267  21.8876600  13.0792844  26.1265635  22.6876998  13.5834324
  25.8119035  21.2154865  13.7401545  73.1560040  29.1581392  32.4265742
  72.7613831  28.6398172  33.1278920  73.0666351  30.0649881  32.7196145
  14.0339732  60.0435877  15.5712104  13.7745607  60.9528971  15.4225719
  13.6544597  59.8221970  16.4216161  52.8793621  19.3263960  65.6942987
  52.9735899  18.5826004  66.2893772  52.5017786  18.9505529  64.8990583
  37.9034734  63.6693716  19.6493447  37.6965261  63.8762808  18.7379754
  37.6875424  64.4677687  20.1311898  52.7782059  35.9986305  54.6586037
  53.2668114  35.2576828  55.0170708  53.4303045  36.6931772  54.5658350
  26.4056301  55.8171082  13.9444792  26.2172580  55.9339619  14.8756564
  26.4428377  54.8681355  13.8248885   8.2242882  61.0027075   4.3026456
   7.7752048  60.2035618   4.0271071   8.7357926  60.7384825   5.0673544
  80.5397797  45.7702065   1.3720606  79.8985767  46.3989878   1.7033058
  81.2931156  46.3053465   1.1223741  15.4012883  62.5740337   5.1122588
  14.6227002  63.0519295   4.8265192  15.2737176  62.4487114   6.0526055
  10.9584153  79.7343683   7.7931774  10.7069802  79.0655518   7.1562344
  10.7200456  79.3593645   8.6409873  79.7331858  50.7737255  45.0243664
  80.1764584  49.9391842  44.8717642  78.8102341  50.5902624  44.8490810
  77.1837521  38.1342149  60.3358173  77.4431896  38.0610538  61.2542820
  77.4430990  39.0204000  60.0835371  70.2003050  76.4397240   1.7622490
  69.4309521  76.8147612   1.3336794  70.0199413  76.5279198   2.6981562
  29.6746182  49.7641468  22.1400690  29.4216371  50.5231857  21.6146231
  29.5867085  49.0202665  21.5441275   4.0400702  56.0100698  10.3537297
   4.6253365  56.1314249   9.6060884   4.5398259  55.4672194  10.9634769
  67.8810644  72.4551678  43.5044527  67.6737261  71.8250799  44.1945457
  67.8226852  71.9500399  42.6934862  18.9913356  10.8337402  28.4767365
  18.2329977  10.2542830  28.4033656  19.0803730  10.9939027  29.4162321
   8.5671234  59.7601223  17.8315032   8.5665548  60.5747366  17.3288715
   9.4198465  59.3659639  17.6478434  33.5590649  66.7848015  19.6571958
  34.1458869  67.2867680  19.0915978  32.9625511  67.4378252  20.0232005
  83.4766197  56.6065454  27.2593069  83.9948654  56.8968010  26.5087080
  82.6127338  56.4150715  26.8942356   4.3086186  50.1872778   7.4761790
   4.2865342  51.0945749   7.7804160   4.8104519  49.7223139   8.1456602
  81.2164879   4.1657323  13.8722205  80.5868435   4.1832253  14.5929646
  80.8471775   3.5424519  13.2466292  30.5242848  28.5167241  12.1784115
  30.8770442  28.0453181  12.9331088  30.3193235  29.3889427  12.5152481
  13.4553134  25.0160670   2.2051822  12.6893532  25.2170992   1.6674812
  14.0381265  25.7652307   2.0814224  32.5786662  41.7545033   2.8525740
  31.6333961  41.6065311   2.8242794  32.6697588  42.7010822   2.9617637
  65.9265041  53.5400534  32.9668212  66.5150452  54.2940903  33.0025983
  66.2836123  52.9903746  32.2692823  56.7777300  13.8284540   1.8242192
  57.4194050  13.5943627   1.1536311  56.0257339  14.1573548   1.3317153
   6.8464994  39.8636770  47.7568865   7.2754997  39.0166855  47.8785086
   7.0045942  40.3321218  48.5765171  74.7794962  64.7962666  35.1114750
  74.5769548  64.9832964  34.1948366  74.7746372  63.8407278  35.1676941
   7.0690697  39.6369028  15.5943096   7.7287960  39.4733191  16.2682784
   7.0423830  40.5901527  15.5116367  13.7629867  62.0980549  27.1365309
  14.0727592  61.9098520  28.0224514  14.0108848  63.0100584  26.9848084
  77.3997736  73.6220074   9.5091784  77.5657940  74.0292692  10.3593588
  76.6037607  74.0478420   9.1909724  50.7389641  10.8984804  48.1264210
  50.8679008  11.5782535  47.4649715  51.5090561  10.3358519  48.0449200
   5.9370834  73.9043760   3.8741088   5.8025628  74.0796757   2.9427630
   6.8602216  73.6602974   3.9409932  47.4590874  40.7978201  55.8660316
  47.7506304  41.4260149  55.2052689  48.2368279  40.6324720  56.3989592
  39.7371221  21.3874006  53.3263540  40.6474400  21.5166759  53.0601931
  39.6882343  20.4634833  53.5717487  74.4582891  54.4894791   0.3881680
  73.6629677  54.6631765  -0.1153495  74.4412661  55.1363373   1.0935163
  20.8784032   3.0080885  45.6098747  21.6048050   2.5060675  45.9793997
  20.2607417   3.1045857  46.3347340  10.1159847  11.4335585  14.9420810
  10.0344682  11.5984774  15.8814359  10.9944868  11.0678697  14.8384571
   0.6559590  59.8653984   4.4244230   0.0249914  60.1396990   5.0899094
   0.1392788  59.7866392   3.6225066  15.9929776  67.4314499  36.3123560
  16.7476273  67.8317595  36.7442036  16.3611984  66.9906139  35.5466509
  38.9898229  27.9586983  55.3870249  39.1075516  27.8883672  54.4396973
  38.1774592  27.4841237  55.5633068  50.5155563  23.8844824  65.4929829
  51.1131287  23.1809235  65.2397060  49.7716761  23.7928557  64.8976088
   1.8054692  14.4238400  46.4744186   2.1345924  15.3221571  46.4438295
   0.9921325  14.4836819  46.9755507  72.9979324  73.7579632  54.6193171
  73.1370306  74.1456652  53.7552691  73.5079575  72.9481173  54.6033716
  69.0062523  23.1985998  13.2833695  69.0820932  23.2554984  12.3308778
  68.7900305  24.0890646  13.5600448   1.0772996  56.7169046  15.9428322
   1.3027973  56.0279274  16.5678906   0.3824047  56.3354683  15.4063046
  42.3604631   9.6613455   9.2260015  41.6548777   9.2596036   8.7190598
  43.0992985   9.0611291   9.1255599   7.0916212  63.9027786  11.7522418
   6.8709791  63.9067602  12.6836562   6.9193453  63.0047798  11.4691281
  20.6059861  67.4771881  13.1701553  21.2778091  68.1035519  13.4395242
  21.0720515  66.8481016  12.6194620  10.0404990  40.7576323  43.1768656
  10.4435873  40.1280355  43.7746620  10.6391430  41.5045309  43.1763268
  23.2428861  31.7547917  63.8507414  23.0674624  31.5410304  62.9343557
  22.4892831  32.2784019  64.1230392  23.8679862  47.5986338  15.9090698
  23.6743760  47.0174313  15.1735783  23.2070065  48.2884264  15.8496881
   9.4488370  16.6996074  32.9567719  10.3943574  16.7752790  33.0852103
   9.3490297  16.4951360  32.0270085  71.3478184  71.5684128  28.9968252
  71.7663097  72.3944902  28.7545609  71.8286753  70.9029579  28.5047078
   7.3548090  54.0968561   7.5221848   6.9657338  54.7453833   6.9354439
   7.9558396  54.6005392   8.0710912  52.5368834  20.4904151  60.6173468
  52.8386497  20.5950356  61.5196896  51.6314697  20.8007240  60.6300926
  76.4627838   0.3761747  20.1896977  77.2171116   0.2689588  19.6102810
  76.8424082   0.4566804  21.0647035  26.8880033  15.2573180  49.0633821
  26.3926840  15.6719553  48.3570051  27.7996564  15.4870284  48.8835144
  71.6913033  67.1255302  19.1211450  71.9679785  67.5595093  18.3140850
  72.2473621  66.3484907  19.1780031   4.0729746  31.9884992  26.3793635
   3.6581042  32.7021885  25.8948398   4.7616890  31.6710830  25.7952809
   3.3176383  49.1061211   5.2025181   2.4404702  49.2054605   5.5725712
   3.8966569  49.5151711   5.8456731  48.1334829  36.9402909  66.4035988
  48.9662123  36.4998698  66.5733814  47.6431227  36.8486142  67.2205305
  32.7375865  75.9765053   9.4650567  32.6470208  76.9177723   9.6135539
  31.8438268  75.6716251   9.3086141  27.3914623  45.9243059  23.4717250
  26.6870379  45.6346178  24.0514684  28.1334710  46.0804892  24.0559006
   9.9929392  18.1060374  35.8225942   9.8328137  17.1714222  35.6918836
   9.3994898  18.3538580  36.5315628  83.4938335  75.5114698  25.8979154
  83.4744358  75.3051662  24.9634123  82.5887108  75.7375479  26.1121225
  36.9895220  18.1745458  64.5900440  36.9191122  19.1195691  64.4551182
  37.2899580  17.8340268  63.7474203  70.6385231  51.7515326  40.2521229
  70.5220890  50.8146667  40.0941467  71.1414576  51.7966175  41.0652971
  20.6234860  50.5611992  42.3554230  21.4689803  50.9838867  42.2047472
  20.3601289  50.8563232  43.2270765  62.5831127   8.3346951  63.1079960
  62.1148682   8.7598109  62.3894882  63.4875631   8.2725179  62.8008699
  25.0808096   1.3940859  39.8324537  24.8988938   0.6247886  39.2927146
  24.2612672   1.5587054  40.2988052  57.6064444  32.8627563  56.4093351
  56.7355061  32.4820542  56.5223312  58.1382465  32.4503899  57.0900536
  65.5519342  49.4766521   7.2648442  65.7706785  48.9914894   6.4692330
  64.6823025  49.1588497   7.5076979  70.9638262  57.3387098  10.6238270
  70.5464315  56.6287470  11.1116457  71.1276770  58.0161238  11.2799489
  65.1086760  30.8339906   7.5523251  65.8716583  30.3498173   7.2366172
  65.2028990  31.7059755   7.1689236  59.9950171  50.0673151   2.2944653
  60.0539827  49.1254282   2.4544790  59.7196245  50.1382065   1.3804820
  73.7602663  39.6410990  41.8684149  74.1064453  39.3343425  42.7064419
  72.8105307  39.5629883  41.9585705  50.6115341  11.0226345  65.3647470
  49.9309444  11.3756299  64.7916651  50.2949667  10.1516259  65.6042480
  79.4245815  47.6566458  42.6294804  79.0615463  48.4144545  42.1710491
  80.1137924  47.3332787  42.0492601   5.1477772  59.8948622  25.2732825
   4.3401363  59.4585752  25.0019860   5.8416450  59.4209862  24.8147845
  49.1553926  10.6261992  45.7338095  49.3164968  10.1849294  46.5678072
  49.3255568  11.5505397  45.9151125  71.7811775  48.4126759  25.4862523
  72.0276213  48.8614035  26.2950420  72.6104069  48.2673788  25.0307298
  61.7686510  49.5115519  45.3668118  61.8435431  48.6111975  45.6830120
  60.8267355  49.6807194  45.3465223  54.2521906   5.5122244  62.1870995
  53.6638069   4.8841578  61.7680931  55.0862980   5.0481278  62.2586250
  39.8243546   2.5289971  23.9005399  39.0482020   3.0545664  23.7066388
  40.3689814   3.0978209  24.4446468  69.2279530  50.9176254  55.7042742
  68.4506607  51.4593744  55.5680513  69.5568705  50.7445621  54.8221779
   5.2942282  55.8217049  31.4108658   5.6067139  55.6650829  30.5197692
   5.6120360  55.0704002  31.9116426  41.2163544  13.0092335  18.1904817
  40.4564190  12.8343177  18.7455797  41.0972738  13.9132655  17.8993142
  34.6034098  53.7720633  28.2856941  34.3170381  52.8664398  28.1671023
  35.5593586  53.7231350  28.2841563  47.7393866  13.7456656  29.4055533
  48.2716179  13.6263227  28.6189651  47.1312952  13.0064797  29.3977118
  34.8767376  78.0735922  12.3068488  34.3045139  77.4924803  12.8079486
  34.3842602  78.8912439  12.2351670  81.1937237  50.3934526  67.9222345
  81.9995689  50.7341623  67.5339556  81.2356567  50.6659842  68.8388634
  27.0999527  36.7763543  21.3040900  27.1911335  37.4469757  20.6271982
  27.1069622  35.9485316  20.8235765  67.3722935  77.7276325   2.0527552
  66.8487978  77.4300528   1.3086942  66.8096399  77.5848484   2.8138489
  13.5393727  25.0500941  34.3036079  12.9857361  24.3038750  34.0736628
  14.0610242  25.2124906  33.5176444  29.0641689  26.8262744   0.4773505
  28.5781145  26.0131717   0.3400613  29.0609026  26.9499207   1.4265251
   1.7078447  48.8170290  20.4773569   1.0898328  49.5458937  20.5326104
   1.3860069  48.1811523  21.1163497  64.1736507  17.6747417  28.4145832
  65.0404978  18.0633008  28.2970142  63.6400843  18.0657196  27.7227187
  25.1395106   0.2796092   3.9939740  24.4218993  -0.0831078   3.4746423
  25.9215403  -0.1626277   3.6636934  81.4902306  72.8326225  59.6612453
  80.7102203  73.0437660  59.1481733  81.3167477  73.2058668  60.5254316
  45.1149702  39.0150523  59.4246578  44.9068642  39.5776200  58.6787033
  46.0613012  39.1056991  59.5363522  33.7684464  46.0435009  19.6716785
  33.9623857  45.3361368  20.2867031  34.6254873  46.4018250  19.4407761
  45.3207302  75.9843159  58.7021875  45.3423500  75.0920153  59.0479660
  46.0375547  76.4325571  59.1510534  29.2364526  12.5367904  18.2610106
  28.8244700  12.1673846  19.0420640  29.1659856  13.4841502  18.3783758
  53.3293009  30.7638884  54.4826412  53.9899445  30.0891781  54.6393061
  53.3989811  30.9547091  53.5472441  23.4544611  19.0854704  14.1963315
  23.1813765  19.6434975  14.9245226  23.4509897  19.6660292  13.4352982
  76.4725161  68.9823008   9.2014050  77.0242119  69.7233391   8.9509618
  76.0427713  68.7179565   8.3879727  36.4447713   4.7452739   9.1298592
  36.8100858   5.6298637   9.1131705  36.5396118   4.4641042  10.0399041
  70.9937096  25.8093643  50.6717157  70.9475565  24.9826264  51.1519289
  71.1035395  26.4749789  51.3507748   2.5368980   4.2619729  21.8607259
   2.8349870   4.9841335  22.4137712   2.7343112   3.4745806  22.3679471
  22.5960493  42.2919798   8.7356395  22.2414780  43.1441593   8.9892173
  23.5348344  42.4453259   8.6288768  41.4784431   8.3621204  28.6311364
  41.7249060   7.4908978  28.9417171  41.2243748   8.2279027  27.7180839
  44.3038273  27.7026010   1.1858638  43.4138298  27.3513436   1.2133722
  44.4024611  28.1703305   2.0151600  34.1571999  14.1187966  27.5115705
  33.8869166  14.2596984  28.4189439  34.1190839  14.9880373  27.1125722
  28.2364750  32.0054388  37.0156264  29.1497350  32.1545768  37.2604704
  28.2461953  31.9794679  36.0588288  41.7228174  48.8056231  65.9443903
  41.1051035  48.0744219  65.9476566  41.9976902  48.8828707  65.0307655
  81.8463612  29.7845030  66.4338350  81.9691563  29.4986606  67.3390675
  81.2146091  30.5012083  66.4925861  12.0663989  75.7382679  15.0083542
  11.7121458  75.0758171  15.6015575  11.7390227  76.5687609  15.3538132
  34.3286729  11.5477085   1.3919577  34.6230197  10.7595563   0.9354402
  35.1326156  12.0358825   1.5697007  54.6957779  79.5077181   4.2275035
  54.6053600  79.1914177   3.3286095  55.5730677  79.2306900   4.4917864
  70.6068134  22.1027017  46.7798567  71.0789680  21.2741280  46.6976023
  71.2946987  22.7631617  46.8625879  39.8912179   0.4409261  42.2854185
  40.1994467  -0.4550414  42.4213171  39.3673122   0.3952594  41.4856243
  26.8899226  59.5340919  26.4064336  27.6673055  58.9774275  26.4514804
  26.1631918  58.9217758  26.2917089   6.2485689  75.2503681  22.3923802
   6.9151205  75.5394888  21.7692041   5.8318400  74.5010233  21.9668794
   1.0860078  79.1523933  13.6968410   1.6666189  79.8628616  13.4241509
   1.4477876  78.3725119  13.2759738  35.7289195   3.1449980  60.3012419
  35.7717180   2.4412343  59.6538496  34.9021435   3.5905325  60.1163864
  58.1648302  10.0206292  10.8379376  59.0355062   9.9029845  11.2178242
  58.0007267  10.9614837  10.9019208  77.3441124  51.2760353  58.6548758
  77.9097986  51.7564726  58.0503798  76.5418005  51.7963791  58.6968946
  79.7684145  72.2786903  13.6521840  80.1368713  72.6914835  12.8711092
  78.8209629  72.3533630  13.5382271  21.8688822  23.3500147  12.7506065
  21.2539816  24.0831447  12.7761197  22.3040986  23.4318614  11.9020081
   2.4966389  35.5523467  35.2568102   2.4706420  36.3151217  35.8345056
   1.9073538  34.9201155  35.6682205  54.9915743  58.7027884  66.6010427
  55.2550220  58.6341858  65.6833696  55.0803518  57.8131199  66.9428635
   9.3550700  64.6792269  10.4829407   8.5134560  64.4169474  10.8559394
   9.7864366  65.1669550  11.1845648  60.9443855  73.9033031   6.8994176
  60.2616596  74.2417860   6.3201571  61.1186314  74.6205091   7.5089169
  52.1080542  23.0809093  26.9712806  52.1517706  23.5721469  27.7916503
  52.2886181  23.7314010  26.2926841  48.6344481  59.0647793  31.1064029
  48.9193773  59.8648119  30.6648254  47.7269506  59.2391539  31.3559484
  76.7535448  71.4372730   3.0051875  77.6691294  71.1606264   2.9677022
  76.2773752  70.7539845   2.5333714  76.8568277   6.6101426  29.7931480
  76.8553591   6.2591147  28.9026380  77.3838711   5.9882611  30.2948642
  60.2498150  23.2343984   4.0567407  60.5963659  22.6074624   4.6916303
  59.4771338  22.8032398   3.6916429  46.8137550  42.2939253  68.2839489
  47.5760889  42.8309011  68.0677652  46.0810184  42.9097843  68.2903004
  55.5790472  48.5278034  41.1749172  55.6795740  48.6314344  42.1211672
  54.8977852  47.8624439  41.0778809  10.8361077  78.3560801  30.7072592
  10.2264583  78.0853319  30.0207782  11.5601385  77.7331829  30.6438947
  44.0924883  38.5287714  49.4328165  44.9300480  38.9662290  49.2799807
  43.6373949  38.5824156  48.5924292  79.9922609  61.6522455  46.6043758
  80.0565815  60.8737087  46.0512209  79.5469618  62.2989273  46.0568857
  58.2702065  25.0091958  10.8248210  58.2537651  25.8929229  10.4574132
  57.4325800  24.6259689  10.5645216  73.6404514  44.7771692  61.6174793
  73.5673761  45.1884413  60.7562304  74.5741224  44.8187160  61.8242931
   3.5608307  34.6316314  64.0396118   3.2996923  33.9308214  63.4421968
   4.2618942  34.2482591  64.5666456  19.4864380  69.4982243  20.2927279
  19.6639466  68.9166498  19.5534778  20.0682187  69.1879702  20.9866333
  73.3976984  25.1393723  11.4490330  74.0356398  24.5928741  11.9079483
  73.2654381  24.6993518  10.6093180  73.6796141  54.9545193  45.1613331
  73.2385015  54.1089725  45.2432156  74.6123457  54.7395325  45.1662016
  53.0446768  60.2747393  33.6222029  52.3669672  60.8468533  33.2621646
  53.2539988  59.6726131  32.9081583  47.1460676  29.5272899  48.4505653
  47.1167612  29.2266822  47.5422621  46.9193363  28.7534928  48.9663792
  70.4453039  73.9397812  16.4412761  70.1671457  73.9570570  17.3570049
  70.1014900  74.7528219  16.0711455  56.7233849  21.5511370  48.3289003
  55.8736372  21.1417937  48.4919930  57.0175838  21.1707330  47.5012684
  73.6432743  62.3743153  55.1754665  73.2626295  62.3917150  54.2973757
  74.5482445  62.6597977  55.0499153  15.4315507  23.5327506  64.5466566
  15.8349884  22.6687574  64.6302366  16.1672437  24.1444278  64.5755816
   1.7065990  67.9006481  16.0736728   1.0469422  67.3137283  15.7040679
   1.2965137  68.7653065  16.0528183  51.8773794   9.1870606   8.3539671
  52.5061703   9.8510325   8.0711287  51.6007662   9.4743943   9.2241144
  71.3204670  22.4311996  18.9035559  71.1231327  21.4998913  19.0033388
  70.7390308  22.8673077  19.5264316  35.6548357  15.9634852  60.5289078
  35.4202914  15.2140188  59.9816227  35.5626845  16.7205858  59.9505138
  40.2259922  20.4998302  13.5417986  40.0321960  20.0422525  12.7236938
  39.9224639  21.3953638  13.3930504   2.1020395  73.3385468  54.4148159
   2.0609383  73.6852360  55.3060770   1.3975321  72.6916695  54.3767214
  28.6649466  50.1140070  15.8292079  27.8734064  49.7176313  15.4650927
  28.4093475  50.3960228  16.7074823  73.8566637  68.7145615  48.7938833
  74.1249323  69.2020321  48.0150127  74.6426678  68.6830997  49.3392658
  11.5428197  45.7120132  37.5721264  11.5575540  44.9078369  38.0910826
  11.3527393  45.4185867  36.6810584  83.3303833  27.4420190  61.9631529
  83.2055569  28.2387328  61.4475012  83.0907726  27.6939321  62.8549814
  38.2154059  64.2659903  55.3644133  38.2500029  63.5528326  56.0019445
  39.0343046  64.1894484  54.8747444  23.2337832  57.8566456  28.6934686
  23.7899303  57.3382425  29.2750096  23.3745193  58.7617159  28.9714551
  51.6775608   0.3699032   5.5573314  51.4178801   1.2864259   5.4636019
  51.1524582  -0.0955922   4.9063206  52.3313093  40.7667017  60.4429865
  52.6100397  40.2762461  61.2162828  52.5580359  41.6753197  60.6410789
  59.6650124  48.4090614  64.7373438  60.4276466  47.8834152  64.4958496
  58.9142323  47.8774214  64.4729090  75.8239841  46.3165617  45.1439381
  75.3803205  45.4683876  45.1433992  76.1964273  46.3925982  44.2654514
  42.4037266  78.6064386  12.5999308  42.9527044  77.8843689  12.2941875
  41.7938280  78.7652969  11.8795013  30.1115561  45.9908295  34.1998339
  29.6050000  46.7992496  34.2778850  30.8231974  46.2111855  33.5987997
  35.3643441   2.6101422   1.0859871  35.6774139   3.2531372   1.7222075
  36.0921121   2.5057191   0.4730565  27.8103781  67.2962570   2.8754714
  26.8967962  67.5807858   2.8500652  28.2080817  67.6985216   2.1033022
  83.1445026  14.7606587  14.9158537  84.0097713  14.7165668  14.5089030
  82.7738857  13.8877606  14.7857726  45.0213528  78.7105036  32.2518063
  44.8849249  77.8050470  32.5306797  45.9534073  78.8692617  32.4011493
   5.0987422  76.9502497  17.2361994   4.7911313  76.5716648  18.0597770
   4.3268281  76.9516993  16.6701794  77.8113365  58.5306454  48.0601645
  78.2454824  57.6838779  47.9565382  76.8794394  58.3357191  47.9611683
  40.7710218   7.3548084  15.6745100  40.0760221   6.6995084  15.6129313
  41.3415956   7.1696162  14.9286020   3.6689559  75.2745867  13.9265978
   4.2355362  75.2164602  13.1572866   3.5418394  74.3660021  14.1996348
  82.7912998  39.1082525  39.8957038  83.3324718  39.2031193  40.6795216
  82.5121975  39.9999857  39.6879816  55.6425047  27.0192289  63.5701561
  55.1586723  27.4108791  64.2973042  55.4412079  27.5783658  62.8197718
  48.2776165  30.8602118  68.6045599  48.0666828  30.4609942  69.4485760
  47.4267960  31.0234880  68.1975269  65.0838280  25.9962463  58.1750536
  65.7623529  25.6587863  57.5902843  65.4094028  25.8057642  59.0547991
  57.4866819  17.9139328  49.0821218  56.7156363  17.5582290  49.5239305
  57.6689100  17.2903287  48.3791685  65.9549999   2.1136443  14.3601620
  65.4288197   2.7452999  14.8504424  65.3278971   1.4483689  14.0766394
  81.3134766  52.5772905  17.8858614  80.7596397  52.8868103  18.6025834
  82.0838451  53.1446075  17.9162765  40.5766821  25.0324583  34.1010404
  39.7771168  25.1003933  34.6228719  40.3664112  24.3902326  33.4231281
  49.7952509  54.9042082  63.1304359  50.2691174  54.1989565  62.6896381
  49.6949720  55.5805779  62.4605846  54.1566515  65.8462429  66.9530106
  53.5133314  66.2971735  67.4998522  54.7501421  65.4280519  67.5768089
  33.8594079  25.7683706   6.9744325  33.1385326  25.5122352   7.5497282
  33.8433480  25.1224399   6.2682128  80.2845955  50.9257126   5.5035925
  80.0993538  51.7833948   5.8860779  81.0364342  50.6000853   5.9985071
  48.5597754  39.9990439  48.4489250  48.5501146  39.0872669  48.1577158
  48.7735987  39.9506330  49.3806791  14.6886396  74.9508476  16.4987326
  14.0206456  75.4842615  16.9294143  14.4399202  74.9558687  15.5744255
  19.9664271  68.8737392  17.2681272  19.4943070  69.7021246  17.3524630
  20.8890033  69.1263914  17.2327340  59.5584440  55.0599194  13.1474257
  58.6801052  54.7381067  13.3503687  60.1388216  54.5372057  13.7007427
  33.6089849  79.2443180  21.3629413  33.8447070  79.3098307  20.4375362
  32.7623820  79.6864414  21.4263320  55.0691175  28.7020874  51.8534613
  55.4714966  29.2359781  51.1684227  55.4320955  29.0462542  52.6695681
  51.2138128  15.2231014  65.0593901  51.9373751  14.7260582  64.6777630
  50.4436350  14.9428236  64.5649242  26.2618661  52.0254278   2.0007175
  26.0135126  52.9480743   2.0579793  27.2101545  52.0241165   2.1310109
  79.3735981  73.5478306   4.9887806  78.5746908  73.6707401   5.5014920
  79.0836811  73.5977793   4.0779090   2.3348987  38.9743948   7.7444851
   1.6841070  39.5567560   7.3526192   1.8758032  38.5588264   8.4743935
  35.9830356  20.5042934   5.7863444  36.1499166  20.4421997   4.8458511
  36.7593503  20.1196003   6.1932570  76.6441298  49.1477966  10.3546715
  77.5853062  49.1184187  10.5266106  76.4816093  50.0452805  10.0642598
  36.8851161  71.6722965  30.1619029  37.6392198  71.4204693  30.6949544
  37.2618651  71.9298267  29.3204927  44.3445063  21.5168738  27.1331120
  44.2449665  21.4583826  28.0833220  44.6610355  22.4071217  26.9797969
  37.7122784   3.1309411  32.1661830  37.2663474   2.6498407  31.4691043
  37.0040774   3.5155475  32.6826739  29.3971157  74.5755053  42.5429106
  29.6065259  75.0148392  43.3671427  29.7082305  73.6783934  42.6638937
   8.7257397  44.9564362  42.9577160   8.7261474  44.7760248  43.8977623
   8.3342320  44.1765642  42.5643301  56.6231203  36.3234091  10.9653938
  56.1153364  36.7089677  11.6793513  56.0660362  36.4243293  10.1935732
  81.0337353  37.9635596  65.5460215  81.3533783  38.4046268  64.7589207
  80.7181740  37.1154833  65.2339077  60.2747202  49.3273544  50.7954311
  60.6274509  49.6789742  51.6128492  59.5678568  48.7437296  51.0710382
  37.8132105  65.1608038  34.7326589  37.2830796  64.4289446  35.0482178
  38.6912823  64.7937918  34.6300793  75.5794430  52.0166254  39.7797036
  76.3927031  51.6895533  39.3951678  75.3683996  51.3847399  40.4670286
  27.4193883  71.1626530  45.5009222  26.8291903  70.6558561  46.0586452
  28.2814384  70.7737207  45.6486845  29.2128801   2.5012809   9.3686110
  29.9262667   1.9421312   9.0609354  29.6090794   3.3681381   9.4570190
  78.4230471   0.7189480  18.5238564  78.7135839   1.2588948  17.7888203
  78.9225817   1.0447630  19.2725492  57.0124245   9.4408005  43.5779333
  57.4238014   9.6610636  44.4136858  57.7447701   9.3382269  42.9701710
  48.0273342  63.2542896   2.0098515  48.5289955  62.6268578   1.4893752
  47.1575880  62.8617525   2.0852372  77.0207548  53.5020161  61.6746998
  77.9470348  53.3632612  61.4772415  76.6813946  52.6262188  61.8592310
  72.3486805  61.0521746  36.4642668  71.9294882  60.2249527  36.2271810
  71.9264364  61.7037392  35.9044361  18.7228215   4.8277643   6.2279975
  18.7156379   4.9759358   7.1736324  19.2222250   4.0188718   6.1160958
  56.4913416  55.3855228  47.6966810  56.3271046  55.3047466  46.7571402
  56.1246014  56.2379217  47.9315138  59.4583321  32.4352384  49.3734074
  58.6790800  32.3997879  48.8186693  59.6713495  31.5181518  49.5460653
  28.3901811  61.6759491  21.5187812  27.8929734  61.5660143  22.3292947
  27.7679086  62.0703840  20.9076929  63.5238600  16.5888417  10.4521990
  64.1347933  15.8865488  10.6753087  64.0241814  17.1678376   9.8771548
  75.1125145  62.5859690  62.9062605  75.1251936  63.5380745  62.8084517
  75.3481817  62.4360895  63.8218069  54.4085312   5.3573352  34.3563724
  55.0284576   6.0849029  34.3056870  54.2236423   5.2648735  35.2909827
  63.9153957  15.0061226  57.0864439  64.2772007  15.6268620  57.7189064
  64.6681595  14.7315264  56.5628290  36.8858409   1.4904055  16.3328433
  36.3373899   2.2520357  16.1448145  37.2531319   1.6676666  17.1988153
  51.4070320   0.9088035  22.1961999  52.2986984   0.7294795  22.4945378
  51.4325619   1.8179840  21.8979192   5.0043285  70.9120512  54.7811747
   5.4706228  70.5048609  54.0511084   5.2401954  71.8382835  54.7292471
  40.2794886   4.5175987  31.9111586  39.4957185   3.9843646  32.0438242
  39.9531746   5.4164249  31.8679810  25.8596253  60.7783365   2.8897488
  26.1652923  61.6843700   2.9332933  26.4560986  60.3536987   2.2731954
  53.3417654   8.5935426   5.9154880  52.4218941   8.8512915   5.9757721
  53.5265017   8.1675822   6.7525440  17.2517920  63.8510275   1.6990535
  16.2965620  63.9071369   1.7239432  17.4336255  62.9212189   1.5625913
  44.4824505   3.8512829  68.1640291  44.7779369   4.6175528  67.6723480
  43.6482811   3.6138824  67.7590132  35.9745812  56.5090179  13.3439028
  35.9960842  57.4044514  13.0063176  35.3429222  56.0571957  12.7843523
  17.2282052  49.9867773  10.6085384  17.1783304  50.9334278  10.7412207
  16.5443754  49.7986698   9.9657148  79.8640442  57.8221703  41.9691753
  80.4995251  57.4101019  42.5544977  80.3979683  58.2934904  41.3296318
  37.6594710  10.2196562  27.8175616  37.5417376   9.6361780  27.0679474
  37.1810293  11.0140133  27.5802398  39.3528605  11.9938040  54.7284794
  40.2897882  12.1363056  54.8629713  39.0638876  11.5385234  55.5193281
  81.3121605  55.9637690  30.4629421  80.8200550  56.6463518  30.0067091
  80.6525707  55.3131580  30.7035065  26.6474414  21.5067959  63.7802219
  25.7590055  21.5491796  63.4264994  27.2031689  21.8306923  63.0713558
  17.7877557  43.8010025  12.3808360  17.0889020  43.7781382  11.7271447
  17.7662849  42.9335117  12.7848530  22.2117114  60.9003019  41.9062948
  22.3397875  59.9539328  41.8413925  22.4981737  61.1205387  42.7926731
  77.9553032  71.1376286  50.4581547  77.2375965  70.5065584  50.5117893
  78.3358717  71.1427450  51.3364363  83.1424809  47.1438885   8.7805706
  83.5124111  47.3582411   7.9241610  82.2659492  46.8118286   8.5865355
  82.7421761   6.8764865  17.5380707  82.0275116   7.1230227  18.1251860
  82.6544952   7.4695057  16.7918324  10.1855242  52.2908306  10.0094438
  10.8116353  51.7093801  10.4408729   9.6328378  52.6169586  10.7196641
  74.1077614  77.4066925  10.5015111  73.6189222  76.6595888  10.8466327
  74.4394302  77.8557348  11.2790644  64.7435570  53.0102968  28.0798054
  64.5481777  53.9440727  28.1580448  64.0430689  52.5773287  28.5677481
  30.7843399   1.4995839  65.9458447  30.8850193   0.6011961  65.6312084
  30.9473681   2.0430365  65.1749277  59.3134642   1.8740183  24.4845295
  58.4319448   2.2467025  24.4683933  59.8628950   2.5405902  24.0721750
  29.6470833  15.6627965  48.9459753  29.9445558  16.4293289  49.4360447
  30.4380298  15.3257716  48.5252047   6.8893546  59.0313673  15.1804137
   7.3177767  58.2061338  14.9530804   7.5952989  59.6777534  15.1728594
  54.7193909   4.3833414  52.5799751  55.2048922   4.6354711  51.7945147
  54.4347191   3.4858179  52.4077988  27.7828074   5.3024572  44.5558739
  27.6993561   4.6070141  43.9034748  27.1807456   5.9841990  44.2575788
  27.9002857  59.2641687  64.4423485  28.0029988  59.1210032  63.5015059
  28.7796926  59.4862223  64.7482395  76.1548662  58.0692720  17.9073441
  76.3547564  58.9299440  18.2754695  76.8317175  57.9288960  17.2452295
  69.2827225  25.2073932  68.8881683  69.1168976  24.3623495  68.4702730
  68.4228325  25.4963779  69.1936255  43.3645344   6.2354302  35.8569264
  42.6925850   5.6549996  35.4994106  44.1109180   5.6610441  36.0278893
   1.4573196   1.7197745  47.4280787   2.3889267   1.5962286  47.6099491
   1.3307767   2.6680404  47.4598694  37.1703935   8.1950122  59.6040487
  37.7077818   7.4606138  59.3072224  37.6836395   8.6002249  60.3030586
  78.4624958  31.5926385   3.1765395  78.7582779  30.9252906   3.7957269
  79.1817474  31.6738105   2.5501823  14.7866094  52.8136826   9.4036347
  15.3019655  53.4790087   9.8596883  15.1789391  52.7626562   8.5320240
  11.4925385  59.3441057  50.1274729  10.8976829  60.0215626  49.8058701
  12.3669827  59.6803284  49.9311733  79.9326086  56.4714622  13.6835146
  80.6099510  55.9156322  13.2981634  79.1730928  56.3539505  13.1129360
  27.6152945   4.8465982  58.7985897  26.8520713   4.9267533  58.2264900
  27.7381849   3.9031002  58.9031887  83.3111477  20.4203057  64.4119167
  82.4836731  20.8997440  64.4526577  83.7853050  20.6937408  65.1971865
  57.3843431  56.6316032  28.1535077  58.1281471  56.7703390  27.5672174
  56.7769051  57.3403740  27.9416251   6.8252116  14.9412191  28.3431482
   6.7803538  13.9865839  28.3969378   6.2943077  15.1632237  27.5782394
  48.4665251  67.2379398  66.3039112  48.4623098  67.6341486  65.4325724
  47.9091072  67.8110218  66.8303108  52.8723335  23.0894113  51.5461397
  53.7417984  23.0117249  51.9388533  52.5685310  23.9588404  51.8069649
  79.8651886   2.0926467  23.6262894  79.2290020   2.6888826  24.0212631
  79.8226547   1.3042551  24.1674566  23.1462789  47.2000265   7.5153518
  22.3503256  46.8371248   7.1267736  23.8213301  47.0628166   6.8507385
  35.0453305  34.8913240  28.8869119  34.1844058  34.9859452  29.2944503
  35.2932191  35.7825899  28.6410928  13.8680422  60.1462173  10.0057268
  13.1693327  59.6071005  10.3763819  13.9768565  59.8170376   9.1135222
  28.6926961  44.6413517   0.7862195  28.1302643  43.9165258   1.0592288
  29.5772934  44.3585587   1.0180569  55.8052397  48.5489988  17.2487974
  55.5267715  48.3028078  16.3667095  55.4605389  49.4336319  17.3706222
  58.4247446  66.3742304  64.7830868  57.6038313  65.9717131  64.4996929
  58.1653214  67.2266531  65.1328135  51.9530201  65.3804827  47.0958805
  51.3709307  64.7841501  47.5668287  52.0044184  66.1560011  47.6545906
  11.4419329  31.1766672  13.4947371  10.9363949  31.4164066  14.2713892
  10.7863772  31.0719180  12.8051662  46.9671679  10.3137624  53.0793571
  47.1023035  10.7543850  53.9182997  47.4225426  10.8651853  52.4431181
   6.2739938  58.7736607   3.3718416   6.2787569  57.9180050   2.9428220
   5.3494310  58.9482737   3.5477000   4.0460876  72.5127029  33.5790348
   3.7518427  72.2060728  32.7213454   4.1823283  71.7121649  34.0857959
  83.2608223  60.8438540   6.3849610  82.5181866  60.6768131   6.9653261
  83.0683804  61.6934347   5.9882116  26.5228415  18.4363580   7.6071113
  26.9717908  18.8906765   8.3200425  27.2180057  17.9645669   7.1484268
  62.2980833  27.6360917  58.3384323  62.5201416  27.4081087  59.2411757
  62.5927687  26.8856454  57.8224611  38.3787251   0.2502357  26.4598751
  39.1134191   0.4698917  27.0327687  38.7792778  -0.2105867  25.7226992
  20.9264922  10.8073413  56.9193935  21.0792875  11.2465799  57.7560282
  20.7887578   9.8892403  57.1525288  14.1048610  77.7910709  61.0468578
  14.6328914  77.9544592  61.8283415  13.3821964  78.4154463  61.1112356
  21.2447381  13.2616580  58.9858627  22.1153927  13.6582994  59.0153122
  20.6434798  14.0057909  58.9544201  63.7479019  66.7665291  60.1508904
  64.6602535  66.6567993  60.4188442  63.6667538  67.6996803  59.9537230
  28.5242510  43.5604811  15.3174162  27.6168895  43.3212519  15.1284850
  28.4681582  44.4438744  15.6816959  46.1221743  50.7447004  20.3682089
  46.7793941  51.0886812  19.7632527  45.5642223  50.1883650  19.8246920
  11.0622466  55.2171087   1.9038773  10.4276156  55.3785133   1.2057185
  10.5595136  55.3168392   2.7122989  59.0150452  77.7932453  53.8850784
  58.6244822  77.8851557  53.0160284  58.2755899  77.8643084  54.4887257
   8.8879770   2.4775203  59.9270153   9.1499960   1.5573379  59.8979902
   9.6637899   2.9374659  60.2476311  60.5527067  10.8150184  53.6492586
  60.8025360  10.6931639  52.7333069  60.2536583   9.9511093  53.9329195
  24.1055107  73.8441372  62.1953821  23.4275198  74.5097685  62.3115349
  23.8918591  73.1696033  62.8400469  39.9033260  24.7521186  67.4563694
  40.3929520  24.6985841  68.2771158  40.5594826  24.9893570  66.8010759
  82.8903770   2.0404072  24.7052622  83.0002022   2.2659266  23.7815142
  82.3753071   1.2336678  24.6952558  24.2558169  78.3015490  49.5956993
  23.6997151  78.9663219  50.0019693  23.6543012  77.5926113  49.3680620
  24.4582915   7.3197776  36.8247175  24.7336698   6.4349800  37.0645761
  24.4433141   7.3147780  35.8676481  34.2365861  48.8452482  15.0658917
  34.9336624  49.3153524  14.6083748  34.6075416  48.6435413  15.9249246
  74.1995525   7.7396333  14.2627704  74.0494728   6.9441181  14.7735190
  75.0165558   7.5720936  13.7930155  31.0787344  62.4549532  53.6523056
  31.6755891  61.7077017  53.6121559  31.6357565  63.1934452  53.8984585
  15.9686470  58.5529327   5.8909994  16.7126894  58.1189680   5.4734969
  15.7358396  59.2604637   5.2898061  28.2581377  60.4320574  30.7785797
  28.3411288  59.4795942  30.8250499  28.6871409  60.7489204  31.5734315
  10.4793358  75.9971619  45.0867271  10.6947660  75.8213949  46.0026598
  10.6252670  76.9374180  44.9825382   8.0665153  53.4692430   1.5102717
   7.1222323  53.6259604   1.5105794   8.3717638  53.8439608   2.3364913
  81.6307926   6.0011721  31.7833662  82.5739861   6.1290002  31.6819739
  81.5485191   5.4053944  32.5280213  11.1555731  71.7598915  30.9276867
  10.7499909  71.4819908  30.1064014  10.7051432  72.5736189  31.1539316
   4.5490414  11.6897881  47.8644705   5.3305125  11.7084718  47.3120356
   3.8260505  11.5535855  47.2521257  64.9712753  50.6945419  56.3933849
  65.3760529  51.5420961  56.5778828  65.6482601  50.0535250  56.6102362
  59.4640732  19.1562212  67.9509449  59.2237806  19.5644426  67.1191740
  60.4102182  19.0251029  67.8888941  28.3586001  -0.0888091  25.4736447
  28.6320019   0.4187928  26.2377286  27.5387311   0.3195676  25.1956654
  16.9823575  66.1851120  19.3903375  17.3902500  66.1405087  18.5255456
  17.2262728  65.3616238  19.8129606  17.7237940  21.4126348  59.4221497
  18.3898151  22.0512295  59.1675043  17.1750021  21.3156533  58.6439133
  83.2563591  32.4393678  58.9283800  83.5472298  31.6285777  59.3458128
  83.5863781  32.3789811  58.0319071  52.4397659  75.6687355  66.3339996
  51.6952181  76.1550760  66.6880560  52.7223492  76.1813259  65.5766153
   8.7455475  49.3313789  28.7239027   7.8895682  49.7313356  28.5703874
   8.9109719  48.8105631  27.9380178   1.7205009  52.4870205   1.3342248
   1.9164485  53.2838821   0.8414237   2.0858301  51.7803049   0.8019479
  24.7864866  47.3537064  12.0870245  24.4863224  46.7039537  12.7225983
  25.7146239  47.4741268  12.2877514  29.3321371  28.0476046  27.0768023
  29.5427275  27.4881554  27.8243995  30.0678849  28.6571717  27.0190430
  13.9081001   0.7157374  48.7190771  13.0599320   0.2861443  48.8299465
  14.0050411   0.8135411  47.7718353  63.6021328  11.6350543  48.4428167
  63.9072752  10.9604061  49.0494204  62.6578617  11.6822231  48.5923338
  45.0522327   4.4003242  56.6980934  44.6749926   3.8813269  57.4084187
  45.9356785   4.6123487  56.9994307  48.4118557  25.0906944  27.5245070
  48.5707760  25.1694250  26.5838814  48.7402391  25.9110951  27.8923893
   4.7590506  70.6114769  22.8459239   5.4360563  69.9458122  22.9674959
   4.3082321  70.3507137  22.0428061  56.4354324  18.7734544  65.7056141
  55.9718800  19.5820117  65.9237528  56.2374973  18.1808019  66.4307451
  46.7713881  21.1478639  29.8216987  46.4438152  22.0030594  29.5431876
  47.7198267  21.2053990  29.7060156   8.3993375  54.5720959  41.2799644
   7.6008117  54.9042559  40.8697701   8.2165909  53.6472368  41.4457130
  79.3439388  12.0858395  58.3941412  79.2159462  11.1596465  58.1891632
  78.6177063  12.5304794  57.9569674  25.8839560  31.1071086  45.0579166
  25.9978509  31.3042355  45.9876490  25.3262758  30.3292608  45.0445700
  33.3238912  58.7216854  67.0396948  33.5710907  59.3925285  67.6761627
  34.1145754  58.5832882  66.5182590  48.4353304  49.2986917  16.9035280
  47.5558758  48.9982128  16.6744065  48.7453270  49.7521210  16.1196041
  51.7493725  76.2615824  49.4387293  51.3288021  76.7727661  50.1301336
  51.6215086  75.3505039  49.7029591  44.5968533  69.4017029   2.5274301
  44.2508793  69.1205978   1.6803662  44.8213673  70.3234959   2.4004807
   5.3585422  57.1005774   7.8445232   5.9342682  56.7555189   7.1620977
   4.5356899  57.2865534   7.3922396  81.4255047  19.7563803  66.4028215
  81.4624023  20.3328443  67.1660757  81.1015224  20.3149509  65.6962347
  49.9334288   7.2570038  47.1980000  50.1742601   6.3472486  47.3728657
  49.9961138   7.3427540  46.2467098  48.8892889  64.7740793  57.7283859
  49.0632677  64.1802168  56.9981146  48.7893009  64.1984606  58.4866047
  32.2290254  29.8416662  45.6301212  32.3258758  30.3294182  44.8122263
  33.0710983  29.4020653  45.7479858   6.0850197  72.0216036  13.0644381
   6.9687355  71.8233871  12.7546155   5.8148599  72.7809286  12.5480413
  19.9991071   7.9087490  65.1095772  20.6136632   7.8957695  65.8433247
  20.5173612   7.6211214  64.3579721  56.1830902  42.4152803  13.7979329
  56.7808390  41.8553162  14.2932796  56.6914320  43.2054138  13.6148787
  73.6965990  32.2792172  40.5090237  74.5710373  32.4839616  40.8401823
  73.1553793  33.0171871  40.7895756  29.1185689  77.5495195  66.6046953
  28.7553811  76.6697788  66.5027809  28.3520865  78.1204653  66.6572094
  44.3143177  21.5847802   2.0384300  43.7073374  21.2205839   2.6827645
  44.1742849  21.0568953   1.2523261  18.5145009  62.8564262  42.8139210
  18.5480094  63.8109064  42.8777695  19.0147519  62.6515150  42.0239878
  49.3772507  43.6517143  68.0953550  49.6966934  44.3269253  67.4967909
  49.8215818  42.8521109  67.8135109  27.3310947  48.3489561   5.1123655
  27.7341914  49.1205454   5.5103576  28.0055213  48.0001211   4.5295337
  44.8944998  33.7693143  10.8552647  45.7051802  34.2064953  10.5946851
  44.2862511  34.4843316  11.0423803  77.7632570  69.5615673  14.9494767
  77.7491474  70.0341415  14.1171873  78.6337805  69.1651392  14.9850869
  69.0314388  47.5185251  49.9910212  68.9619160  47.7382088  50.9200716
  68.1344318  47.3166084  49.7248697  56.0412550  23.4697843  54.9335766
  55.7163000  22.6642656  55.3357887  56.0236645  23.2919431  53.9932060
  28.7584019  78.1324911   4.4251943  28.7842178  79.0584612   4.1840589
  29.6021962  77.7858591   4.1352123  19.9757433  73.1416845   1.5592992
  19.7071040  73.4772110   2.4145679  20.8559513  73.4946060   1.4292599
  63.9355421  21.6724706  47.1765471  63.8786507  22.4284172  47.7609587
  63.1757927  21.1363769  47.4037361  59.5965195  57.1948099  14.9172342
  58.7740755  56.9802427  15.3574443  59.7925758  56.4227772  14.3864250
   8.7753761  13.3121133  60.3627682   8.3335721  12.4852908  60.1693583
   8.0640692  13.9299190  60.5318546  73.5614729  11.2467968  64.2262936
  74.4245434  11.4966798  64.5562887  73.7231827  10.9560680  63.3287621
  74.6593618  25.3815961  45.0740242  75.5372572  25.6148553  45.3758907
  74.7688580  25.1927185  44.1420555  65.6233406  45.9958315  55.5990934
  66.0505295  45.5641079  54.8592567  64.6877003  45.8653355  55.4448748
  39.5922899  71.6055775  50.5812788  40.1907301  72.1807957  50.1046038
  39.5769620  70.7977057  50.0681067  81.2022591  26.4063597  38.4905243
  81.6030979  27.2112012  38.8188410  80.7915115  26.6628861  37.6648664
  59.0873289  46.2051201  45.9517670  58.2405376  45.7865572  45.7968998
  59.0800142  46.4227724  46.8838644  12.2242272  14.7867274  40.6186581
  13.0987120  15.1511443  40.7554388  11.6442442  15.5482018  40.6218147
  63.6841059  39.6701932  62.6926851  63.7719440  39.4012761  63.6071253
  63.6851406  38.8492560  62.2004557  39.8154998  12.7433407  47.1099949
  40.3970814  13.0905569  47.7863407  40.3408337  12.0828009  46.6583967
  18.8940978  33.0197811  35.1685047  19.6400952  33.3141994  35.6910348
  18.1268513  33.3159423  35.6582522  76.9625473  71.6601515  12.9153609
  76.6244173  72.2267532  13.6088014  76.2413645  71.0609961  12.7226496
  52.3266268  22.0587158  64.4953012  52.7881289  21.3176394  64.8877954
  52.8888464  22.3348570  63.7715006  22.2212291  59.8726654   7.0028138
  21.3053870  59.8760128   6.7245132  22.7172709  60.0105619   6.1958683
  65.5657911  15.7386315  68.5463095  65.9588671  15.1328111  67.9180527
  64.9779129  15.1934159  69.0691566  16.7981851  35.4026604   9.4433868
  16.7284620  36.3417149   9.2714876  16.2507772  34.9950218   8.7722629
  83.4447575  27.5437522  29.0145707  83.8745403  27.8394318  29.8171234
  83.6476421  28.2220340  28.3703613   8.8311106  30.2286148  65.2816534
   8.5823780  29.3302035  65.0643492   9.6542495  30.1397109  65.7620430
  70.5814362  32.6613951  59.9296618  69.9214792  31.9862032  60.0871611
  70.1908255  33.2274437  59.2638969   4.3413335  31.7265725   2.5278389
   4.4433284  31.2083888   1.7295204   4.2987651  32.6324558   2.2215751
  20.5920649  53.5477591  25.1683855  21.4068866  53.6312199  24.6730757
  20.0481820  52.9651117  24.6383429  54.3389654  14.8705339  60.3269386
  54.3708324  14.6655107  61.2613821  54.2625952  14.0186000  59.8972797
  72.2838116  22.4904609  62.3542404  73.2021475  22.2749758  62.5169039
  72.2855091  23.4321761  62.1827698  36.1009383  74.0007353  23.8133502
  36.4458942  74.4924879  23.0680895  35.1594496  73.9464664  23.6493850
  40.2516794  60.9554672  65.4211473  39.9619865  61.5860462  66.0804510
  39.5588708  60.2953053  65.4004002  34.7252083  78.0834198  61.4823484
  34.7823143  78.5809374  62.2980976  34.9355865  77.1844196  61.7348671
   6.8348628   6.6697121  42.6918030   6.7827487   6.0774571  41.9416380
   7.5597763   7.2585869  42.4821424  51.8910980  67.1813488  53.8409996
  52.6293850  67.7896309  53.8750648  51.8760443  66.8734741  52.9347897
   4.6396765  28.7306142  33.9974141   5.2309197  29.3950772  34.3511820
   4.8286131  27.9445863  34.5099521  27.1693444  28.7648535  64.6971798
  26.2716222  29.0415120  64.8809958  27.6172638  29.5673680  64.4296598
  75.9184408  26.8668818  49.3406391  75.6963921  27.7837229  49.5029068
  75.0744629  26.4367890  49.2029762  70.1442766  55.5295134  13.1615281
  69.2314196  55.5243969  13.4494412  70.5664873  54.8537350  13.6919034
  62.5460529  53.0892611   0.9575786  62.5684357  53.9905119   0.6358974
  62.2139740  53.1624937   1.8523382  40.9333134  52.3662806   5.7115173
  40.1553726  51.8558741   5.4867339  41.3525009  51.8676710   6.4128757
  15.8339107  56.9313574  11.7485523  15.0450897  57.2957039  11.3469994
  15.6261826  56.8806744  12.6815653  81.1730003  61.0561657  30.1534939
  81.1423302  60.9931135  31.1081243  81.2808895  60.1524210  29.8571134
  62.3354769   4.2007962   1.0886715  62.1802568   4.6365556   1.9266766
  61.7048359   3.4808898   1.0726301  73.1620932  56.4355421  67.2943115
  73.3637667  56.9486094  66.5118027  73.0748415  55.5371332  66.9757462
  68.9140654  30.0637674  67.2034931  68.6705875  30.4715538  68.0345535
  69.8700285  30.1090074  67.1855068   9.8210293  33.6815572  41.8148375
  10.0633168  32.9899096  41.1990881   9.7588623  34.4705534  41.2764597
  24.8488498  44.8645735  23.7463546  24.2655134  45.5905676  23.5252714
  24.6520352  44.1920662  23.0942559  55.4964638  62.7436924  17.7237928
  55.9619522  63.3706617  18.2773876  54.9851799  62.2159672  18.3372438
   1.7413339  58.3456469  62.4737597   2.3776661  58.8825607  62.9460239
   1.9320549  58.5056019  61.5494871  22.2433186  50.5720806  51.3135767
  22.9342270  50.9848690  51.8317318  22.6194072  49.7371864  51.0347557
  40.1583004   8.8886756  56.7676640  39.6136332   8.8761610  55.9806347
  40.5728674   8.0260998  56.7857742  30.2972579  16.0542059  34.4739413
  31.1961746  16.3380158  34.6401811  30.2647042  15.1562583  34.8038840
  28.5485744  70.8132982  19.1705060  28.8136244  71.7136049  19.3587387
  28.9696431  70.6092787  18.3354568   2.6514986   3.1889248  44.4368601
   3.2591283   2.7043068  44.9955797   2.7851894   2.8220621  43.5629225
  10.9338701  53.3502293  50.4514933  10.8745265  52.5606966  49.9135828
  11.8552065  53.6050415  50.4020548  39.3519425   7.8822416   5.7406068
  39.1868377   8.4547043   6.4897788  39.9487805   7.2137380   6.0769415
  17.2015655  77.3829651  59.9282312  16.4839125  76.7968035  60.1682615
  17.5454569  77.0189953  59.1124535  67.0708466  39.8732352  54.7892475
  66.9628191  39.1400671  54.1834164  66.9362211  40.6520033  54.2492199
  58.4768677  77.0121288  16.3506889  59.2099237  77.0949507  16.9606066
  58.8158894  76.4659166  15.6415021  13.2242060  36.5269423  63.9852619
  13.5199273  35.9969735  63.2450485  13.5782576  36.0817885  64.7551441
   1.8934590  29.2199683  51.7798853   2.1898027  29.6944904  51.0031986
   1.0935975  28.7758040  51.4985085  10.9472537  54.8937464  19.3416333
  10.1252329  55.3727913  19.4466472  11.6209459  55.5066299  19.6361494
  23.7228537  13.9272964  32.7852368  23.1234837  13.6480522  33.4773421
  23.6953735  14.8836064  32.8160286   6.6275394  60.3837013  60.2967978
   5.9953976  61.1022377  60.2785587   6.6628444  60.0727320  59.3922043
   1.4711788  26.1240506  61.7680931   1.4112058  25.4643154  62.4590206
   0.7369500  26.7146349  61.9364643  55.5300522  16.9584811  67.6466608
  55.7371902  16.2512755  67.0357752  55.6696701  16.5754580  68.5127068
   6.4660090  44.0617371  57.2135162   6.4907551  43.2003260  56.7968750
   6.8263602  44.6564150  56.5556860   1.0427205  53.2476616  58.1614208
   1.8807802  52.9660892  58.5283089   1.2705415  53.9571857  57.5606728
  20.9246325  50.2267933  63.7341070  21.0964727  50.4896832  62.8298998
  20.0446081  49.8509407  63.7111330  67.1965742  51.0727644  68.6640978
  67.4142647  51.0709190  69.5962143  68.0226469  51.2766600  68.2256222
  39.1054010  76.9051552  26.3722825  38.8302469  77.5638962  27.0099211
  38.3396339  76.7797756  25.8118200  69.1496706  43.0626059  64.2031240
  68.6282206  43.6516619  64.7484112  68.9547348  43.3317947  63.3054781
  66.0164976   0.3348223  31.0946584  65.4643106  -0.2331521  31.6319919
  65.5026770   1.1350601  30.9858441  12.8793383  79.2862272  27.0265055
  13.5022247  79.3704939  27.7484083  13.4224272  79.3023109  26.2384534
  29.6757817  65.9006786  14.2765892  28.9676166  65.7901192  13.6421502
  30.1289225  66.6949654  13.9937401  37.4056435  13.5447276  48.0960560
  37.4285054  13.4579289  49.0490389  38.3177137  13.4423053  47.8242731
  65.0697041   9.5060205  12.9303420  65.9095335   9.7463518  12.5389898
  64.8772812  10.2180231  13.5404706  36.7591286  42.0665741   8.7095726
  36.4702272  41.2630320   8.2770300  35.9911036  42.3661804   9.1959929
  27.0152402  59.5369720  58.9211082  26.2769461  59.0652561  58.5355711
  27.1479988  60.2879763  58.3426571  61.3182592  34.4320893  61.8204451
  61.4170027  35.0270748  61.0771608  62.1481180  33.9565659  61.8584824
   1.3322930  33.9110088  42.7117062   2.0459175  33.2778883  42.6334238
   0.5650572  33.3814740  42.9289007  13.0276120  15.6200278  43.6258984
  13.6145914  15.5228686  42.8760672  13.3453679  16.4009047  44.0792131
  83.2572937  30.8405781  13.5995996  83.8935280  30.6393504  12.9133511
  83.7802982  30.9097362  14.3982935  82.3158741   2.3475011  51.3460398
  81.7758179   2.9604229  51.8449402  83.0197048   2.1041293  51.9473982
  73.6953068  78.2959604  23.4541011  73.1971312  78.8341999  22.8389955
  73.1778336  77.4959421  23.5458779   5.1571989  21.5349913  54.7513390
   5.9686297  21.2449598  54.3345737   5.4178292  22.2835732  55.2879286
  75.1723480  49.4533539  59.6353340  74.6377659  49.9103546  58.9860249
  75.8564472  49.0231085  59.1223812  23.2668567  61.1828756  59.6123028
  22.6316905  61.8805265  59.7737932  23.0934143  60.9045076  58.7130499
  68.9818716  64.4389296  23.9415932  68.7563324  63.6443949  23.4577799
  68.2911015  64.5233583  24.5988154  21.9318652  76.0878372  27.9866958
  22.0482731  75.2226162  27.5941753  21.4489579  75.9206533  28.7960672
  56.9464636  27.5781274  59.7101927  56.9876575  28.5060644  59.4789600
  57.8172016  27.3780107  60.0537062  23.6266303  50.3539753  11.4849579
  23.1430674  50.1771402  10.6780338  24.3458414  49.7223949  11.4764857
  81.4463997  38.8303447  51.3086796  82.3481941  38.7087154  51.6056538
  81.5308952  39.1397238  50.4068089  28.4836030  49.7894382  31.9800520
  28.9615083  49.0098381  32.2630072  27.6812887  49.7811317  32.5020242
   6.0610217  66.3290167  24.4216800   5.1825219  66.7090988  24.4239354
   5.9536171  65.4801321  23.9926195  37.1964145  78.1420231  51.6239738
  36.8973827  78.5159540  52.4528217  37.0802951  77.1979856  51.7313766
   4.4754577  45.6120872  66.9912529   3.6685860  45.1450777  66.7742491
   4.2217237  46.5349388  67.0051193  61.9886017  11.3282943   7.6413918
  62.6633024  11.4858377   8.3018386  62.4140120  11.5373588   6.8097979
   8.4893858  23.5625291  64.1232538   7.7262819  23.1509566  63.7176514
   8.9757288  23.9400983  63.3903503  56.7450428  50.8390474  39.1893077
  56.4582586  50.8636093  40.1022053  56.8519831  49.9075174  38.9968300
  69.4828796  10.2516413  57.7147341  69.6423531  10.2139878  56.7716646
  68.5356569  10.1448786  57.8019238  43.5048103  31.9229388   5.9076315
  44.0009642  31.9119692   6.7261308  42.6187706  32.1746826   6.1680031
  77.9748583  35.9523392  57.6480770  78.5459614  36.3782310  57.0087910
  78.5376787  35.3114891  58.0825615  39.3968010  51.9948435  10.3219140
  39.8867249  52.1038246   9.5068502  38.9607453  51.1479425  10.2278495
  79.0711689  49.1374111  61.8965673  79.2799425  48.2045889  61.9464302
  79.6422052  49.5457649  62.5472593  41.9333887  49.5029163  21.2381196
  41.0286331  49.7495079  21.4300537  41.8572426  48.7535763  20.6474257
  25.3165627  25.6317973  12.2665262  24.4655776  25.3612494  11.9217682
  25.9203577  25.5146194  11.5330875  60.7206154  14.6731389  39.9126410
  60.2018213  13.8822877  39.7655487  60.3530931  15.0559568  40.7092667
   0.6846536  70.1325846   7.5945616   1.6407716  70.0909042   7.6128072
   0.4356140  70.3167152   8.5002691  64.1345263  33.6894417  62.0591784
  64.9479246  34.1381884  62.2899389  64.3847370  32.7695990  61.9724941
  61.8797493  60.7941484  39.0283179  62.1180868  60.0686550  38.4511805
  62.4658489  61.5063238  38.7723517  69.1831112   4.0982857  68.2226753
  68.5239124   4.7909912  68.1797028  69.8320770   4.3439943  67.5633526
  33.0834794  61.9153929   9.3651986  33.0042171  61.1744595   8.7643927
  34.0138793  61.9444323   9.5882308  41.5207243  10.5624890  13.2906222
  41.2671375  11.4792633  13.3976245  41.3419056  10.3703928  12.3701036
  58.0173445   1.8519746  29.6216631  57.4909544   1.0534591  29.6606398
  58.0641174   2.0627314  28.6891270  33.1425142   9.7082031  37.5235224
  33.3761120   9.9996138  36.6421914  33.8549376   9.1220391  37.7786660
  29.3433857  73.1247139   0.3831581  28.9645457  73.9612627   0.6531467
  29.8960662  73.3431244  -0.3672225  50.4707479  24.1695690  11.1608100
  50.0828743  24.5981574  11.9237649  51.0223627  23.4791446  11.5285945
  33.1959701  18.5866594  40.0406361  32.5715756  19.0983701  39.5263243
  32.7651405  18.4629941  40.8864021  31.9666648   2.3156643  26.5177584
  32.5230718   2.9486090  26.9716573  31.5096378   2.8315547  25.8535194
  42.3898268  13.0615830  21.8369532  42.4535847  13.1084430  22.7908778
  43.0409336  13.6887050  21.5222931  77.9417086  73.8062286  45.9457397
  77.3986769  74.5361280  46.2433815  78.4294271  74.1585636  45.2012777
  72.5811291  32.7552676  58.1523800  71.8745565  32.7234650  58.7973452
  72.4515009  33.5865664  57.6959038  23.8009501  54.3847752   4.4951758
  24.5534205  54.7895050   4.0636477  23.9085221  53.4472656   4.3347403
   4.4365999   6.7868733  27.0599508   3.8959867   6.4322132  27.7657747
   3.8146684   7.2246212  26.4787388  77.7311420   4.9864620  21.9825315
  78.3113241   4.6483830  22.6646757  78.2435417   4.9183890  21.1768961
   6.1361170  13.2912683   5.6567311   5.5245966  13.9722955   5.9368664
   5.5762434  12.5681627   5.3740799  47.2297955  68.9973116  13.3868146
  47.6529932  68.6254454  12.6129615  47.4895334  68.4182596  14.1033769
  75.6293297  24.7537255  61.6482544  75.9137917  24.8645544  62.5554609
  75.3609037  23.8366723  61.5917397  31.5832639  71.7641401  12.7772164
  32.4714994  72.0768833  12.9488611  31.7058992  70.9088993  12.3652041
  43.8136768  67.2869968  31.9812393  43.8926935  68.0778027  32.5147319
  44.7158289  66.9947338  31.8511128  43.5465574   1.9633946  23.3439040
  44.4539213   2.0064810  23.6456800  43.6135769   1.7504364  22.4131036
  82.4830818  12.1456361  14.4176710  82.1592045  11.6306281  15.1566553
  83.3265686  11.7486596  14.2004561  31.0318851  52.1467590  16.6482985
  30.1571083  52.4002552  16.3537836  31.0793877  52.4569273  17.5526047
  51.6817427   3.9027759   8.3204079  51.8432617   3.5862318   7.4316204
  52.1469688   4.7381032   8.3653969  80.3362942  60.4703379  53.3256960
  81.2865353  60.5625820  53.2566881  80.1033306  60.9701586  54.1080904
  79.1640329  35.4608917  22.8129554  79.1104698  36.2473631  22.2699809
  79.9808931  35.0399971  22.5449634  71.9853687  29.0101314  35.1805735
  71.0994244  29.1926122  35.4936862  72.2206926  28.1811738  35.5973268
  79.5212412  37.8779531  55.8977509  79.4674015  37.2932529  55.1418018
  80.3977966  37.7302742  56.2528181  53.0304241  17.0923388  18.0016959
  52.6509190  16.6436327  17.2461367  53.9153481  16.7345166  18.0731463
  70.0088406  61.9487095  39.6813941  70.7293367  61.3367558  39.5309567
  69.9626684  62.0349121  40.6335878  73.8054276  35.9739995  43.5327387
  74.1577291  36.8591237  43.6258602  73.1217909  36.0570288  42.8679228
  36.4267635  50.7516098   9.0319902  37.0498586  50.3421068   8.4317487
  35.6525087  50.9203720   8.4950703  17.3909366  21.4213800   7.1183264
  16.8865132  21.2958670   6.3145632  17.7411664  22.3091936   7.0451260
  13.3550012  79.5227194  11.1102426  13.1604958  79.5171404  12.0474565
  13.5044599  78.6029911  10.8911681  14.3697119  47.5482798   7.1253097
  15.0733829  46.9256926   6.9423729  14.4754553  48.2307768   6.4625514
   8.3909601  24.3966842  67.1103048   8.3164358  24.2828035  66.1628294
   7.9752332  23.6171269  67.4786711  30.0238657  12.7439499  14.9175370
  30.0952053  12.2563457  14.0969372  29.2030621  12.4408507  15.3056645
  17.3473668  37.9057240  54.5879698  16.5381539  38.4160495  54.5567751
  17.0552409  36.9989419  54.6809244  28.3335876  11.2573731  27.1436238
  29.0352988  11.2184918  27.7934861  27.7032447  10.5972600  27.4319816
  23.3506036  27.3091626  67.5402975  24.1019988  27.5461006  68.0838919
  23.4748769  26.3788795  67.3522520  18.1688023   5.4837799  65.0335646
  18.5158443   6.2461406  64.5703125  18.6483300   5.4680651  65.8618355
   9.3786222  44.0206003  54.8987389   9.9205518  43.8094854  55.6589842
   8.7878144  44.7068787  55.2089024   5.4052210   6.9029140  49.7148228
   5.3178811   7.8275573  49.4832230   6.3496369   6.7475933  49.7284651
  57.7786970  32.5588989  68.4798288  58.4482336  33.0942392  68.9057016
  57.1061611  33.1850386  68.2117367  48.4757471  17.0205259  48.2414484
  49.0251017  17.4997985  47.6211739  47.6280499  16.9465041  47.8030872
  74.6340895  21.6605616   1.3411699  74.2854595  21.3709569   2.1842712
  73.9096880  21.5380144   0.7276061  79.8965979  37.1123838  48.4304333
  79.1011333  36.7523360  48.8226461  79.5814848  37.6731730  47.7215958
  29.9586463  74.3184471   4.0878010  30.4606652  75.0673437   4.4093063
  30.5878234  73.8104057   3.5756895  57.8278399  75.1116991  68.2714987
  58.0694628  75.5311489  69.0972757  56.8786955  75.0012445  68.3276892
  26.2528157  71.3457012   9.0339971  26.5554810  70.7777691   8.3254230
  27.0120907  71.8882513   9.2470086  10.3356004   3.8864180  40.9100199
  11.2568617   4.1377214  40.9760094  10.3560925   2.9781848  40.6084824
  42.3557711   3.1653348  27.2884607  42.5488424   2.5782788  28.0194330
  43.1636238   3.1826219  26.7753267  12.0912421  20.1093364  67.2435951
  12.0663714  19.1719532  67.4357605  11.5182185  20.2133870  66.4839554
  49.2748451   1.2082812   3.5437667  48.9001369   1.3560848   2.6754457
  49.0895700   2.0146975   4.0250123  23.5859179  69.1017962  33.5738444
  23.2103610  69.8455811  33.1026983  24.1202831  68.6497641  32.9208875
  59.7598600  44.9588490  67.7213526  60.4011297  45.6160927  67.4510908
  59.0046024  45.1136398  67.1540260  21.3090849  76.4419699   8.8283157
  21.0667419  77.2836590   9.2144090  22.2616005  76.4829445   8.7430722
  50.0998592  25.5592465  13.4991157  49.5477438  26.3409138  13.4791744
  50.9434271  25.8701682  13.8276780  43.7224627   2.7715084   1.1119443
  44.1349792   2.7505735   0.2484506  42.7945328   2.6136786   0.9379717
  18.1878662  23.7060237  15.8377266  17.7366304  22.9738522  15.4175591
  17.5741923  24.0148592  16.5042520  59.8876715   9.9371099   0.7114229
  60.2010727   9.8362392  -0.1873736  59.2479849   9.2337447   0.8223830
  75.7529640  64.9121761  66.4010477  75.7701969  65.7231855  66.9091797
  75.3373289  65.1564360  65.5741119  79.2768764  53.0488348  60.1524830
  79.7905540  53.7111235  59.6901608  79.7551918  52.2320795  60.0097895
  51.1476517  52.5109816  62.0795584  51.2790012  51.7721939  61.4852762
  51.0654306  52.1104813  62.9450464  73.5734367  33.6802173  52.3913527
  74.3581343  34.0231323  52.8190136  72.8661251  33.8565087  53.0117273
  54.0351439   2.2880581   2.7702692  54.3343496   3.1972551   2.7785349
  53.4788370   2.2260335   1.9937974   7.3805940  45.3582573  28.4352469
   7.3825043  45.2251863  29.3831491   6.5249604  45.7450199  28.2494068
  61.0107756   5.4519403  11.2916040  60.7150412   4.6008971  11.6148627
  61.6052818   5.7723862  11.9699168  48.8858938  69.4402409  26.8438935
  49.5036316  69.9709511  27.3468566  49.1335344  68.5362005  27.0378375
   4.9050948  72.0419264   5.4223245   5.1992077  72.7702284   4.8752326
   4.0286168  72.2972727   5.7101065  54.7904205  17.2683430  24.2370224
  54.1245174  16.6638827  23.9092493  55.3122663  17.4908078  23.4660387
  14.1659784  22.7908659  13.2447886  14.5090568  23.6837339  13.2085085
  14.3222320  22.4384570  12.3686469  62.8693199  15.4387355  53.8313532
  63.2694626  15.2361560  54.6769762  62.6693630  14.5838320  53.4500551
  27.8268027   6.2390649   6.2444079  27.0798087   5.6770319   6.4502007
  27.4541140   7.1182853   6.1787790  21.9476938  72.0643044   8.0865884
  22.7279615  72.4760437   7.7152574  22.2887802  71.4272785   8.7143528
  55.6972885  25.4084682  18.4268844  55.6091118  24.8306322  17.6688862
  55.2196169  24.9614882  19.1256487  35.6703925  19.4342208  34.1084123
  36.2932014  18.8410819  33.6882615  36.0554790  19.6181786  34.9652100
  66.2135983  56.2751722  68.1742620  66.9952297  56.4680004  67.6564741
  66.2254429  55.3239775  68.2806730  84.0022278  21.8584204  53.6508417
  84.1044140  21.0357738  53.1722546  84.1442776  21.6215706  54.5673323
  44.1486549  30.4287076   2.1447644  44.1788292  30.2183390   3.0780739
  43.2801962  30.1417422   1.8625189  76.9377232  72.7430344  48.4107065
  77.5232267  72.3559999  49.0615654  77.4366856  72.7172184  47.5942469
  12.4342072  39.3134260  63.8847733  13.3564949  39.2996264  63.6289835
  12.2528100  38.4195828  64.1752338  31.9641232  76.5696812   3.4207413
  32.0307922  76.3983631   2.4813598  32.8638983  76.5040302   3.7406263
  65.2770710  25.7682920  13.0686879  64.4194365  25.5844402  13.4519577
  65.1115990  26.4665079  12.4351704  53.2545519  24.6190763  13.1077087
  53.2051182  25.5505419  13.3225548  52.7607775  24.5348811  12.2920322
  57.6822615   5.8693379   6.7914283  58.5765648   5.6663388   6.5171123
  57.3307705   5.0339884   7.0994455  28.1875038  45.1406527   6.1484814
  28.1810713  44.8938799   5.2236605  29.0865707  44.9775743   6.4336407
  51.9383860  60.2944851  67.4056005  52.7349663  60.7069111  67.0715380
  51.6637707  60.8561182  68.1304359   5.5173951   5.9038174  62.6490831
   4.8065731   5.2774143  62.7854013   5.7142448   6.2369609  63.5245800
  65.8188725  55.2663136   0.7793439  65.0121880  55.2814770   0.2643078
  66.4771509  54.9096632   0.1829367   3.1708002  79.2464697  62.1492243
   3.5688949  80.0688852  62.4345064   2.3984218  79.1484271  62.7060509
  34.0481210  35.2190995  10.3028226  33.1800127  34.8309493  10.1934540
  34.0771890  35.4858446  11.2216449  78.9203501  12.7955258  40.6826448
  78.1756973  13.2099056  41.1185503  79.4715309  12.4795830  41.3986158
  64.7462368  17.4136233  35.6929493  63.8278341  17.4407458  35.4245520
  65.0342369  16.5278828  35.4721498  50.0533104  39.3887186  56.4576483
  50.8995676  39.3327188  56.0138607  50.2606010  39.7341776  57.3259354
   1.3717386  33.0784893   4.6754444   1.6710128  32.8773570   5.5621308
   1.1866817  32.2241116   4.2855427  53.8984776  10.1553071  26.8837118
  52.9673624  10.2881312  27.0615029  53.9484549   9.2734963  26.5147352
  82.9149342  62.7783251  55.3825903  83.7195492  63.0848694  55.8007526
  82.4176311  63.5768700  55.2058268  82.8554058  68.8755274  33.8749599
  83.4200287  68.8027143  34.6444654  81.9684410  68.9202738  34.2320657
  30.7671428   5.5896157  62.9447126  31.2818003   4.9514747  63.4388161
  31.2699175   6.4018303  63.0060196  71.0526371  68.7471819  54.4444323
  70.7153988  69.3273544  53.7618637  71.6127539  68.1275654  53.9769125
  83.9101791   5.0872439  64.3077421  83.7060547   4.8729712  65.2180433
  84.7517109   4.6613905  64.1443586  12.3650014  58.6025429  65.1339149
  13.1190777  58.5098457  65.7161570  12.7470720  58.7268162  64.2651176
  76.6008663  42.6923084  18.0995166  77.2284460  43.2692909  17.6642358
  76.6115761  41.8898010  17.5778890  16.8838131  21.8101716  45.4169655
  15.9352195  21.7366648  45.3120899  17.1098769  22.6323342  44.9820232
  78.4703541  23.6706591  58.2112217  78.5697126  24.2441130  58.9711618
  78.0083227  22.9033852  58.5489368  18.5279453  12.6519454  50.1388979
  19.2577517  13.1031060  49.7145557  18.6999929  12.7466369  51.0757351
  63.2572699   0.6909092  59.7456026  62.8944826   0.0237471  60.3282785
  63.0450487   1.5216228  60.1711702  27.2212029  70.0749588   3.7310290
  27.3013353  70.6917286   3.0034280  26.5154862  69.4843102   3.4677172
  83.5539341  25.5526376  64.7738934  84.1282940  25.0395703  64.2054653
  84.0966797  26.2858510  65.0638247  17.0310318  66.7522287  39.9393988
  16.8362629  67.3824596  40.6330204  16.5577793  65.9605408  40.1953173
   3.7481529  23.3583450  35.3508353   3.1105477  22.9604888  35.9436274
   3.8501355  24.2533755  35.6744862  33.9057398  48.3046055   8.5489446
  34.3368816  47.5029516   8.8450813  34.3545723  48.5310793   7.7343941
  53.8690805  56.3489199  28.1643009  53.2034826  55.8272743  27.7158546
  54.0000105  55.9022951  29.0007305  23.8204336   3.7642562  42.4348497
  24.7330785   3.4856322  42.5102043  23.7672257   4.5571315  42.9684687
  56.0304260  31.7132807  48.7413359  55.3041506  32.0417619  48.2113791
  56.7478418  31.5966678  48.1184816  54.5402002  33.8576031  55.3020287
  54.6954679  33.0451775  55.7837868  55.0456715  34.5176888  55.7763910
   3.2628474  16.9212484  27.9288220   3.1798673  17.8149891  28.2613492
   2.6044506  16.4233112  28.4133911  14.0870214  11.4018857  13.3721554
  13.9013493  10.8341253  12.6242208  13.4231913  11.1681128  14.0209317
  41.7842674  23.7601066  64.3828869  41.0381603  23.1719160  64.2663288
  42.5514746  23.2008266  64.2611074  14.5236814  33.8855767  42.5933504
  15.1193261  34.4851303  43.0427647  13.6872697  34.3505168  42.5715113
  13.5853040  27.3876095  29.8066115  13.2570672  28.2098818  29.4427943
  13.9668643  26.9297171  29.0576267  15.6534326  20.3506708  38.7021208
  15.4423499  19.4170427  38.7057424  14.9219632  20.7598138  38.2397509
  41.4758968  60.3630543   2.6768604  41.5591955  60.9704113   1.9417354
  41.3751507  60.9272957   3.4434861  75.9865952  49.4405413  22.6891208
  75.5937719  50.2961159  22.5161695  76.8798923  49.5148516  22.3533654
  32.1937466  55.2287245  25.6805921  32.6678944  55.9038067  26.1660647
  32.0679450  54.5220661  26.3138676  82.4394417  41.7565823  39.6798706
  82.6623821  42.6801491  39.5634794  81.5295029  41.7654133  39.9767971
  16.0333323  56.8720579  59.6306181  15.1822329  57.2589016  59.4251585
  16.1077142  56.1266088  59.0347958  61.0735083  62.6274824  20.1442862
  61.7112494  61.9158268  20.0889468  60.3993273  62.3951244  19.5057559
  67.6820374   0.8645721  45.4038525  67.5667763   1.7093024  44.9686766
  66.8346357   0.6880642  45.8124924  37.4921513  74.6695995  44.2395115
  38.3537126  75.0525665  44.4046736  37.6788974  73.7793064  43.9416122
  68.3614635   9.6516645  19.6292436  69.2170668   9.2439109  19.7630870
  68.0068159   9.2154545  18.8545310  32.6412821  74.1282415  68.2058001
  32.6346135  74.0948343  67.2492075  32.1349669  74.9113655  68.4216452
   6.8507284   1.8557297  14.5001507   7.6955920   2.2842646  14.3630540
   6.4235187   2.3797631  15.1777291  41.1868143  56.2762547  46.3410473
  41.2809753  56.1010981  45.4047298  40.4697609  55.7069635  46.6202831
  77.4047041  29.2632771  62.4196005  76.4770508  29.4698668  62.5336981
  77.4083614  28.4178448  61.9707537  56.9908905  51.3609219  65.4185438
  56.8919468  50.4524279  65.7033014  56.1519480  51.5770578  65.0114965
  11.1020970  13.2395077  42.8566265  10.8792794  12.6241302  42.1581364
  11.6367078  13.9068317  42.4263954  83.4421921  15.1545620  47.0451784
  83.0164814  15.0952065  46.1899137  82.8243732  14.7428370  47.6493359
  15.1248074  14.5892429  31.2792420  15.8290291  15.1574111  30.9670115
  14.7356963  15.0696230  32.0100355  13.6890316  35.9098172  57.8628683
  12.8583944  35.5526400  57.5487041  13.4699559  36.3293552  58.6948681
   5.9210020  22.1126676  46.3509703   6.4499503  22.5181246  45.6639099
   6.1233896  21.1791253  46.2895536  64.4069338  58.8849115  61.8186331
  64.9382162  59.4936514  62.3318720  63.7909174  59.4445610  61.3458252
  75.0279331  15.2864110  30.8499312  75.2951622  14.4891608  31.3073277
  75.6250238  15.9604096  31.1746526  45.3764009  68.3727884  64.6857738
  45.4786205  68.7774801  65.5471754  45.2095318  67.4491072  64.8733807
  73.0535412  37.4150825  51.6220808  72.1240377  37.2063828  51.5287924
  73.2376957  38.0160904  50.9002018  12.3328400  41.3258648  66.7294598
  13.0811346  40.9292746  66.2833643  12.1362972  42.1098757  66.2166882
   7.0128202   2.5536671  23.7413955   6.5919936   1.8751994  24.2694283
   6.3183045   3.1900460  23.5713887   6.9344890  48.2367945  19.9917805
   7.4424982  48.2958412  19.1826618   6.0444200  48.4764719  19.7337818
  47.3195362  63.6260509  28.4302402  46.9783974  62.7481747  28.2594085
  46.6251707  64.0606737  28.9254141  75.9598207  28.9271188   8.0204338
  76.8527937  29.1293454   8.2996035  75.7029581  28.1805491   8.5616267
  58.0281687   1.0594086  33.2241297  58.5714531   1.8400785  33.3319497
  57.1917105   1.2921934  33.6270952  74.3521500  57.3920918  31.0245776
  74.5399761  58.1805801  30.5154252  73.8392019  56.8415117  30.4329848
  17.3977518  21.3848996  12.6164472  17.6981270  22.2501397  12.3383009
  17.2418129  20.9113884  11.7993176  24.0408182  58.1804943  55.0881529
  23.7893462  58.8354158  54.4369459  24.1090822  57.3642159  54.5929098
  11.6947007  73.5188818  23.2858348  11.2442338  73.3225346  24.1072726
  12.5579429  73.1171513  23.3841038  67.0355034   9.7737575  23.1725669
  67.2296143   9.1859496  23.9026594  66.6263628   9.2115712  22.5147033
  72.6081324  12.0481801  14.3589342  73.4132957  12.3776948  13.9597332
  72.0190144  12.8025651  14.3677175   8.5398734   0.8968610   3.5277104
   8.6290598   1.7639560   3.9232147   8.3391315   0.3177501   4.2629418
   1.7248116  14.0362179  26.8715382   2.4738410  13.7125397  26.3711190
   1.7850736  13.5834527  27.7127314   8.0775392   5.5533618   7.8147662
   7.6160586   4.7892258   7.4692762   7.5531924   6.3004410   7.5263822
  54.2858696  68.1585979   0.3787777  53.5634851  67.9656649   0.9764136
  54.2191648  69.0999079   0.2184194  26.2542510   5.2328944  62.9850578
  25.7965469   5.0882876  62.1569109  25.9999061   4.4898236  63.5322189
  81.1468506  30.5204844  36.3492107  81.2772560  30.9412861  37.1990061
  81.6303253  31.0705566  35.7328510   3.4778699  48.5013914  58.8184261
   3.9033332  48.3122063  59.6547413   3.9206305  47.9310322  58.1900215
  32.9440689  14.3309855  30.3037000  33.5828781  13.7029219  30.6408787
  33.3761525  15.1809132  30.3883123  67.2679377  67.0938826  25.6445885
  66.8229914  66.2544441  25.5279684  67.8664875  67.1531773  24.8999739
  38.2457089  71.3435268  16.2560463  37.9471612  72.0812273  16.7879343
  38.5872197  70.7134628  16.8905687  40.6371832  15.4833591  10.0557852
  41.3224030  16.1493468   9.9995142  40.2617979  15.5990946  10.9286666
  77.5182486  74.0239477  33.1050730  77.0812416  73.5939980  32.3699546
  78.4454346  74.0213633  32.8672624  64.0479279   3.7189719  65.5775881
  63.5060835   4.2774525  65.0201559  63.9768791   2.8485066  65.1858330
  83.4886169  14.3510044   1.2600212  82.7147007  14.0504169   0.7836567
  83.9834404  14.8587954   0.6169602  51.5517712  64.7255754  21.9430685
  51.4569569  63.7984324  22.1613431  51.1983156  65.1879168  22.7030325
  55.6883001   3.9022356  10.9782827  55.4786158   3.0143356  11.2679350
  56.3691854   4.1969416  11.5830767   0.6248258  15.4160964  38.0963778
  -0.0854678  15.4404938  37.4551916   0.9891513  14.5345271  38.0167985
   9.4295243  -0.1709895  12.2622752   9.4960383   0.7453389  11.9936800
   8.7602786  -0.5413013  11.6867661  48.4603882  15.7660758  34.2025018
  48.5286188  14.8236120  34.0497375  48.7202072  16.1629081  33.3710861
  58.6806154  46.2588453  20.1068902  58.3765411  45.3538609  20.0378299
  58.7814426  46.4065409  21.0472369  61.1324835  67.8241730   9.6967524
  60.9886265  68.7608242   9.8317260  60.3779221  67.4040365  10.1094961
  24.5441937  54.5264626  63.9013720  25.1624441  55.2041101  64.1748571
  24.0446687  54.9302959  63.1917048  58.2621908  60.0586224  25.1833510
  57.8768826  59.2256927  24.9113250  58.3527327  59.9817896  26.1331558
  42.1454096  77.6270342  34.6029687  41.8900919  76.7430687  34.8668838
  41.7750597  77.7316952  33.7265420  68.7673712  19.2053223  28.2921600
  69.1809607  18.9285541  27.4744987  69.4557953  19.1156054  28.9511371
  12.4176526  18.4848547  30.3980112  13.3648431  18.4648132  30.5346179
  12.0763981  18.9600337  31.1556268  21.7173958   6.7002368  49.2290878
  21.7299771   6.2774324  50.0877571  22.6296043   6.6818267  48.9396620
  59.8030710  57.8055525  19.2656875  59.7625113  58.7616539  19.2870009
  58.9605522  57.5221109  19.6207297  79.7220755   0.7342949   0.3445594
  79.9309301   0.8567223  -0.5815209  79.5847893   1.6208397   0.6783593
  80.3798676   5.2554631  40.1584244  79.7069550   5.7546735  40.6212616
  80.4254627   5.6606108  39.2923951  19.5888841  32.8697276  25.0609279
  19.4456959  33.7848043  24.8193431  20.2926159  32.5765014  24.4821262
  50.9014463  76.4179754   4.9957722  50.6372881  75.5146694   5.1703870
  50.0790930  76.8817854   4.8381272   3.6019629  41.9800568   2.9161975
   4.4894242  42.3053789   3.0672261   3.4981978  41.2662697   3.5454634
  83.3960533  57.4188328  47.3262882  83.4629631  57.7635765  46.4358377
  84.1475773  56.8324041  47.4131823  48.1428862  49.1211033  33.7908649
  48.7085676  48.4960508  33.3374906  48.4960556  49.9788380  33.5546613
  14.9089384  63.0984068  51.8269300  15.0205588  64.0290070  52.0212555
  14.0091550  62.9050303  52.0900393  33.5626435  23.6920404   4.3631041
  33.5427380  23.7096310   3.4062728  32.6462483  23.5895181   4.6198890
   1.5033680  11.9459224   3.6737269   1.5826501  12.8996980   3.6576548
   0.6302844  11.7721963   3.3219081   0.3957217  42.5410223  62.4723768
   0.5807763  43.4772491  62.5463057   1.1170630  42.1950626  61.9468212
  20.5846858   7.7821779  22.9409409  20.7916903   6.9218516  23.3059311
  21.4326906   8.1428695  22.6820588  28.6115479  40.0323725  30.2968574
  29.3559980  39.5593500  29.9250031  28.3535123  40.6493235  29.6120071
  77.5989771  16.2819886   1.2713706  76.7931080  16.0364735   0.8169147
  78.1498861  15.5008447   1.2209390  45.0922298  73.2387781  66.5244150
  44.3859339  73.6886263  66.9881153  45.7467365  73.0606031  67.1997738
  76.8005848   7.2141373  35.3657389  76.6120768   6.2814862  35.4699373
  76.6277981   7.5912559  36.2283850  74.7114134  74.1141605   8.6094785
  74.3412161  73.5029507   7.9726046  73.9550018  74.5900154   8.9524579
  15.2880144   9.2328995  25.0438523  14.6325588   9.7397196  25.5231667
  15.3368616   9.6549255  24.1860986  23.1557059  10.3746903  41.5742683
  22.8691578   9.5457846  41.9577217  23.7751245  10.7316029  42.2107935
  15.3645372   2.3740143  32.5819564  15.3691638   1.4435133  32.8064060
  15.7585835   2.4121389  31.7104578  34.1294026  17.0270646  10.5970180
  34.0168953  17.7725995  11.1867213  33.3001280  16.5520251  10.6505990
  22.2543383   7.7552402  42.8249741  22.1321845   6.8525761  43.1190968
  21.6540766   7.8494549  42.0853519  44.1940880  65.8996153   4.2092705
  44.4411659  65.7832098   5.1266766  43.5687304  65.1953650   4.0384310
  36.1509824   3.0548725  20.6838202  35.7973051   2.4914354  21.3720655
  36.6663194   3.7111586  21.1528087  17.1181142  34.8233414  51.2970018
  17.7347910  34.3275237  51.8356180  17.1637416  35.7156205  51.6404915
  49.0177822  70.8971405  52.1782017  48.7267637  70.0210571  52.4312210
  48.7353897  70.9898520  51.2683153   0.7728132  29.8736095   1.7023738
   0.5559471  28.9836121   1.9800523   1.4996168  29.7628617   1.0894109
  50.2162075  35.2800703  66.6423321  50.2930641  34.5141745  66.0733557
  50.7725668  35.0766754  67.3942137  27.4931335  54.2357302  21.6570330
  27.5130463  53.6028576  22.3748827  27.5202060  55.0892782  22.0894146
   6.3999033  27.6075006  67.1111059   6.8325478  27.5313592  66.2606621
   6.7000592  26.8424654  67.6018763  43.2571411  50.9115267  15.2397180
  42.5035763  51.4547300  15.0088394  43.9386320  51.1714077  14.6198261
  11.3199461  47.8870440  65.1381874  12.0802844  47.9079676  64.5570850
  11.6779172  47.6453543  65.9923935  24.2565823  35.8625126   0.6298318
  23.9828467  36.7225051   0.3109071  24.2990994  35.3179574  -0.1562230
  24.6102548   4.1837949  46.2672615  24.7649908   3.2690501  46.0316133
  24.3684697   4.6058935  45.4428816  69.7311258  52.7234554  24.9479103
  70.3228903  52.4013948  24.2679691  68.8774538  52.3584461  24.7150159
  73.2064915  54.0878725  10.8489609  73.5141134  53.3779478  10.2853942
  72.2555113  53.9811993  10.8710492  56.8237782  36.4047956  17.2068930
  55.9745312  36.8330026  17.3148143  56.8437386  35.7363749  17.8917623
  44.0039110  10.6174612  46.8553257  44.1208887  11.2382209  47.5744963
  44.8867416  10.4793620  46.5121460  24.2097497   5.6115162  17.4082315
  23.5495663   5.7435000  16.7278135  24.5107889   4.7121757  17.2786379
  63.0042267   0.1470068  18.8160205  63.7966204   0.6044203  19.0972865
  63.1825781  -0.1062627  17.9103303  61.9382429   7.2105581   0.7297737
  61.8585968   6.2573993   0.7668629  61.5657616   7.4491805  -0.1190779
  46.8176413  57.5066471  20.9756756  46.4583158  57.3011494  21.8387437
  46.2529564  58.2032251  20.6407976  46.6842604   4.9406880  11.1247528
  47.2494984   4.6326539  10.4163349  46.7172718   4.2422211  11.7784238
  40.4754686   6.1399746  61.2000179  40.5192518   5.8954090  62.1244097
  39.5791245   5.9290427  60.9386539  55.2753687  59.2716455   7.6956069
  55.8143759  59.7433615   8.3305776  54.4210052  59.1910887   8.1196392
  40.4650831  69.1504192  23.5619020  41.3942289  69.0864182  23.3409548
  40.0117588  68.8027191  22.7938962  42.6346874  62.0373011  13.7318611
  41.9671679  61.3650894  13.8689053  43.3451271  61.7938709  14.3253636
  81.4703083  31.4000130  27.9894996  81.3621235  32.2130060  27.4959707
  81.5157509  30.7175565  27.3198557  52.2726727  25.4550481  53.1770134
  52.1284819  25.0484490  54.0314817  51.4276600  25.8438277  52.9511070
  31.7684174  76.3588762  30.1652837  32.0233774  75.8149672  29.4200373
  31.9765544  77.2523260  29.8920465  14.7243083  54.5189571  46.5107775
  14.9456656  53.8401127  47.1482754  15.0527322  54.1812563  45.6775141
  15.4573691  26.1542606  56.5706539  15.9036374  26.8284154  57.0830917
  15.4882288  25.3734994  57.1235466  51.6032362  50.2815008  17.4060965
  51.9501829  49.4788027  17.0168257  51.0763407  50.6763124  16.7113042
  39.3560266   5.8104545  65.0431585  39.4480300   6.6900051  65.4094315
  38.5724044   5.8597583  64.4956732  38.1117702  12.8252506  18.9622283
  38.4067178  12.0219576  19.3911314  38.2329082  13.5076451  19.6224535
  32.4744344  54.9188423  14.8648083  32.9472041  54.1465664  15.1751471
  32.8069305  55.6361055  15.4044497  68.4966421  27.3301244  49.4715166
  69.0683079  26.5628099  49.4458628  67.6302242  26.9909167  49.2468119
  17.8278947  60.5181694  37.8863120  16.9405758  60.1709509  37.7950048
  18.3733749  59.7456074  38.0340791  48.7060022  48.9354277  50.9233522
  48.0580997  49.6373749  50.8623123  48.9419079  48.9071941  51.8505955
  69.7970247  59.1935492  36.1255860  68.9950800  59.5666313  36.4915442
  69.6698475  58.2467413  36.1856627  30.0160360  65.8584929   3.2949862
  29.0664053  65.9777594   3.3095446  30.1447272  65.0134754   2.8641582
  31.6785121   1.6838273  57.1809053  32.0306015   1.4495803  58.0396223
  30.7937646   1.3185328  57.1770382  62.5624800  72.4919939  58.2962465
  61.6232538  72.6365423  58.1814194  62.9435682  72.7055120  57.4445343
  22.7705741  27.5569391  48.8046837  22.2532535  26.9323540  49.3131161
  22.4479103  27.4617696  47.9085445  17.3103869  58.2644224   8.1644505
  16.5884709  58.3000088   7.5369138  17.2183776  59.0649939   8.6810291
  10.7895303  20.6755352  39.0142846  10.5900526  21.5799475  39.2561102
   9.9373651  20.2401900  38.9914703  35.4449511   9.3259197  22.1863508
  35.0268888   8.4959990  21.9568133  35.1520038   9.5024729  23.0803537
   3.5494262   3.4145889  30.0855207   4.3105853   3.5626906  30.6467104
   3.8228908   2.7166361  29.4902802  41.9260597  33.7822127  13.3199739
  41.0484600  33.4355116  13.4807563  41.9431639  33.9644814  12.3804438
  33.2588005  64.7035360  16.5115976  33.9415646  65.3709793  16.4438665
  32.6427794  64.9191523  15.8114123  71.7332125  67.0735168  12.1480536
  72.2853947  67.1388626  11.3689148  71.1138630  67.7985001  12.0641673
   3.5728845   8.1204474  17.9743564   2.6597399   7.8540367  17.8674746
   3.5379407   8.8549024  18.5872078   7.6875770  64.0857649  50.8316660
   7.6044035  63.6729050  49.9720955   8.0201161  63.3909750  51.3999176
  60.1622581   4.9016696  23.9731193  59.6502781   5.5910289  23.5501623
  60.7841873   4.6195006  23.3024359  32.0444727  19.7489595  24.6999836
  32.3496938  19.9965239  25.5727863  31.9717193  18.7951100  24.7333050
  56.4790058  60.3327703  13.4566069  55.8886385  60.5748510  14.1701162
  57.3440170  60.2929211  13.8645339  61.7247868  71.3468933  14.6593678
  60.9802771  71.8648243  14.3532896  61.6618204  70.5255938  14.1717815
  64.2815304  53.7902498  39.6599054  63.7561274  54.5698166  39.4797492
  63.7115097  53.0578423  39.4256258  11.4959502  25.1766896   9.8438925
  10.7744169  25.7552743  10.0905943  12.1484828  25.7596564   9.4558424
  80.0888157  52.1128559  37.4237919  81.0083580  52.1354389  37.1589255
  79.8374128  53.0336952  37.4950814  18.5402846  24.6704030  51.9451046
  17.5835288  24.6500421  51.9659328  18.7976050  23.7523174  51.8606186
  38.5748935  48.3177137  11.6222966  38.2806563  47.7962685  12.3691261
  37.7952075  48.7978363  11.3433623  32.7329898  76.0617638  32.6326990
  33.6415291  76.3455677  32.7339077  32.5116420  76.2849665  31.7285872
  13.4859180  66.8535948  64.8984814  13.1125653  67.7346897  64.8758554
  14.3054521  66.9281054  64.4095612  31.7826128  11.7124963   2.9683077
  31.4306951  12.6026332   2.9747677  32.6001596  11.7817378   2.4752985
  39.4224262  75.2851009   8.3169913  39.5513892  75.6852245   9.1769332
  39.6701503  75.9691572   7.6949525  79.1487837  78.7657499  46.3623571
  79.8187590  79.3150902  46.7692804  79.6416521  78.1438160  45.8270884
  74.8800516   4.8546326  43.0708265  74.4091129   5.5029136  42.5472021
  74.7331238   5.1260930  43.9768934  18.6089706  35.2910304  49.0017700
  18.1271362  35.1078153  49.8083067  18.2152534  34.7105265  48.3504391
  21.1497617   5.1161993  36.4329433  20.6516719   5.2008146  35.6199384
  21.0919929   5.9804749  36.8402791  72.6517630  56.8043852   8.2833475
  73.5158825  56.9216347   8.6780304  72.0369053  57.0119095   8.9869952
  24.4166446  18.8294053  61.0243607  23.8487840  18.8494003  60.2540588
  25.3034258  18.7827253  60.6670475  82.6256657  73.7227583  31.9143486
  82.9222488  74.3589211  31.2635303  83.3230400  73.0677700  31.9441819
  78.7901020  79.2151260   1.9653533  78.6717844  78.6272287   2.7114144
  78.6960745  78.6504602   1.1981877  49.5099497   2.7345702  11.4210558
  48.7806845   2.6093400  12.0282769  50.2878523   2.5092372  11.9312799
  27.4069118  64.3656158  22.7919936  27.9882526  64.9347782  23.2963037
  27.3765135  63.5503101  23.2925820  82.9271317  77.4924803  43.4390879
  83.4575176  76.7550611  43.7409639  83.4332752  77.8737354  42.7216673
  76.6146564  67.4163723  27.6884031  76.7831612  68.1909370  28.2249522
  76.8657446  66.6797352  28.2456756  67.1333933  52.4853182  60.3088999
  67.5919485  51.7064524  59.9937391  66.6218042  52.1759892  61.0564470
  63.0387449  67.4035501   0.9154015  62.9499149  67.4646330   1.8665116
  63.9578533  67.1761703   0.7747986  54.3834305  60.4163027  62.0702744
  55.1108313  60.3455400  62.6884222  54.5162964  61.2608147  61.6397190
  21.4363170  56.6210222  60.3472614  20.8354092  57.3486233  60.1868343
  21.1386061  55.9296846  59.7559500  12.9844463  51.8101358  66.7835331
  12.4350107  52.2716427  67.4170637  12.4374497  51.7356014  66.0015678
  34.7777057  63.6346388  18.5092628  34.3511558  63.9014244  19.3235791
  34.4662714  64.2637157  17.8584933  48.8028240  24.4079208  68.3876801
  48.6360502  24.7714972  67.5180626  47.9438591  24.1179585  68.6948156
  52.7644777  72.1393967  28.9113545  53.4080076  72.0408487  28.2096505
  52.2180891  72.8746605  28.6337209  49.6625423  56.4044237  11.1623442
  48.7206316  56.4682531  11.0043466  49.9541235  57.3126459  11.2420213
  53.0908871  43.8791990  66.5276766  52.5525618  44.2685652  65.8386040
  53.8913584  44.4040442  66.5316057  82.8674793  14.5858109  67.0114660
  82.1900368  13.9557445  67.2570848  82.9611969  14.4798577  66.0647774
  46.2373543  67.5546503   3.5762113  45.5395269  66.9118977   3.7032369
  45.7786417  68.3670664   3.3622047  28.4106660   2.2885208  30.0053453
  27.5806665   2.4540707  30.4524755  28.8749957   3.1246179  30.0449705
  66.3187170  31.3093972  56.7203283  67.1625996  31.7346668  56.5678978
  66.0545874  31.6065335  57.5910616  50.1844835  44.8540401  65.3306723
  50.3636169  44.1577578  64.6987438  49.7898912  45.5539513  64.8104239
  74.6517420  69.3264437   1.8838558  74.7528648  68.5097694   2.3727776
  74.3946743  69.0489388   1.0045741  54.1663265  79.4592381  21.2643981
  54.1008568  79.5922613  20.3187490  53.2607651  79.3479252  21.5538716
  59.7406435  59.1897488  12.8100169  59.5981407  58.7405491  11.9768631
  59.8377848  58.4838486  13.4491611   1.9018809  53.4103203  13.5606110
   1.9152972  53.2633257  12.6148605   1.3798684  52.6871061  13.9080238
  56.3906956  61.0508537   9.2147630  55.9276199  61.1291313  10.0488281
  57.1940136  61.5564442   9.3384457  66.2158918  77.8010225  21.0508847
  66.7839861  78.4505224  21.4651942  66.5188313  76.9618559  21.3976765
   3.1527752   0.2500415  10.8745563   3.3145010   0.1361123  11.8110907
   3.7117487   0.9851099  10.6226528  83.3851910  72.3812485  28.0958843
  83.7227249  73.2532167  27.8909969  83.2425404  71.9729042  27.2419882
  18.1664598   9.2704207  34.5727229  18.5457146   9.7375834  35.3171396
  17.3070133   9.6734631  34.4496751  70.0096607  15.3778553  11.5554059
  70.6507158  15.9391975  11.9914973  69.1661024  15.7927799  11.7356229
  28.4100676  35.0560427  65.6360960  28.1938386  34.1278410  65.7250738
  27.8581572  35.3626370  64.9166346  84.1720104  72.2030258  21.5564203
  83.9092541  71.2849140  21.6216922  83.5423374  72.6718807  22.1040678
  51.3102007  46.8967295   3.6469343  52.1499634  46.4396238   3.6925915
  50.6899929  46.3008404   4.0670538  49.6133375  57.2284746  29.3946409
  48.9156818  56.9729519  28.7911367  49.2680359  57.9974842  29.8480964
  50.2189064  73.7135601   0.7103235  50.8046675  73.9059687  -0.0218597
  50.0241232  74.5692730   1.0924836  83.1207943  70.8866501   5.7204396
  83.7585735  70.6884432   6.4061373  83.3507633  70.2975464   5.0019008
  50.0791693  66.4697361  45.2263069  50.3243208  66.2384939  44.3303919
  50.6551027  65.9391308  45.7767487  62.5746632  10.2177453  15.5974615
  62.2499561  10.1967764  14.6972644  63.1797266  10.9592056  15.6166160
  67.0045137  56.6747093   5.4555494  67.6597023  56.7538691   6.1488700
  67.0970249  57.4794436   4.9455753  54.5791721  58.6397552  17.8939939
  54.2487001  57.7772284  18.1451178  54.1598272  58.8213491  17.0529199
  46.2745047  42.0167446  63.3425236  46.2555647  41.9147110  62.3909664
  47.2032976  41.9725227  63.5697126  48.6064911  55.3894186  13.8451922
  48.5713530  55.9249306  14.6377993  49.1940832  55.8667946  13.2594621
  25.3344584  52.0236301  18.7986517  25.1391053  51.9620848  19.7336817
  25.7882071  52.8610468  18.7033832  23.0550122   7.9536611  25.0779033
  22.2328854   7.4650872  25.1183057  22.7864122   8.8714796  25.0367403
  12.4104536  20.1983404   7.3496258  12.7896333  20.7178044   6.6406751
  12.4531651  19.2955589   7.0343620  55.5145121  76.9838667  50.0484657
  55.8735371  76.8748140  49.1678762  54.7478437  77.5439262  49.9268770
  25.6865621  15.9022892  44.3031025  24.8181105  16.3025153  44.2601776
  25.9387708  15.7785857  43.3880520  18.8777590  71.9207907   4.6284550
  18.3547783  71.4327812   3.9923969  18.8572943  72.8241539   4.3126255
  11.5953135  15.2056074  66.4474297  12.2071397  14.9143016  65.7713795
  10.7591164  15.2966213  65.9905672  54.8626375  73.0588198  10.2480268
  54.9610090  73.9438057   9.8968089  54.0266991  72.7529860   9.8960209
  15.6273043  39.9951434  42.0662260  16.5230834  40.0574827  41.7346764
  15.1916659  39.3892431  41.4667797  25.5182171   3.8374203   0.6013529
  25.2303147   3.8027981  -0.3108668  24.8355603   3.3731246   1.0857487
  42.1446514  66.8012619  62.8930092  41.1987019  66.8857956  63.0124474
  42.5153255  67.5263453  63.3960819  13.0621290  47.7361107   0.2497406
  12.3011708  47.1559572   0.2251999  13.4338415  47.6068163   1.1222915
  69.5757008  71.0029554  30.8139515  70.2636862  71.1958075  31.4509106
  69.8847628  71.4004183  29.9998641  73.2160234  12.0930803  23.9200163
  73.6188221  12.9596603  23.9750409  73.5099125  11.6416764  24.7112775
  52.4959183  56.8033743  35.5471611  53.4051323  56.5647936  35.3664780
  52.2295475  56.2144852  36.2531996  20.4621387  13.9285946  48.7785292
  20.5582476  13.6075103  47.8819275  21.3596940  14.0126550  49.1003370
  18.6657643   8.2978147   9.1353267  19.2861390   7.5749701   9.0411854
  19.2079008   9.0488082   9.3768424  51.2761688   4.4837114  48.2388592
  50.9783602   3.5744289  48.2115555  52.2313309   4.4226170  48.2518816
  41.1617994  36.2371516  63.6619568  41.5264368  36.5979362  62.8538084
  41.3910198  35.3082132  63.6343622  75.0112772  18.0820572  49.0385389
  74.6286058  17.6747108  48.2614517  74.5462036  18.9140487  49.1264582
  75.2199697   4.8828569  14.9450600  75.1783991   4.0987730  15.4925239
  76.0504675   5.2960777  15.1811755  45.8084059  25.1730919  63.7375069
  45.3198051  25.2153850  62.9154921  46.4298391  25.8991957  63.6843872
  20.4452968  39.5082927  23.1476021  20.6600118  39.8875165  22.2953582
  19.9651802  38.7069011  22.9390526  59.1254520  76.0767651  10.2838278
  59.6996546  76.6671419   9.7959989  58.4221458  75.8652258   9.6699512
  26.7920446  25.1890230  63.1759930  27.6594305  25.5911708  63.1296349
  26.2333274  25.8676791  63.5547924  71.8796396  58.7553310   6.1455882
  72.3351574  57.9827785   6.4800924  71.3362885  59.0484428   6.8770844
  37.7437830  70.3132820  12.4511790  36.7995286  70.2259302  12.5814974
  38.0391669  69.4279242  12.2387636  22.9354548  12.1101546  68.2381439
  23.5794115  12.0485198  67.5326300  23.4541202  12.0587480  69.0409994
  21.9323111  59.5289993  66.0181952  22.1129942  60.2989340  66.5574360
  22.7294898  59.0024996  66.0776711  27.0651555  22.1101451  39.2662811
  26.5149975  22.8345847  39.5641780  26.4777279  21.3545847  39.2492270
  17.8563523  17.6535261   2.3184909  17.1165609  18.0584526   1.8657480
  17.7391183  16.7142272   2.1763408  17.2082055  68.9733219  22.8516817
  16.5422332  68.3545351  22.5519848  17.4900770  69.4255686  22.0565391
  10.7844508  48.3408499  21.8630195  11.0620165  47.4412680  22.0360684
  10.4993057  48.3319569  20.9493208  76.4947462   5.5140418   9.8628336
  77.1610212   5.1484239   9.2809117  76.2959146   4.8051593  10.4745388
  32.5861454  15.6234932  59.3930387  33.4513307  15.7136023  58.9935780
  32.3880124  14.6893477  59.3271065  18.0378687   3.0111012  23.2473707
  17.6615369   3.8549298  23.4974885  18.3588707   2.6390851  24.0688300
   7.4244046  55.2694845  10.0174320   7.3728979  56.0000229  10.6337881
   7.1923721  54.5002937  10.5377614   7.1816725  68.7739134   7.8894627
   7.2122282  68.2610655   8.6971062   6.3881308  68.4746981   7.4456227
  61.4031553  69.1937733  12.8862357  61.0301638  68.5453463  13.4834385
  60.6480551  69.5517874  12.4194598  65.4179621  55.0591373  16.8031991
  65.5914879  54.2747068  16.2828231  65.9878731  54.9706841  17.5671446
  79.0026331  34.3425536  33.7667227  79.7168446  34.8004413  33.3234739
  78.2104254  34.6532607  33.3284283  71.8258333  62.9632807  34.0075040
  72.4981308  63.2905197  33.4098744  71.5610981  62.1230125  33.6332107
  35.5174208   7.7667779   3.4317464  35.1927352   7.0995015   4.0363568
  35.2658558   8.5978168   3.8346377  62.2012949  72.1278286  63.8540983
  61.3305044  71.9123411  63.5201454  62.3582840  73.0229902  63.5536480
  33.7385869  59.2659712  61.7512608  33.0500317  58.7821865  61.2951136
  34.3715358  59.4840622  61.0671234  46.5511036  61.8273783  19.7843623
  46.6740894  61.9018650  18.8380229  45.6017017  61.7893887  19.9002481
  70.7269382   9.8903829  10.0932801  71.6333628   9.5828104  10.0985754
  70.6839657  10.5214965  10.8116674  55.5953714  41.0244916  68.9903733
  55.7579228  41.9670698  68.9535539  55.2618714  40.8047967  68.1204638
  66.9354630  46.2839174  49.0410328  66.5478659  46.2460852  48.1666374
  66.2241459  46.0309649  49.6294785   4.7160646  38.6758614  33.7796521
   4.9716994  39.5803523  33.9607024   5.4586518  38.1522536  34.0807009
  71.1771727  23.8027310  42.3913956  71.0509348  23.5753441  43.3125877
  71.8991899  23.2440901  42.1035719  73.1824875  25.3712583  15.4107034
  73.4533072  24.5776415  14.9491155  72.2327185  25.2870893  15.4948556
   2.8247547  29.4705653  48.0433464   2.4584165  29.8438191  47.2416544
   2.9537207  30.2230501  48.6207294  15.1798058  19.4192553  16.7934632
  15.1185250  19.9379241  15.9913039  15.7095170  18.6606240  16.5482759
  57.8170967  69.5526552  45.2644730  57.9586601  70.1211405  44.5074940
  56.9645500  69.1480970  45.1040840  40.6593752   6.4511663  37.0384455
  40.7438850   5.9706277  36.2149334  40.8038616   7.3662579  36.7976880
  65.4291296  74.7260904   3.5391283  64.6381664  74.1899824   3.5956243
  66.1328459  74.0982199   3.3754221  12.7827644  68.1647301   1.5408248
  13.0391049  67.4579287   2.1332389  11.8297672  68.0956459   1.4837746
  65.2445507  17.9786968  41.0334063  64.9399614  17.2341764  41.5521955
  64.5565796  18.1140220  40.3817797   5.1078016  55.3583622  16.7663193
   4.6927750  54.7756147  16.1304033   4.7970930  56.2320662  16.5289688
  33.6548567   8.7805754  65.6635904  33.8240886   8.8654244  66.6018820
  34.4473219   9.1177779  65.2458286  13.5815096   5.2444965  12.0918000
  14.3115687   5.3300989  12.7049220  13.8929796   5.6619602  11.2887168
   6.2832093  40.2196169  38.2768655   5.5563831  39.7034860  38.6255264
   6.5901494  39.7203326  37.5200725  75.6012774  27.0477533  66.7459536
  75.2732277  26.6088104  67.5307798  74.9185658  27.6802802  66.5222359
  83.8578987   3.2408279  36.0527396  84.0801334   2.5456724  35.4333830
  83.5138512   2.7792782  36.8174863  83.8979244  18.0702376   0.5177795
  84.3773937  18.6327374  -0.0904450  84.2057323  18.3369374   1.3840109
  42.2429895  39.9514651  55.8174229  41.7141581  40.5877018  55.3359890
  42.7439117  40.4785252  56.4399290  26.6630077   3.5313940  42.5679398
  26.6990280   2.5925055  42.3851204  26.6037464   3.9413351  41.7049980
  46.4265108  79.1353607   3.8789982  45.4871988  78.9710665   3.9622238
  46.4853048  79.9147034   3.3263680   5.3207487  76.4786053  33.3720207
   5.6495738  75.6270981  33.6601949   5.0397873  76.3335896  32.4685502
  34.6601868  11.0327888  59.2974854  33.8682818  10.5222487  59.1287661
  35.3775048  10.4560518  59.0346861  31.2719321  59.6650362  30.8851433
  30.8421206  60.2136993  31.5412426  31.2926269  60.2067614  30.0962567
  32.7182436   3.1396616  22.5863171  33.0376911   2.5879240  23.3002996
  31.7993808   2.8915247  22.4845791   6.0622805  35.9716558  67.5110435
   5.9997177  36.6525364  66.8411779   5.5476791  35.2440381  67.1617699
  28.2935119  76.9284630  11.4292514  27.7364469  77.0511198  10.6605744
  29.0795064  77.4408054  11.2396467  24.2689276  57.2814465  13.2378912
  24.8416114  56.6871357  13.7227166  24.4334817  58.1413746  13.6247718
  20.3554034  58.9496279  28.0682564  19.9473166  58.3617067  28.7039018
  21.2729406  58.6779165  28.0453300  79.9851131  68.7174988   0.1075612
  80.2878189  69.1995239   0.8771429  79.7300863  67.8597069   0.4472443
  47.2936058  64.4497061  38.4093857  47.6046371  65.3538227  38.4548664
  47.0827007  64.3151665  37.4854517  83.9907742  44.8767900  32.8058338
  84.1534424  44.7457790  31.8717003  84.8257923  44.6700811  33.2256556
  77.8544760  55.9216881  11.9988656  78.1435251  55.3433943  11.2929893
  77.0933151  55.4792118  12.3744690  78.9394140  16.8166757  66.2601662
  79.3423271  15.9665895  66.4369345  78.0129385  16.6897452  66.4645386
  79.7665739   7.0919383  34.4177318  79.5379305   6.4853334  35.1219940
  78.9742947   7.1483326  33.8835549   3.3500594  23.1922984  19.3522310
   4.0898877  22.8290224  19.8389721   3.3061939  24.1070700  19.6306229
  17.8792548  44.5491838  57.3050451  17.4773502  45.3087854  56.8834925
  17.9482210  44.7957182  58.2273769  11.1270154   7.3083919  26.6703534
  10.2822506   6.8604821  26.7148709  11.3213646   7.3606831  25.7345510
   1.9949065  71.8402910  26.1697936   1.3115335  71.3937807  25.6699347
   2.5926912  71.1414909  26.4354205  72.2741079  61.4810944  27.0460200
  71.5103388  61.9724321  27.3484635  72.1449232  60.5990601  27.3946738
  62.1101761  18.5751390  67.2118139  62.7639675  18.7277687  67.8940868
  62.1415424  19.3632197  66.6694307  46.6532660  77.4331760  22.7060199
  47.1226406  78.1045961  23.2011151  46.9100666  77.5830984  21.7961812
  18.2718754  53.0775833  22.8997660  18.3912313  53.9058113  23.3645582
  17.4113882  52.7668238  23.1812310  44.2572594  59.0800333  24.3951750
  43.7000132  59.3576956  23.6681223  44.9170303  58.5172749  23.9899063
  79.9344397  75.7255888  23.4215927  79.8825884  76.6365957  23.7107539
  80.3216362  75.7734108  22.5475121  75.6446171  50.1213264   2.6144198
  76.0338593  50.1162672   3.4888884  75.9517765  50.9377289   2.2202474
  30.5396056  32.8824139  57.0685101  29.9078751  33.5839868  56.9105721
  31.0572529  33.1893253  57.8128767  13.5168004  16.5983725  15.6882584
  12.9856014  17.2732008  15.2655673  13.4416163  16.7855537  16.6239619
  74.5974779   2.3995304  16.3494849  75.1488447   1.7810494  16.8287611
  74.1685009   1.8680820  15.6788325  18.2133865  75.1651049  18.8663805
  18.2042468  74.2260551  19.0516675  17.8968585  75.2346134  17.9657078
  51.1486959  74.3031693  28.2477403  51.0019636  74.5625973  29.1573548
  50.2922583  74.3972063  27.8307247  72.4740934  50.6052589  44.9815893
  72.8831577  51.2749529  45.5296850  72.6170921  49.7867060  45.4567289
  24.4042253  30.8483839  28.6019516  23.6955571  31.4648628  28.4176302
  24.9000669  30.8020759  27.7844977   3.2204491  75.2136850  48.8034821
   3.9543226  75.8263683  48.8512373   2.4647960  75.7215929  49.0988636
  81.7162991   1.4632984  30.9897470  82.5938606   1.5171362  30.6113148
  81.8542767   1.0975853  31.8635035  28.4906769  74.0264511  39.0899801
  28.0172420  73.4287310  38.5113454  28.3214569  73.6915684  39.9705768
  51.1514521  69.6299839  12.2937393  50.4165602  69.0215206  12.3707855
  50.9347773  70.3443336  12.8929007   8.3999968  51.5167093   4.0963823
   8.0189657  50.6806231   4.3647295   8.3327544  51.5150976   3.1415483
  79.3873787  48.3415794  10.4308677  79.5221233  48.1095552   9.5120430
  79.4785976  47.5138140  10.9027910  11.1029041  63.3050823  20.5457687
  11.7719257  63.9895630  20.5571175  10.6984091  63.3511400  21.4120793
  51.2159681  21.4062452  47.4000835  50.9604549  22.3027658  47.1828413
  50.9975529  21.3129640  48.3273506  75.7649899  54.7100878  30.4559398
  76.1706686  55.5692673  30.3398895  76.5019083  54.1003418  30.4932475
  44.0744495  15.4763484  36.4827585  44.1124249  16.1409986  37.1705294
  44.9223614  15.0346506  36.5294504  76.7145538  64.0295792  18.1068134
  76.9744492  63.8185787  19.0035653  75.7890606  63.7892485  18.0628324
  35.6398368  54.6772575  20.4992366  35.3290272  54.7832012  21.3983512
  36.5475202  54.3879175  20.5921197  15.7643747  45.0348139  39.8611116
  15.4262102  44.1563272  40.0347090  16.0504389  45.0052595  38.9481354
   2.5986230  55.4131889  20.7181764   2.5794053  54.7326088  21.3909912
   2.2178063  56.1814213  21.1436486  16.3065898  13.7685382  19.7438502
  16.8581080  13.1259179  19.2976451  16.9235969  14.4089735  20.0979376
  75.7006025  56.0493231  40.4279613  75.1144266  55.5738974  39.8392296
  75.1456642  56.3020897  41.1657858   9.9806881  15.8360636   5.2840573
  10.6414199  15.3605640   4.7805050  10.0258267  15.4531384   6.1601639
  59.1540003  71.2919188  65.7551622  59.3448925  71.3641453  64.8199749
  60.0135899  71.2213945  66.1703253  59.0077019  48.7936306  58.6476803
  59.2221498  48.6917019  59.5749617  58.3317184  49.4711304  58.6312437
  45.1680040  26.4056659   4.3843892  45.5977821  26.4680672   5.2374005
  45.1860905  25.4718661   4.1748184  41.5468264  39.7665119   0.4472495
  41.8374348  39.1040015  -0.1795344  42.1561575  40.4946709   0.3258748
  49.2806244  74.6916437  68.1182671  49.2872715  74.5332623  69.0622473
  49.7417307  75.5236673  68.0117464  46.3389683   3.8186529  16.8075633
  45.6314945   4.2706582  16.3477755  45.8939552   3.2826507  17.4639916
  14.9015987   4.6510866  34.0102053  15.0440431   3.7597239  33.6917496
  14.4339764   5.0878906  33.2983327  78.8008308  23.9959574  19.0912628
  78.3267117  24.8025131  19.2935312  78.1490421  23.4334850  18.6729014
  28.4616423  15.3041971  68.3939600  27.5784969  15.4063129  68.7487268
  28.6209917  16.1151135  67.9109955   6.0425895   1.3689746  11.8923950
   6.6006976   1.4146505  12.6687062   5.2056032   1.7357996  12.1772194
  16.0005772  30.7406569   5.3921258  16.1875069  30.4613304   4.4958749
  16.4711523  31.5686655   5.4880142  73.3706379  76.8633270  15.3613842
  73.6816883  77.2833109  14.5594525  72.4510860  76.6635942  15.1859915
   7.5138682  12.5515878  22.7389622   7.3122293  13.3554733  23.2178593
   8.4550571  12.6019144  22.5720429  22.7969432   0.4995285  16.0140145
  21.9452477   0.6515627  15.6044626  23.4054732   0.4213559  15.2792966
  33.8436341  64.4287729  63.0808687  33.9412141  64.7931194  62.2011185
  34.4250679  63.6684704  63.0910826  18.3468926   0.5272214  28.9483023
  19.2019153   0.9444651  28.8430595  18.4970438  -0.3888353  28.7147927
  25.7992005  32.1241045   8.5037291  26.3014293  31.9106674   7.7173185
  25.9592915  31.3899803   9.0967429  55.6464386  53.7870455  38.9257884
  56.3602114  53.6345291  38.3065200  55.7757330  53.1275988  39.6074390
  24.0295458  38.3176899  44.9060726  23.6125684  39.1384196  44.6438503
  23.9123988  37.7382922  44.1532087  25.5275178  16.1933553   9.1768467
  26.2778664  15.6159174   9.0362376  25.4340196  16.6697669   8.3519095
  81.2902069  16.6132092  14.4964063  81.5082741  17.2484612  15.1784158
  82.0699024  16.0627294  14.4236982  79.0087318  66.3201189   9.9845785
  79.1180182  65.5471516   9.4306725  79.5411444  66.9944096   9.5625645
  48.8818502  16.8480611  39.0298033  48.0217123  16.9414639  39.4392800
  49.4320965  17.4893558  39.4794703  40.8196545  20.4984331  63.8859367
  40.1256657  20.7512069  64.4948006  41.5029955  20.1256990  64.4430208
  55.6410456  24.5667100  48.6100292  55.8275938  25.3837419  49.0725136
  56.3455725  23.9753294  48.8748789  38.5326862  26.0945177  12.4858582
  38.5944247  25.9739661  13.4334278  38.4229732  27.0384645  12.3711514
  35.6040478  72.5355768   8.8563645  35.0807548  73.0857515   9.4392025
  36.5109754  72.7422523   9.0821916  75.1264191  21.9523406  67.9158735
  74.5397854  22.6835275  67.7223349  74.5426416  21.2379384  68.1709433
  48.1934929  34.2140484  69.0525293  48.0879688  34.1305399  68.1048393
  48.4527731  33.3394957  69.3426418  81.2777805  63.3934975  12.5260067
  81.8598270  63.8913488  11.9519031  81.8367004  63.1170177  13.2522345
  54.9942446  43.8643789  52.6125383  55.2443361  44.3344450  53.4079790
  55.7854700  43.8672638  52.0738506  62.2412157  64.6439457  10.1970625
  61.4915085  64.9221897  10.7231307  61.8562698  64.3291044   9.3791866
  65.3187609  51.1644506  46.3162565  65.2694035  52.0911789  46.0817957
  66.0549641  50.8271551  45.8059025  11.1239660   5.7558089  43.6591053
  11.7276502   5.8732057  42.9256058  11.6918194   5.6602520  44.4237232
  18.3006763   4.9900195  26.3621926  18.5824680   5.4282665  27.1651649
  17.7214313   4.2895442  26.6622615  55.5328369  63.4317160  45.3889084
  56.4026833  63.1075716  45.1554060  55.5885267  64.3789911  45.2632141
   7.5989407  77.0169830   6.1883867   8.1822932  76.3719749   5.7885182
   7.6697987  77.7865982   5.6236696  15.4881120  17.2822404  25.4207754
  15.2376401  18.1888926  25.2433538  14.7772026  16.9388950  25.9620261
  67.0845222  66.7195272  50.3828526  66.2935209  66.3459682  49.9942589
  67.7736998  66.5389061  49.7435999  82.5946140  77.3968887   5.2920097
  81.6886997  77.6638651   5.4478258  82.7304077  76.6549635   5.8813649
  63.5367870  19.1705966  44.4058275  62.8574324  19.7899938  44.1392565
  63.0767918  18.5287809  44.9468517  45.9909344  27.3664427  68.2617044
  45.3705502  27.5891256  68.9557981  45.4946709  26.8020391  67.6689148
  59.8567533  65.5827713  49.0540314  60.7525063  65.8866262  49.2007542
  59.4255733  66.3134050  48.6107683  22.6662731  27.6047134   7.6202416
  23.0919528  27.6520514   8.4762716  23.3231759  27.9352283   7.0074856
  49.8545837  38.4438825  68.1737947  49.2772245  37.8432751  68.6451340
  49.2627716  39.0828443  67.7766609  47.2822237   5.4115343  26.5451574
  47.3827553   6.1762714  25.9783220  47.7143288   5.6605256  27.3621750
  27.6157141  34.2989397  20.1301980  28.4518218  33.8563466  19.9843633
  27.1080589  33.6835980  20.6592298  36.3250399  16.0315764  37.4943471
  35.3757524  15.9088123  37.4908614  36.6738749  15.2115786  37.1448445
  64.3928766  35.8861494  68.0041170  64.9767447  36.6411328  67.9311275
  64.1549778  35.6790900  67.1003675   5.4222572  36.5883827  10.6572711
   5.2535999  35.7136750  10.3070235   5.0330573  37.1824813  10.0155532
  63.9870739   2.2718376  30.5569649  63.5621071   1.4219555  30.6724596
  64.0880775   2.3623209  29.6094179  49.4944525  78.7003517  29.9826193
  49.8102713  77.9898453  30.5408955  48.5503960  78.7259722  30.1386237
   4.0758458  18.3207619   8.7618333   4.1286182  19.1596615   8.3039093
   3.4628484  17.8017974   8.2411200  83.9703751  45.3287554  10.6364524
  83.3591747  45.7670164  10.0443494  84.4176006  46.0428858  11.0905826
  59.2070770   3.7832776  58.4175396  59.3604946   2.8993940  58.0837059
  59.4632435   3.7391788  59.3387699  67.5437689  55.2180815  61.2122965
  66.6637421  55.5945110  61.2213373  67.4122381  54.3079281  60.9466743
  62.0322466  64.7147942   2.7419454  62.0676231  65.6310320   3.0166951
  62.5054455  64.2411661   3.4260458  41.9385767  41.1728334   8.2605684
  42.1903038  40.5834913   8.9715844  41.5600634  41.9330215   8.7022352
  65.9403038  68.5394430  19.2509079  66.4757395  68.4952307  18.4587049
  65.0389433  68.4790373  18.9344656  23.3687520  26.7455101  19.7174251
  24.2069459  26.4653850  20.0851107  22.7491212  26.0692573  19.9912357
  56.4914227  52.5367785  27.0473647  57.2303295  52.9836750  26.6344118
  56.7664146  52.4078846  27.9551053  61.0251149  36.5309880  68.7495786
  61.6664954  37.1920941  68.4892002  60.1981594  37.0094893  68.8079959
  50.9260988  56.6293716  60.5366802  50.2052927  57.1682596  60.2106953
  51.6342640  57.2516012  60.7026958  25.2896190  23.6744618  29.4403481
  25.7621455  24.1425180  30.1287341  25.9546828  23.4877706  28.7777257
  24.2905617   7.1170640  27.2538400  23.9789319   7.2832233  26.3641691
  24.9922895   6.4750785  27.1458340   1.6402864  69.6470594  63.2127953
   1.2199306  68.7905169  63.1361580   1.2941012  70.0117397  64.0272856
   2.6044956  35.8316350  17.5527894   2.3332243  36.3465643  16.7928612
   2.6471499  36.4655089  18.2687640  44.0307331  72.8346920  28.3084178
  43.8919020  73.1318378  27.4091625  43.2332611  72.3526049  28.5271859
  38.9399457  10.9832013  64.5623398  38.0896544  11.4107478  64.6645164
  38.8507795  10.4600286  63.7657404  67.2507954  52.0483303  28.7655711
  66.3366032  52.3126984  28.6626554  67.3002195  51.1890221  28.3467937
  47.2010183  31.3258862  17.7287161  47.5924444  32.1669984  17.9644012
  47.4229908  30.7459140  18.4571338  20.0408912  70.9111118  30.0888848
  19.2278314  70.4593945  30.3149819  20.4066634  70.3991985  29.3675041
  44.2174387  29.3735647  62.5546074  44.6305275  28.7371659  61.9710112
  44.5349789  29.1400266  63.4268808  62.3907280  49.6101284  61.0653925
  62.9153252  49.0122080  61.5978622  61.7780924  50.0072956  61.6843987
  58.7389851  65.8548355  62.1373510  58.9521885  65.9446335  63.0661726
  57.8306293  66.1492109  62.0705652  30.0210953  17.5133443  20.7483435
  30.8287024  17.6371038  21.2470269  29.3325210  17.4786878  21.4123440
  73.2359076  77.0516396   2.2091901  72.3338556  76.7706442   2.0556442
  73.1970644  77.5442648   3.0289713   5.7215977  69.7973728  44.2008114
   5.6547564  70.1176739  43.3012724   5.1258159  70.3567934  44.6991396
  59.7094774   1.2849420  60.6097841  59.9998188   2.1768630  60.8006048
  60.2946711   0.7276476  61.1228132   9.4432324  14.2919219  10.8960605
   8.9768690  13.4565103  10.9247816   8.7677717  14.9491751  11.0634041
   3.3108643  68.0637169  66.6769028   2.6088852  67.4135017  66.7030144
   4.0170354  67.6345158  66.1938477  78.4469080  25.8970690  47.1353388
  78.5118294  26.1839604  46.2244558  79.1019964  26.4193892  47.5982285
  47.7177668  12.5177217   4.9900413  47.3358822  11.8042970   4.4787461
  46.9784594  12.8906822   5.4702103  75.5917168  22.9506755  23.4217024
  74.7608948  22.7126265  23.0102396  76.2349415  22.3689246  23.0166602
  57.5130892  77.8105450  67.7207756  56.5664625  77.7816868  67.5818682
  57.7736998  76.8918228  67.7860689  20.9878254  10.0242364  26.7969084
  20.2081275  10.0811589  27.3492336  20.6713462  10.2196181  25.9149241
  75.4767323  59.5521355   6.8879682  76.2813234  59.9465799   6.5514022
  74.7962856  59.8393774   6.2791049  53.8641071  66.8019915  24.7246146
  54.5588493  67.1651793  25.2738476  54.2895412  66.0986805  24.2341208
  50.3850174   8.4769481  13.6494040  49.8040152   7.9139709  13.1378126
  49.9482346   8.5651064  14.4965649   2.6709038  77.5946331  27.6720548
   2.0679930  77.9732513  28.3118796   2.1152763  77.0553970  27.1092629
  59.4000626   6.3477200  33.8534999  59.6742296   6.3470131  32.9364061
  59.7911453   7.1408898  34.2197895  32.2547722  71.3151455  63.0433273
  32.2354984  71.1419773  62.1021175  32.9003191  70.6977367  63.3872843
  35.6352663  71.3630867   6.1751151  35.6968260  72.0448780   6.8441463
  36.1974955  71.6728306   5.4650533  69.2496681  69.7090435  13.6533606
  69.1372347  70.2693176  14.4212675  68.4226084  69.7858810  13.1776500
  61.4862204  47.1265125  66.8670225  62.0354319  47.0557117  66.0862589
  61.1671352  48.0288744  66.8543816  35.8348894  75.2541780  41.8851471
  36.4288568  75.7716990  41.3414526  36.2282252  75.2762318  42.7575159
  10.6352651  28.6466503  32.3636866   9.8616135  29.2070746  32.3035216
  10.6490541  28.1676435  31.5350771  17.0440102  78.8465452  22.7083492
  17.8930426  78.4575701  22.9182887  16.4075410  78.1676197  22.9324055
  46.0188437  16.1171997  46.8815088  45.2124929  16.5792716  46.6523218
  45.7686663  15.5438077  47.6059818  36.3756847  47.5271130   6.0984367
  36.8305397  46.6953039   6.2304717  36.9640756  48.1836557   6.4712346
  15.7007539  21.4703584  14.8241115  16.3845623  21.2599730  14.1882062
  15.0263679  21.9164824  14.3118525  71.6715336  69.3157291   3.5810041
  71.5899086  68.6569929   4.2706686  72.3145771  69.9386501   3.9196736
  56.6607952  59.4853544  63.5759449  56.7365074  59.0895367  62.7077103
  57.5656891  59.6110582  63.8615990  28.6985230   0.0504246  16.4849925
  29.1061187  -0.2835898  15.6859100  28.4267545   0.9405340  16.2612104
  25.7658529  20.5050826  15.6479836  25.1504564  19.9006486  16.0629320
  25.7487702  21.2837577  16.2044024  74.6549845  36.0394454  19.4628537
  74.5504951  36.1008120  20.4123521  74.9550247  36.9090271  19.1982150
  77.4109602  60.3308725   5.3500736  77.8094959  59.7141123   4.7360665
  76.9641304  60.9683371   4.7931060  30.2385235  27.2539306  38.0171824
  30.1038146  28.1337523  38.3693147  29.7560668  27.2503638  37.1904683
  72.3297215  21.2278700   6.5488291  72.3081064  21.0125470   7.4812454
  71.4677811  21.6036701   6.3697541  79.7670984  64.1700602  30.4452872
  80.6691170  63.9493608  30.6774044  79.8502016  64.8858213  29.8151970
  72.3912716  77.4084949  19.6252143  71.5430832  77.4496698  20.0669312
  72.4364614  76.5184450  19.2759335  71.2829924  57.1755123  65.1403379
  71.1520910  57.9903603  65.6252289  71.4491987  56.5185642  65.8163738
  10.6192303  18.7801456  12.5289381  11.4678288  18.7231827  12.0897698
  10.3433239  19.6876240  12.4001360  75.8423662  76.4147186  24.3838406
  75.1669550  77.0647144  24.1900468  76.1673498  76.1437130  23.5252523
  64.3825674   3.6613789  15.9025776  64.6615601   4.5142689  16.2357032
  63.6520958   3.8602978  15.3168511  67.8100014  74.2449284  48.5100985
  68.1589270  75.0905323  48.2282591  68.4872532  73.8853025  49.0830183
  68.0330420  45.9223032  26.7187667  67.7185583  45.1829433  26.1985040
  68.9841557  45.9023523  26.6128635  35.6931186  16.8986154  23.5465574
  35.7315612  17.5675642  22.8629923  36.4668155  17.0624590  24.0857983
  33.2393098  16.5692735  14.8907053  32.3814321  16.5301359  14.4679201
  33.4109759  15.6693292  15.1679468  67.5767994  53.0493212  55.2800989
  67.0888567  53.0382538  56.1035204  68.1531429  53.8100338  55.3534269
  21.2367225  33.6273360  14.1375971  21.9857335  33.3006763  13.6390913
  20.7234454  34.1243505  13.5006070  33.9138222   3.0727646  30.6969643
  34.5714808   3.3043396  30.0411510  34.1876531   2.2134855  31.0177255
  54.2608213  58.4458303  39.2609191  54.4887352  57.6608086  38.7628937
  53.4466362  58.2170677  39.7092509  66.2705135  52.9277182  57.5746584
  65.8114719  53.7341213  57.8096676  66.8429279  52.7516460  58.3213663
  22.9186940  24.0087175   3.0391607  23.3908963  24.5298338   2.3897782
  23.6060810  23.5646725   3.5357043  13.8646734  18.3100379  18.8933289
  13.5411513  19.0227842  19.4442916  14.2391694  18.7488258  18.1294894
  83.3746052  20.0252485   5.2932286  84.2725754  19.8883688   4.9913102
  83.3214092  19.5378339   6.1153173  33.7515044  20.7901955   7.3873359
  34.2451572  20.4806924   6.6278982  33.0587006  20.1400542   7.5038403
  79.4868517  26.7474461   9.8961836  79.8206186  26.6267514  10.7851529
  79.3184090  25.8594728   9.5809710  44.7236347  67.9194641  15.2511907
  44.7285843  67.3955107  14.4501424  44.1848373  67.4172783  15.8625329
  14.9569106   2.9983169   1.7520759  14.1787660   2.6325825   1.3314077
  15.3667867   2.2513613   2.1882989  48.9162254  15.2229154  60.5748606
  48.4309959  15.7388783  59.9309921  48.8260221  14.3186295  60.2742577
  10.1685500  14.4735372   7.8627151   9.7245049  14.5070684   8.7100232
   9.9059725  13.6328697   7.4877995  62.0537043  57.5064945  58.4160614
  61.1945915  57.6574421  58.0218935  62.6549721  58.0322742  57.8885508
  35.4607987  78.4536076  16.2059581  35.9539342  78.8115835  15.4677856
  34.5816827  78.3055401  15.8574390  69.3989754  76.3775206  25.5829549
  69.7538233  75.7044458  26.1637163  68.5785103  76.6436768  25.9979653
  45.0453281  76.7254734   5.6111276  45.3769779  77.4701786   5.1094764
  45.8316708  76.2754440   5.9199357  17.5417459  27.7095866  16.8289018
  18.0540276  28.5058045  16.6880584  17.6529241  27.2073293  16.0216808
  75.3943443  69.8276806  24.6916699  75.8274174  68.9835501  24.8186398
  75.7407475  70.3821564  25.3908110  59.9086237  56.4816856   6.3252193
  59.0810823  56.9288588   6.5025461  60.4142094  57.1093893   5.8088857
  11.6185057  27.4843311  47.0060205  11.9053268  26.8903971  46.3123322
  11.0041952  26.9662642  47.5260830   4.8754787   7.9099381  45.1431751
   4.6018881   7.7655917  44.2373371   4.1440618   7.5859427  45.6688070
  48.5052156   8.1951451  16.0246921  48.6475229   8.4628808  16.9326007
  47.6111174   7.8535497  16.0130525  77.3693800  14.1219509  13.9564848
  77.8019667  14.8980582  13.6004567  76.9152164  14.4380033  14.7375607
   6.0178870  44.7187614  47.0590353   5.9789211  45.5987835  47.4335670
   6.5404129  44.2155933  47.6835489  10.2664518  16.4697433  20.7469797
   9.4309187  16.9288599  20.8325887  10.0914490  15.7690454  20.1187825
  47.5259018  30.5460620  61.3779020  46.6834688  30.9892583  61.4785004
  47.3045921  29.6927929  61.0048246  50.7525826  45.1187229  56.3045359
  51.3796329  45.8419180  56.2994385  51.2954283  44.3313074  56.3435507
  71.6623545   4.3004560  58.3150864  71.3447523   5.2034307  58.3157301
  72.3455429   4.2873356  57.6447773   3.3752465  74.5665216  61.6206026
   3.7246633  73.7821436  62.0435619   3.9396548  74.6995735  60.8590412
  23.1066847  12.8296602  14.8534334  22.5276804  13.0979037  15.5668974
  22.5166750  12.6453638  14.1225731  61.8647194  26.3922858   9.7850990
  61.8912029  25.5991268   9.2499089  61.3345957  27.0064044   9.2771071
  83.2911110  78.8252497   2.0711862  84.1208267  79.0498161   2.4923351
  83.0871868  79.5837688   1.5241086  72.0240355  60.0525904  24.3319011
  71.9136000  60.5582905  25.1370764  72.2665215  59.1762018  24.6308517
   9.2032212   4.2504168  24.2876911   8.4378946   3.6893335  24.1624236
   9.0769786   4.6378431  25.1538301  57.5571299  47.2633219  63.6165619
  56.8326139  47.3337221  64.2381382  57.1501589  47.3881149  62.7592230
  41.7004156  30.5180883   0.7755295  40.8897829  30.6102610   1.2761435
  41.5645123  31.0593581  -0.0021518  29.5585537  27.9449964   2.9947141
  29.8132896  28.7528443   2.5489321  29.3304729  28.2226872   3.8819003
  21.1325884   0.4849302  35.1548910  20.3849959   0.8088358  34.6524763
  20.7419062   0.0584742  35.9176064  77.7293730  77.8022385  50.3291559
  78.3697081  77.4345589  49.7200441  76.9102144  77.3564959  50.1134539
  57.2318077  50.1192713  14.4923270  56.8853760  50.2879810  13.6161113
  57.3463631  49.1695404  14.5258152  74.4505882  10.0925875  35.6162405
  75.0787497   9.9995553  36.3324714  73.6997747  10.5350769  36.0121131
  23.9742231  33.6689305   9.3910718  24.8146319  33.2690096   9.1674471
  23.7151790  34.1405106   8.5994029  61.0122681  50.8577394  63.0928230
  61.3149071  50.8866119  64.0004635  60.1475477  51.2675905  63.1155205
  72.8920221  60.8623838  63.5976410  71.9731092  61.1185884  63.5189581
  73.3699512  61.5310097  63.1069660  68.6791754  59.2772865  66.7726564
  69.6066093  59.4403839  66.6009188  68.4597254  59.8734379  67.4886703
  78.0876923   2.0215952  46.1543226  78.1074190   1.8510003  47.0959902
  78.4914684   1.2473879  45.7621431  64.1598463  78.1190300  59.1684437
  64.3473244  77.1809673  59.2018938  64.4127846  78.3824253  58.2836390
  18.8646603  33.3592176  17.6866317  18.5301387  33.9629245  17.0234084
  19.5964622  32.9147816  17.2586429  70.1866531  73.8432598  53.6868286
  69.9565458  72.9471588  53.9323568  70.8967638  74.0801954  54.2833519
   8.8862610  50.5028343  22.9093337   9.2089671  50.0622559  22.1232152
   8.3263111  49.8535919  23.3349752  46.4446211   0.0861398   1.3634759
  46.0437822   0.5872758   2.0737013  47.2728872   0.5342396   1.1919576
  37.7166796  15.2990746  14.4940758  37.3013926  14.4418991  14.5890379
  37.0770383  15.8230031  14.0118027  82.2660351  28.7862229  47.2605467
  81.8009758  28.1129360  47.7571630  82.7027607  29.3166494  47.9269934
  47.9672861  43.2366276  44.7659826  48.6178350  43.9166784  44.5911980
  48.1800842  42.9217291  45.6444979  33.0258012  69.8191452  33.9655089
  32.4592662  69.0489388  33.9201713  32.8036571  70.3261757  33.1846118
  80.9264374  75.8427334  20.9089780  81.6940117  76.4107656  20.8427334
  80.2701187  76.2610245  20.3517365  21.4893270  32.2482014  46.4731312
  21.8877649  32.6803160  45.7176447  20.8400536  32.8748083  46.7925692
  70.3330898  43.0097437  53.1736612  70.6595230  43.0072689  52.2738457
  70.0905800  42.0993805  53.3429766  11.7769408  20.5418444  43.0055857
  12.7106726  20.7041311  43.1399012  11.3740361  20.7495403  43.8486528
  19.6312869  16.1197412   4.6971762  20.3509808  16.6177022   5.0848699
  19.4166601  16.5946400   3.8942826  70.7404995  56.3129997  57.9182100
  69.9196911  56.1634970  58.3874178  71.3064194  56.7457771  58.5574865
  13.1447423  29.0489769  26.6005182  13.8519454  28.9206433  27.2326779
  12.4005854  29.3375039  27.1289277  72.0177126  66.8999004  65.3807831
  72.2565842  67.3540926  66.1887980  71.0614252  66.8630314  65.4004860
  32.7911973  24.1023016   1.6547801  33.2566476  24.5652509   0.9581681
  32.4616647  23.3074355   1.2354626  74.1035986  46.1229801  55.2955103
  73.1659031  46.0713530  55.1103306  74.4784737  45.3652430  54.8465824
   4.7011349  59.1425085  27.8402972   5.1941979  59.5216131  27.1126962
   4.3137363  59.8961210  28.2855201  15.4110610  47.9478598   4.0625703
  16.2034523  47.4137878   4.0067598  14.6929204  47.3174715   4.0067711
  55.5058575   2.5909421  67.7192307  55.1809216   3.4881973  67.6445198
  56.2657309   2.5622067  67.1378517  69.4496965  63.9195442  49.3009758
  69.5301580  63.4717417  48.4588146  70.2545071  63.6964941  49.7686958
  82.4243355  28.5715270  39.7345281  83.1260872  29.0934372  39.3454456
  82.6380253  28.5401130  40.6670427  37.1606183   3.5792720  43.8191128
  37.7122545   4.0713352  43.2109976  36.9293642   4.2124605  44.4986868
  36.7228889  16.0418618  10.7193744  36.8871522  16.4768648  11.5560472
  35.7770419  16.1160457  10.5924869  36.8193245  19.3197381  54.2191648
  36.7805219  20.2731705  54.2946053  37.7534127  19.1228616  54.1488028
  47.6178646  19.0020740  19.9748147  46.9547462  18.5564291  20.5019808
  48.0299044  19.6189618  20.5797148  34.8214412  19.1935408  52.1081400
  34.5819688  20.0712943  52.4055147  35.3589654  18.8390458  52.8164005
  40.3784895  33.3637190   3.8622198  39.6729779  33.5038877   3.2306850
  40.3512764  32.4249744   4.0472910   2.1000208   8.1272519  35.6801510
   2.4571197   7.7459264  34.8780894   1.7269558   8.9637840  35.4021788
  35.3301430  30.4860139  62.8176403  34.5236897  30.1975846  62.3902464
  35.8772826  30.8107519  62.1025085  83.7438297  35.9094286   1.2117730
  84.6164036  35.7245731   1.5591712  83.4159946  35.0580096   0.9222276
   8.7823278   4.8641276  18.6569262   8.0485857   4.9187905  18.0446637
   8.4682918   4.2913282  19.3565798   6.9105726   0.1892345  43.0642414
   6.2845093   0.5851897  43.6704540   7.6562297  -0.0521125  43.6137676
  57.2940397   5.5949074  29.5299125  56.5264034   5.0562459  29.7217798
  56.9984579   6.4936090  29.6755147  54.0464258  36.5091991  66.8317699
  54.8861885  36.7877364  67.1970749  53.5837889  36.1127067  67.5700092
  35.7652020  25.4333687  35.8873916  35.5269551  25.9974837  36.6230845
  36.5640759  25.8249235  35.5342388  65.0360584  47.6707411  59.0555620
  65.9012222  47.2620010  59.0813208  64.8399639  47.8741932  59.9701071
  23.0998993  15.4164898  66.7147303  23.6840105  15.0023949  66.0794544
  22.9866314  14.7583413  67.4004698  40.9995127  15.2817476  59.8417282
  40.2863407  15.8289289  60.1706839  41.2224817  14.7111917  60.5772448
  75.8153772  54.5419931  20.7654810  75.6375265  54.3645144  21.6891146
  74.9725866  54.4134426  20.3302741  53.1734037   8.3555931  54.3480873
  53.6288357   8.4969079  53.5181236  53.3861113   7.4535441  54.5874500
  30.4521799  62.4962139  56.4834929  30.4944897  62.9317808  55.6321859
  30.0646806  61.6412497  56.2960958   5.2476466  21.5896440  65.8481359
   4.8716033  21.9357944  65.0388098   4.5074710  21.5369272  66.4527750
  15.0517905  31.7825460  33.1887245  15.9846628  31.7581105  32.9756904
  14.7997475  30.8624268  33.2667422  84.2263699  56.9074726  64.0542889
  84.8128223  57.4190664  63.4969997  83.5155964  57.5106955  64.2714643
  59.2471075  61.4977980  11.3564467  59.5680857  60.7112169  11.7974639
  58.8728428  62.0301294  12.0584333  29.6391511   2.5774825  33.3054256
  30.3871942   2.0027350  33.1431675  28.9375472   2.2161430  32.7637458
  24.3726182   6.2525499  48.2924175  24.4534326   5.5880088  47.6082468
  25.2644372   6.3685328  48.6201954  11.4678895  58.2042885  25.8339787
  11.3362956  59.1418457  25.9750295  12.3835421  58.1286716  25.5654716
  72.1842241  77.2728205  52.4707699  72.8272533  76.6923857  52.8780031
  71.5462542  76.6811371  52.0718431  47.6301336  26.2311649  46.6506147
  46.9475222  25.7383180  46.1952305  47.3697567  26.2061930  47.5713825
  57.8965282  10.2504849  38.7691879  57.4135017  10.8033073  38.1549382
  58.3270454   9.5980668  38.2167053  11.1814415  57.8783607  52.2723389
  11.6694736  57.0966148  52.0136356  11.2346482  58.4566545  51.5114307
   2.3775524  39.6600032  63.0735922   2.6949266  38.8756657  62.6260233
   2.3389013  39.4098878  63.9967299  47.9497099   2.0454647  58.5895920
  48.4940815   1.3013269  58.3323956  47.3988485   1.7066649  59.2952824
   9.6458787  63.3302307   3.0109900   9.5351875  63.9698744   3.7144363
   9.4559813  62.4869013   3.4220383  37.1221209   7.7118796  36.0880113
  36.5333414   7.9375309  36.8081856  36.5454912   7.3667353  35.4063916
  51.3906097  15.4539645  38.8702512  51.7097616  14.9675596  39.6303725
  50.5748320  15.8561683  39.1685319  65.7278204  63.2938910  16.2866127
  65.4628706  64.1874123  16.5049160  65.3839350  62.7603054  17.0030355
  49.3078804  27.2182417  10.1592028  48.7165070  27.9682827  10.0963879
  48.7555695  26.5036583  10.4763067  81.5747833  69.9383497  14.9683607
  80.8117771  70.0409460  15.5371487  81.2341881  70.0733089  14.0840471
  77.0736647   4.0097857   7.1968871  77.6938438   4.5636296   6.7226881
  76.4277411   3.7550119   6.5380216  25.9885383  28.9519930   5.5141133
  26.5104866  29.7362804   5.6835037  25.0842786  29.2653894   5.4959470
  57.1794367  61.8255520  36.5288067  57.0206118  61.8673372  37.4718118
  56.3424730  62.0700121  36.1338902  39.2133045  50.0220490  22.2120976
  38.8578653  50.7456064  22.7282000  38.6428857  49.9721098  21.4450502
  38.2112980  51.8963909   1.8777800  38.4209156  52.8028584   1.6528021
  38.1096601  51.4573812   1.0332856   6.4714301  75.4381990  66.6264343
   7.4191672  75.4572105  66.4935303   6.3445801  74.8376846  67.3609591
  38.1287241  72.5766087  28.1584620  38.1381917  72.2632217  27.2540665
  38.8439417  73.2114410  28.1994653  79.1578197  19.5382535  43.7069750
  80.0991440  19.5064080  43.5363150  79.0164280  20.3945518  44.1106987
  53.2623196  59.1728592   9.5913225  53.5080051  58.3700657  10.0511003
  52.4310303  59.4317913   9.9889976  49.3865919   9.2702824  28.9283347
  49.7826004   8.9980155  28.1005192  49.9480724   9.9798793  29.2404962
  48.3657885  40.3415775   7.3849660  47.6220989  39.7726345   7.5836098
  48.2488823  40.5758953   6.4642817  21.5239811  22.1659827  60.3420734
  21.1420608  22.3382425  59.4814396  21.9386292  22.9923630  60.5898571
  57.4260092  68.3919668  41.9974136  57.3420525  69.2686319  41.6224003
  56.5808868  68.2286310  42.4161291  43.3149052  44.4007206   1.1228831
  44.2029333  44.6176720   0.8390392  43.3212328  44.5541906   2.0676786
  61.2271261  77.2192240  63.0832481  60.7556057  77.2949219  62.2536850
  60.5391216  77.1919823  63.7481833  41.2852621   5.5955267  39.6030998
  41.1738729   4.6564788  39.7514701  41.0239220   5.7266593  38.6916518
  74.9283743  22.9531264  51.0790253  75.7728577  22.7232409  50.6914234
  75.1474524  23.2911444  51.9473457  78.5118961  40.5804873  23.5261869
  79.0297508  40.6931353  24.3232870  78.9581537  41.1188698  22.8725600
  59.2453384   8.8691080  15.3779733  58.7277174   8.2268333  14.8924005
  58.6407375   9.5942986  15.5354083  28.2477164  14.5706284  60.3632545
  28.1965232  14.7358036  59.4218063  29.0073586  15.0752485  60.6540012
  34.3478537  47.6930094  24.8162484  33.9718032  46.8994379  24.4353795
  34.2453837  48.3574677  24.1349101  51.0265970   3.3223248  65.5444384
  50.3392410   3.3926323  64.8820019  50.6460857   2.7691072  66.2266350
   7.6207525  71.8923140  31.9093227   8.0272233  72.2298431  31.1111474
   8.3396417  71.8359375  32.5388098  34.8750615  73.5504961  29.2870045
  35.7351136  73.1811810  29.4873834  34.5802736  73.9331436  30.1133895
  43.2705212  72.2777176  15.3315032  44.1454697  71.9127750  15.1991606
  42.7706671  71.5639114  15.7275486  27.6537919  14.9683654  57.8043079
  28.4444356  14.8786616  57.2722721  27.2746682  15.8037007  57.5309753
  68.4201574  18.5685945  54.9011087  69.1245890  17.9207671  54.9191523
  67.9449129  18.4285307  55.7201052  64.3344879  18.2669961  64.0616941
  64.5636082  17.7009511  64.7988033  64.0551186  19.0875912  64.4676638
  26.9345880   3.4860039  53.4126854  27.8886366   3.5201621  53.4823418
  26.7142606   4.1846067  52.7965355  61.2389326  72.6229954   0.3062263
  60.7452917  72.4771690  -0.5007973  61.7206049  71.8072176   0.4430859
   5.9028161   6.4350533  35.1163626   5.6511509   6.5683341  36.0302186
   6.8043804   6.1164796  35.1602316  81.3701916  75.2604771  47.6483774
  81.0456181  75.4069042  46.7598724  80.5796051  75.1630259  48.1791496
  84.5486237   6.5333134  25.5379605  84.3790603   5.6095684  25.7228255
  84.0592122   6.7105764  24.7346640  46.2708330  48.3559275  15.9882820
  46.0165358  47.4765110  16.2679064  45.8758688  48.4554100  15.1220620
  12.7774942  77.4113894  42.4212646  12.7907109  76.4622879  42.5447941
  12.4855125  77.5312662  41.5176010  37.3403049  17.4405992  32.9186893
  38.2198095  17.3957527  33.2937765  36.8125415  16.8693209  33.4766698
  69.7414398  32.0070028  24.8145318  68.9769459  32.2037506  24.2731714
  70.1146364  31.2168622  24.4238424  54.6341562  46.9874001  31.4580321
  54.9733829  47.1361828  30.5754113  54.5252323  46.0381794  31.5159059
   3.2863584  15.7188129  15.5966115   3.5804045  15.2247322  16.3618910
   4.0232342  15.6772804  14.9870872  65.8530331  57.1423388  12.9989374
  64.9066877  57.0172834  12.9281020  65.9508896  57.9446602  13.5117126
  65.2685022  63.4979153   6.0321927  65.2754307  64.0874243   6.7862886
  65.1710558  62.6246119   6.4117682  59.3423843  31.3943744  58.2180023
  60.1725483  30.9245062  58.2972431  59.4487476  32.1644163  58.7765312
  20.7150483  10.4813600  68.3435106  20.8591843   9.6631217  67.8681755
  21.2928271  11.1125326  67.9145241   4.3596396  26.9563818  39.9508715
   5.1614696  26.8637228  40.4653740   3.9541128  26.0898590  39.9812150
  70.1046991  68.1366396  20.9351420  70.7359171  67.8819799  20.2621293
  69.3003988  67.6762247  20.6956577  33.2866764   1.8804446  62.6688862
  34.0391207   2.2834726  62.2357273  32.8931999   2.5908220  63.1756115
  31.6579151  20.4412222  39.1778564  32.1006656  21.1129904  38.6592698
  30.7344985  20.5250430  38.9401484  55.6279135  23.9107990  38.9756203
  55.6815434  23.0247664  38.6174273  56.5256977  24.1195273  39.2337847
  34.6207047  55.1309776  22.8798008  34.5503688  54.4357538  23.5339761
  33.8783884  55.7072020  23.0619144  32.4476504   4.7746876  52.8948736
  33.3031654   4.3911287  52.7019691  31.8287349   4.0555331  52.7684259
  63.3299589  79.3645954  35.4044819  63.8013506  78.5402918  35.5250955
  62.4248505  79.1008759  35.2387643   2.3713772  72.8006506  66.5768623
   2.0152788  73.5765314  67.0097971   2.7186760  72.2661161  67.2909260
  54.1896629  20.5140209  48.5784674  53.7265921  19.8402727  48.0806112
  53.7472486  21.3303232  48.3457613   9.3323332  59.1022444  13.4888923
   9.4767284  60.0426722  13.3841455   9.9449217  58.8409805  14.1764307
  18.7554646  54.0469742  32.6709199  18.8770449  54.9343729  32.3333192
  19.4614720  53.5395670  32.2705197  51.7795229  27.5471854  25.2669835
  52.2311115  28.2175589  25.7797241  51.9936895  27.7563238  24.3577957
  46.8791580  10.4348862  60.7942438  46.0801554  10.3643560  60.2718925
  46.8490076   9.6794200  61.3812637  39.6731853  26.5271378  48.7711287
  38.7841511  26.8741369  48.8448954  39.5598078  25.6574988  48.3875847
  33.0837512  27.0216894  67.7967548  33.6251879  27.2753477  67.0492697
  33.5470629  27.3715591  68.5577869  12.8208292   4.7999838  68.4829712
  13.6702144   4.8606440  68.9201164  12.9712307   4.2043167  67.7489471
   4.3037784  78.5993385  31.2984276   4.0320089  79.4470739  30.9466934
   3.5852700  78.0068159  31.0773110  42.0970964  31.6446257  59.7195864
  42.6370668  31.1010408  59.1458416  42.5033092  32.5105023  59.6811104
  38.1868601  60.0745916   0.2696402  39.0016460  59.6508503  -0.0001733
  38.3245444  61.0022879   0.0781885  11.5249002   1.1839100   3.8167328
  11.6334486   0.7605243   4.6683156  11.1542380   0.5024576   3.2559615
  47.0220089  56.0385513   5.3829068  47.9326200  56.1814833   5.1248640
  46.9071007  55.0892401   5.3400397  83.3126831  33.1253481  10.3354561
  82.6205635  32.4826741  10.4909456  84.0253830  32.6199508   9.9444801
  48.0605602  24.1492677  25.0403666  48.5950375  23.3998799  25.3030181
  47.1600771  23.8722515  25.2095342  10.9185755  45.0507021   9.7992885
  11.2162435  45.4888487  10.5965674  10.0047255  44.8271751   9.9757648
  44.8027611  76.3934469   1.1162388  45.6771421  76.3937283   0.7267687
  44.5645857  77.3189354   1.1708429  52.3567581   2.4276115  55.4661512
  51.8489599   2.3271264  56.2713099  52.9361296   3.1695974  55.6394100
  44.5759916  60.7089949  40.7863188  44.2736816  61.3787317  40.1728916
  45.0609970  61.1958790  41.4526129  33.1820512  61.6954231   1.2669404
  34.0053391  61.3825417   1.6418163  32.5939798  61.7799759   2.0174439
   3.8382035  59.0129709  30.8013034   3.4629264  59.7632742  30.3403854
   4.5972520  58.7633133  30.2742839  58.5533667  67.3984480  31.0504746
  58.8526678  66.8213844  31.7530751  58.9189243  68.2549381  31.2719011
  63.2271338  57.9384995   2.9670545  63.3800173  58.7965441   3.3628047
  62.9435539  58.1337738   2.0739236  47.7414608  41.8335104   4.8842579
  47.4731064  41.0248375   4.4480586  47.4230289  42.5314617   4.3118098
  28.5060024  11.3585317  58.2099247  28.1731987  11.0289550  59.0446997
  27.7521133  11.7859435  57.8034735  67.2120142  52.7139759   8.6024678
  66.8252659  51.8568468   8.7813145  66.4630604  53.2810926   8.4189516
  37.9899740  18.3138740  61.6178274  38.8915586  18.6324286  61.5742493
  37.9093146  17.7203310  60.8712149   2.5512499  27.2517109  54.0875864
   2.3868805  26.3251758  54.2629290   1.7100769  27.6789594  54.2491961
  16.5580904  66.3846159  50.7538033  17.0506442  65.6590509  50.3701639
  16.7808247  67.1396923  50.2093077  50.7787085  70.6952190  59.1368532
  51.2120008  70.2664614  59.8748684  51.2551355  70.3855181  58.3665752
  47.3235416  38.1163049  61.6758442  47.7000952  38.5098696  60.8887291
  46.4379597  37.8620696  61.4163303  47.1189213   3.6524338  43.4688711
  46.6256046   2.8782740  43.7400627  47.0923424   4.2321685  44.2300749
  12.8349578   6.9767106  57.9915190  11.9795096   6.5479970  58.0168962
  12.6808619   7.7905583  57.5117922  10.9824717  58.2598066  29.9848700
  11.0098779  57.7333069  29.1859460  10.0931573  58.6130667  30.0085235
  20.5656958  29.9985528  61.6861868  20.0261831  30.5447793  62.2578430
  21.3432050  30.5290174  61.5120649  61.2936115  74.5233345  14.8807847
  61.9061327  74.9759150  15.4606318  61.2150764  75.0983286  14.1195714
  74.7227812  44.1983604  14.6525025  75.4995203  44.6066856  15.0348449
  73.9930773  44.5429039  15.1673365  22.8737354  69.6003151  63.3766699
  23.6918926  69.1344452  63.5493422  22.8641200  70.3125381  64.0161085
  22.0438266  64.1590405   2.0192587  21.8219495  63.3337021   2.4503270
  21.3485050  64.7616053   2.2832140   1.3024090  77.0088816  49.9747086
   0.4775558  76.5751553  49.7562408   1.5519336  76.6368484  50.8206129
  28.9319706  24.9059510  38.7501907  29.1989923  25.7355309  38.3543015
  28.0437803  24.7600603  38.4245110  23.0202842  25.5858374  64.5134115
  22.6976800  26.3320541  64.0081215  23.8208151  25.9061551  64.9290800
  43.9166260  78.3242130  21.1028242  43.1873322  78.5289526  20.5176330
  44.3219995  79.1717768  21.2859416  32.4265933  42.8980732  29.1256952
  32.5390863  43.0080700  30.0698781  33.0944347  43.4633160  28.7374640
  26.6686511  30.3711820  54.1801167  26.9352841  31.2648058  54.3959284
  26.9260073  30.2588344  53.2650375  73.5182619  77.6052141  63.4979582
  74.3262625  77.2918320  63.0915546  73.4674025  78.5281467  63.2492781
  21.7843437  74.6486568  37.8100109  21.3954616  74.5310545  38.6767125
  21.0373020  74.6584606  37.2116280  10.7751930  77.6273870   5.9426743
  11.6958249  77.4342918   5.7655239  10.2946341  77.1318865   5.2795196
   7.8344548  54.0352583  49.8473358   7.4475455  54.7096491  50.4056644
   8.7395126  54.3197775  49.7202396  32.8116965  29.8014903  49.0809822
  32.2346902  29.8388958  48.3181620  33.6403394  30.1683068  48.7727165
  27.2878027   2.8113633  67.5024033  27.8022432   2.0063442  67.4430180
  27.6225686   3.2524899  68.2831526  58.0032253  15.3137290  63.4509802
  57.5890827  16.0612714  63.0198240  58.0594397  15.5692470  64.3717337
   7.2995698  57.7185106  31.6112447   6.7318261  56.9553185  31.7182112
   7.9988587  57.5884771  32.2518063  48.4024477  11.8401909  40.8159924
  48.4846306  12.7761638  40.9988356  49.2887402  11.4958787  40.9263086
  68.3579636  66.8216801  12.0635760  68.4010267  67.4837446  12.7535391
  68.9709663  66.1424398  12.3448133  52.5176907  52.6795101  33.7419057
  52.9861307  53.1413269  34.4372606  53.1667137  52.5715399  33.0466795
  21.2455368  27.9787230  46.3286114  20.3107667  28.1724954  46.3985252
  21.4619851  28.1690645  45.4158401  61.8104267  46.2176180   4.3639517
  61.1008167  46.7687082   4.0338251  62.2349024  45.8765888   3.5767087
  11.3242054   9.8643965  45.6549025  11.0053861   9.3023509  44.9487257
  12.2061193  10.1162267  45.3809643  46.2986422  24.8569846  58.6302662
  46.7489052  25.5258346  58.1143856  45.7825422  24.3675709  57.9896832
  76.8122530   7.7425873  65.0299358  76.6687107   8.4862304  64.4445944
  77.6846123   7.4222046  64.8006439  48.4774971  59.7829580  34.1069722
  47.7088833  59.2221069  34.0025139  48.1279182  60.6082010  34.4431233
  61.2034655  67.0522499  65.9662628  62.0574141  66.6995955  65.7159948
  60.7745409  67.2538900  65.1346397  38.8578343  31.6011739   8.4797573
  37.9454732  31.7386079   8.2249218  38.9066625  31.9249606   9.3792075
   4.5325583  68.3549690  11.4311969   4.3877152  69.2065382  11.0187840
   3.8866687  67.7782822  11.0231674  34.2883611  21.7888234  68.4831748
  33.5760856  22.2481559  68.9280475  34.8902822  22.4830125  68.2148068
  71.6752195  53.8891172  20.0001192  72.4959373  53.4323406  19.8157036
  71.9379568  54.7930384  20.1736903  29.1689587  47.3729944   3.3910215
  29.8419189  46.7526197   3.1108570  29.1433239  48.0292273   2.6946479
  35.3603005  72.4220133  59.3294430  36.2261033  72.4212265  58.9212608
  35.2388930  71.5231657  59.6353292  38.8863134   3.9428031  54.3282509
  38.2184577   4.4884819  53.9129972  38.8474464   3.1130898  53.8525438
  71.8770409  43.4725952  30.4302859  72.0104456  42.5642443  30.7010841
  72.4372005  43.5780048  29.6612978  64.1017532  76.3592625  19.3837357
  64.5500803  76.8278551  20.0877643  63.2287836  76.7507267  19.3534470
  82.9402256  72.0653009  12.2681940  83.0802631  71.9124413  13.2026756
  82.3571491  72.8236532  12.2342837  62.2166681  60.5111694  13.3143938
  61.4255190  59.9948025  13.1605208  62.4885178  60.2744150  14.2011154
  48.8772106  28.0771852  13.4022307  48.4412479  28.3395457  14.2129958
  49.6479321  28.6425066  13.3509529  14.2962456  35.0661087  50.9454298
  14.0001261  35.0159097  51.8542910  15.2474999  34.9734592  50.9979963
  21.4582777  67.3305130  19.4659758  21.4831448  67.7016497  18.5840046
  22.3621678  67.3881245  19.7756457  58.5175848  23.3112216  41.9230747
  58.5146904  22.4397731  41.5270948  59.2663956  23.7535143  41.5232086
  59.5993280  29.1330671  63.5222244  58.9996386  29.7741151  63.1405640
  59.3753242  28.3087397  63.0903292  22.8108621  32.5884867  51.1616850
  22.2744370  32.1872139  51.8453932  22.6716161  33.5293674  51.2693214
  35.3900194   7.7722901  62.1786070  35.0929952   8.6801177  62.1164942
  34.6799254   7.2608840  61.7907095  50.0083637  14.0789771   5.5799741
  50.1752567  14.3483031   4.6767348  49.2988920  13.4400034   5.5121750
  60.1079607  34.8941493  26.0629082  59.3902016  34.6167159  25.4936218
  59.7186136  34.9354863  26.9363689  81.6037560  63.0168200   3.1536469
  82.5566006  63.0259895   3.2444093  81.4382553  63.4581566   2.3205425
   4.3000671  46.1974430  57.4799824   4.7049838  45.3585434  57.7002621
   4.5380077  46.3452387  56.5646839   8.4887642  58.0019760  51.2814045
   8.9281124  57.9023647  50.4368448   9.1830456  57.8782415  51.9286251
  39.3603158  79.5037762  65.7790661  39.6067548  78.7870764  65.1943970
  40.0829864  80.1277417  65.7109261  39.2266560  12.2130811  24.4913435
  39.7695494  12.9550111  24.2248130  38.7766361  12.5165963  25.2797556
  53.9543867  67.9543161  13.9249158  54.1964483  67.7156878  14.8197317
  53.0096292  68.1031084  13.9639568  77.5839043  60.7019997  67.5973511
  78.5387039  60.7668972  67.5778103  77.3264217  61.1925554  68.3779240
  71.6194534  43.5096359   6.5520608  71.4713287  42.6498747   6.9458926
  72.3883009  43.8525105   7.0076245  26.6972613  33.0903149  54.8144865
  26.9296145  33.5282803  53.9956903  25.8046699  33.3833408  54.9979258
  -0.0217980   1.0492815  68.4630251   0.8798842   0.8632360  68.2011318
  -0.2656106   0.3120368  69.0227175  16.5064883  69.9357462  64.8572922
  16.4418900  70.5741453  65.5675793  17.1770573  70.2925348  64.2748260
  72.6083565  23.8704610  52.2232342  73.3296108  23.4368157  51.7671967
  72.4009371  23.2867599  52.9529572  66.1120558  29.5488691  18.6801875
  66.4263153  30.0100660  17.9025173  65.4444838  30.1276231  19.0484536
  19.2853165  18.4716618  65.3382111  19.2385817  19.2452860  65.8999491
  20.1499963  18.1003499  65.5133915   6.6329724  17.8530622  56.4496613
   7.1878958  18.5134804  56.8645573   7.1288431  17.5724709  55.6804943
  13.5658932  21.3692451  22.6554942  13.5224628  22.3084474  22.4759221
  12.6690078  21.0595489  22.5293326  52.6967716   8.4070021  57.3578787
  52.6995087   8.5402024  56.4099979  53.4827614   8.8584971  57.6654577
   1.2130793  40.0858259  17.7669036   0.3929634  40.5172443  17.5270724
   1.0856271  39.1714978  17.5139296  78.6942530  77.4711561  13.5325360
  78.6783648  76.9406033  14.3290889  77.7900600  77.4590969  13.2186532
  49.7781897  17.9084909  52.1122837  50.1097631  17.0131814  52.1809340
  48.9390278  17.8191411  51.6605568  23.4894180  19.0221345   7.4955279
  24.0058780  19.5050764   8.1407171  24.1264725  18.4671283   7.0456809
  62.9849768  47.8230667  19.2413664  62.6297092  48.3158588  18.5016572
  62.4629211  48.1075287  19.9915457  40.6562948  46.1979675  14.8449540
  40.5240202  46.9672728  15.3989446  40.9566355  45.5176306  15.4475868
  36.3637543  22.7520013  51.5007257  35.8772802  22.2778964  52.1751118
  35.6909752  23.2125592  50.9992361  30.5478477  18.3606422  46.2471104
  30.9387898  17.6816571  45.6972218  29.6950817  18.0048895  46.4970350
  34.2540264   2.7680457  44.2270899  34.7761607   2.8601018  45.0240421
  34.7243834   2.1169284  43.7064695  67.2818518  71.6443586  24.6559334
  66.8481350  70.7972002  24.5537686  67.5632668  71.6605902  25.5706859
  49.0720034  46.7358017  63.5861349  48.1928110  47.0337248  63.8195801
  49.1889143  47.0212936  62.6800156  74.1039133   8.7411207  31.9380927
  73.2851648   9.0898418  32.2906303  73.8309193   8.0354732  31.3517761
   9.9955761  57.2559404   8.8405204   9.1562957  56.8837929   9.1113484
  10.5947578  56.5096283   8.8253266  76.7437553   8.3037674  10.2640867
  76.7086554   7.4093652   9.9249053  76.4132881   8.8449776   9.5470685
  29.9684310  30.4312086  54.8960924  29.7095013  31.2102509  54.4038725
  29.2771578  30.3195000  55.5487013  53.2451582  54.3096161  50.9928226
  53.5886192  54.4062757  50.1046085  53.9997578  54.4681597  51.5599871
  36.3516378  22.0315742  54.9209929  37.0176172  22.7141547  54.8386097
  36.4700460  21.6870070  55.8061409  33.8083506  78.8852215   5.8754498
  34.2934918  78.1381226   6.2257564  32.9136491  78.7592888   6.1914939
  53.1807661  27.5001955  55.0579739  54.0667820  27.8600717  55.0168514
  53.1895065  26.7707968  54.4381905  35.9593225  69.9941683  22.0337558
  35.7794785  69.1146660  21.7015505  36.0185266  69.8842716  22.9827809
  75.8723974  51.3599491   9.1346306  74.9165201  51.4024210   9.1076982
  76.1584520  51.9672298   8.4522724  45.6496334  36.5200424  57.7475500
  45.1380110  37.3191094  57.8738976  46.4633417  36.8183780  57.3412085
  45.6571054  49.6596336  13.6258698  44.9890995  49.2208576  13.0991161
  46.4713001  49.2071295  13.4055030  14.0773928  78.0991983  55.9246635
  13.7495995  77.7336931  55.1029634  13.3065474  78.4875679  56.3384247
   3.1158975  42.8637218  43.2860756   3.4679672  43.5372639  43.8679886
   2.2008111  43.1131268  43.1570625  57.9524994  26.0267758  45.4406548
  57.9117298  25.1467204  45.0663900  58.5701942  26.4968610  44.8805666
  12.4537027  34.6508884   1.3299541  12.7507329  34.9663424   2.1834734
  11.4985514  34.6888709   1.3797078   7.9325324  27.9961181  12.8147364
   8.2939214  28.4539676  13.5736859   7.8353947  27.0894551  13.1058729
  44.2412233   0.7763565  53.2719135  43.3027935   0.6165010  53.1717920
  44.3711758   1.6612563  52.9308891  40.5348444  37.2582984  67.9231930
  39.5968342  37.2512054  68.1137705  40.7154131  36.3845730  67.5764513
  12.6471436  63.8631105   3.9356938  13.1253457  64.6546984   3.6888224
  11.8657589  64.1855860   4.3847832  71.5147495  52.2532129  16.7215216
  71.3709307  52.5658226  15.8283126  70.9110737  52.7691412  17.2559607
  45.2244473  35.3463364  61.2597847  44.3962383  35.8259416  61.2430286
  45.2920866  34.9546933  60.3889990  24.7367954  30.8319926  67.8215933
  25.5302048  31.2739086  68.1239939  24.0728164  31.0600686  68.4722471
  82.3721981  74.3463707  14.9020398  82.4093246  75.1739836  14.4225478
  83.2742405  74.0261507  14.8973036  74.6120739  40.6211567   2.6896322
  75.2408504  40.9226942   3.3453342  74.1241646  41.4078331   2.4460931
  64.5121527  23.9092827  60.5339909  65.0423336  23.1538725  60.2800226
  63.6339331  23.7042689  60.2131605  15.8078313  24.2554355  58.8283825
  15.2769578  23.6905360  59.3898916  16.5924549  24.4378448  59.3454123
   9.8270875  73.4753275  63.5508156  10.6655598  73.9329004  63.6126280
   9.7882718  72.9384947  64.3423557  55.2995443  45.9033871  12.7591145
  55.1679754  45.2639580  13.4591508  55.6908560  45.3998899  12.0452547
  13.5705817   9.5549613  11.3238239  14.5084274   9.5539713  11.1323106
  13.1907845   8.9747244  10.6640434  18.3059192  54.7552347   6.5281016
  18.9622450  54.8301792   5.8353883  18.3461976  55.5937767   6.9879466
  61.8976164  52.9501486  11.7944598  60.9710169  52.8797054  12.0239937
  62.2824860  52.1275568  12.0968747  76.9066477  28.7140751  34.8454309
  77.5560284  29.4019008  34.9918437  76.1407375  28.9975977  35.3446579
  17.2905266   2.0311593   3.8612700  17.8223050   1.2507266   3.7051642
  17.9223275   2.7496481   3.8901389  49.0807581  40.9207869  51.3477230
  48.4724569  41.1073828  52.0628309  49.1976023  41.7623806  50.9069204
  71.3150167  54.5867109  40.7575226  72.2277689  54.3823814  40.9609175
  70.9726191  53.7852383  40.3617477  52.7630186  11.9189870   1.6412866
  52.6903057  12.8566289   1.4630373  52.0639086  11.7397976   2.2700667
  48.9018774  46.6778088  68.4053802  48.9070082  47.0846033  67.5389385
  48.2813311  45.9533215  68.3261538  81.1372185  46.5700150  63.3314419
  80.4249763  46.9450998  63.8493729  80.7904530  46.5311003  62.4401140
  47.7157354  26.1494112  66.5301037  47.1079731  26.3436294  67.2436428
  47.2790480  26.4825606  65.7461739  46.7015743  44.1971016  48.7923002
  46.0117483  43.9484406  48.1770420  47.4825048  43.7458754  48.4717083
  17.3744309  42.4737692  46.5028286  17.6142979  43.3270407  46.1414051
  17.5553119  41.8546629  45.7955694  39.8718691   0.8931437  55.1091957
  38.9683867   1.1835331  55.2341938  40.2145195   0.7876945  55.9967232
  15.9517980  75.2729654  33.2564664  16.6382325  75.7549047  33.7177372
  15.3839159  74.9406958  33.9516902  78.8740635  69.3145084   6.3532895
  79.2561340  69.8114634   7.0766765  79.6107769  69.1388083   5.7679588
  62.4495602  66.8563843  32.1566629  62.6554108  66.5772247  33.0488086
  62.1428299  67.7580214  32.2525883   2.1017435  67.3700142   7.0125037
   1.6452831  67.9217577   6.3773233   2.3361471  66.5827227   6.5211183
  38.2488275  10.0961876  35.4358125  37.9751325   9.1881627  35.5654788
  37.4374270  10.5655730  35.2420592   8.1150818  59.2792702  26.1035252
   7.9880327  59.4562578  25.1714468   7.6733804  60.0033522  26.5471888
  15.1232481  39.2595768  54.4132090  14.6061051  39.9833679  54.0597630
  14.5097494  38.5261750  54.4576216  76.2916327  55.7270670  68.9248180
  76.7235708  55.6423330  68.0748320  75.6447363  55.0216389  68.9361334
  28.8644981  19.1827893  12.3292732  28.4458351  19.3040109  13.1814814
  28.2201934  18.6989498  11.8125498  46.5437174  52.7044249  42.9811859
  45.9399986  51.9621515  43.0091906  46.0821772  53.3693981  42.4702835
  43.9378119  65.0500011  13.9843786  43.7562418  64.6042299  13.1570017
  44.7300148  64.6269512  14.3155503  58.4490728  72.2134638  18.0454922
  58.4316397  73.1662989  18.1350911  58.7447739  71.8979645  18.8994563
  28.5641146  28.0078244  66.9358873  27.9946947  28.4905219  66.3367224
  29.1912603  28.6601257  67.2480154  12.2807431  60.8432436  13.0420005
  11.7800450  60.0695562  12.7832663  11.9319260  61.0777092  13.9019907
  17.3847055  13.0603611  64.9940538  16.5430605  13.5003912  65.1133776
  17.3864543  12.7918375  64.0752888  49.9372244   6.3283563  22.6880336
  49.0872240   5.9247565  22.8636503  49.7244978   7.1609521  22.2664142
  52.6304483  16.8513918  66.8123007  53.4528780  16.5092957  66.4618587
  51.9660568  16.5674829  66.1844397  66.9843817  41.0297537  49.6406221
  66.1652422  40.7383633  49.2402077  67.3925781  41.5835524  48.9751053
  12.6927996  71.4658308  60.2465773  12.6963484  70.7061768  60.8289337
  13.4828174  71.9521189  60.4824257  52.1469116   5.6923431  58.8964653
  52.5331211   6.3531756  58.3216810  52.8876305   5.1524693  59.1723347
   1.8978429  69.3820095   4.9301270   2.7455252  69.4036150   4.4860554
   1.8052778  70.2547693   5.3121620  11.5524745  78.1131697  62.6489925
  12.1457553  77.3629236  62.6861238  11.3210654  78.1899452  61.7233610
  23.1618905  22.8529334  34.9411678  23.7705207  22.4153757  35.5364370
  22.5436997  22.1685004  34.6849990  21.2599850  74.6792889  40.7516336
  20.8963132  75.5001593  41.0835171  21.9010115  74.4168854  41.4122915
  58.4578705  23.2394934  51.2929821  59.0398741  23.0889630  50.5481052
  58.8325691  22.7138519  51.9997597   3.4712514  77.9734373   8.7069345
   3.8363123  78.5472918   9.3804723   4.0301305  77.1965551   8.7255365
  55.3518677  27.8680849  19.4069886  56.0924101  28.1892729  19.9214494
  55.7105112  27.1398544  18.8997531  19.6558082  58.1359243  66.8919659
  20.3300834  58.7123871  66.5324211  19.6942413  58.2827330  67.8370619
   5.5670077  27.5560260  59.1058922   6.0237986  28.1961513  59.6516180
   5.7894921  27.8041053  58.2085705  64.4434500  56.7970085  53.9411306
  63.5278416  57.0009661  53.7506056  64.4250727  55.8986664  54.2710876
  82.6353645  51.0444832  14.0722895  82.2213554  51.6178179  13.4272194
  81.9184875  50.7707024  14.6444488  26.1990213   7.9755419  43.0109692
  25.8226013   8.1734377  42.1534300  27.0585918   8.3965009  42.9981518
  46.8687677  12.5837469  47.1735430  46.5224504  12.8944504  46.3370275
  47.7970982  12.8158104  47.1494770  80.4263687  60.6309366  68.2273769
  80.9530449  60.0281429  67.7025080  81.0669708  61.1282969  68.7357903
  17.3004699   9.8324043   1.2958634  16.7495298   9.3968213   0.6455056
  18.0805779  10.0985956   0.8092383  82.7322674   5.9139848  51.0211706
  83.6338329   5.7133305  50.7698584  82.2781849   6.0564947  50.1906729
  46.4864063  17.2483206  53.5554838  46.9980812  17.5552309  52.8070021
  46.3979626  18.0183935  54.1170883  60.5302525  61.1975431  66.5560961
  61.2799978  61.3824844  65.9904909  59.9369431  61.9355536  66.4162827
  55.6483316  12.0720398  47.8798103  54.9079657  12.4337482  48.3668995
  55.7257986  12.6345205  47.1091938  63.4519196  77.0646954  24.1974568
  64.0976143  76.4158630  23.9175892  63.5337734  77.7743244  23.5603070
  57.0980167  30.1910520  59.0472317  56.6728306  30.9385729  59.4675446
  57.8803873  30.5598927  58.6372471  39.9610186  27.8308630  17.1452224
  40.8887577  27.9783344  17.3290277  39.9418855  27.0101762  16.6529441
  34.1238356  58.2603168   4.7976217  35.0780678  58.2848787   4.8688325
  33.8167191  58.8422680   5.4927784  60.6758499  77.9470825  17.5425434
  61.1137915  77.6117945  18.3248639  61.3881111  78.1350040  16.9313121
  33.5997748   0.8292270  24.8687053  32.8262115   1.3050440  25.1710773
  33.8337016   0.2612153  25.6027865   4.6426255  69.4175339   4.0866384
   5.0071311  70.1501226   4.5833093   5.1563078  68.6596632   4.3659112
   2.9895705  55.5770779   1.7578436   3.3653522  56.4371538   1.9456986
   2.2146048  55.5268908   2.3174337  64.4468594  63.1556177  26.6590643
  64.4214582  62.4312687  27.2842908  63.5602760  63.1934738  26.3002157
  81.4617443  55.6240845  49.4268894  80.8695030  55.8475637  50.1449013
  80.9811211  55.8670139  48.6355495  40.9606123   9.9463600  67.6044893
  41.6333532  10.1160407  68.2639313  40.2506399  10.5489111  67.8260803
  49.2106295  25.1854682  52.3442221  48.6616755  25.6262517  51.6956902
  49.3368864  24.3044138  51.9920397  10.5806124  51.9001722  14.0919650
  11.0069907  51.0500431  13.9837301  11.1581242  52.3843622  14.6821105
  35.3078365  29.0159082  55.0372887  35.6209779  28.1132722  55.0957632
  34.3570900  28.9351344  54.9611807   0.1049305  61.9843340  16.2953329
   0.4077414  61.0813236  16.1998892   0.7010364  62.4959278  15.7483733
  73.4135818  41.7313480  59.7625589  72.6589489  42.0883751  60.2308512
  74.1673946  41.9821930  60.2964830  74.9188709   4.8632631  63.9817858
  74.6926117   4.0116936  63.6077976  75.5716467   5.2228469  63.3811092
  74.4723558  43.9589214  53.5164547  74.2479706  43.4010983  52.7716637
  74.7196293  43.3459902  54.2088461  66.4241362  74.1615009   6.4446962
  66.9891977  73.8294411   5.7470757  65.8012438  73.4528494   6.6061044
  66.0853481  67.5106096   5.3517169  66.0766459  67.1409512   6.2346154
  66.3635540  68.4181786   5.4747784  81.0808277  79.5345068   8.7821132
  81.5925884  79.8742151   8.0479938  80.5877590  78.8023520   8.4118855
  11.3145339  50.2048731   8.2704353  10.4635811  50.2522802   7.8347009
  11.8442762  50.8724976   7.8346765  22.0959616  65.6609106  30.9374380
  21.2620568  65.9200287  30.5453992  22.5945592  66.4755917  31.0001254
  46.1643791  71.3096094   4.8380733  46.5398741  70.5158997   5.2192008
  45.2181816  71.1897850   4.9192169  56.6932154  48.7891388  66.2310028
  57.4714041  48.4655142  66.6847849  55.9596491  48.4739542  66.7589951
   8.4799367  33.8058805  49.0061855   8.7632334  33.0031800  48.5684061
   9.1722828  34.4391370  48.8167858  11.8955135  52.4267626  16.3587904
  11.7508364  51.9309521  17.1646917  12.8392971  52.5855160  16.3414121
  77.3528910  25.4527187  35.6035423  77.1588564  26.0697579  34.8979640
  78.2391357  25.1441431  35.4148984  50.5649567  34.8667693  56.3194752
  50.4912710  34.0685678  55.7963324  51.1527157  35.4298520  55.8157778
  60.7034159  57.4193144  23.8850570  61.0086346  58.1815243  23.3930159
  61.2455225  56.6968679  23.5681510  70.4193211  75.5336952  12.0119953
  70.1079416  76.3539028  12.3948014  69.9826717  75.4853249  11.1615658
  76.2525129  47.9581499   1.0018088  75.9354353  48.6842299   1.5389301
  76.8815327  48.3602476   0.4027408  81.6161919  36.0203838  30.6186247
  82.0906734  35.2127075  30.8154941  82.2822094  36.7064190  30.6634378
  29.4091368  58.0582666  10.6748331  29.2038131  58.9610195  10.9179592
  28.6920643  57.5420570  11.0430217  78.6259413  47.5376940   2.5818944
  78.6523724  48.1418514   3.3238691  77.7048635  47.5174284   2.3222181
  54.9221420   9.7786117   1.7570092  55.2856159   9.8964435   2.6346391
  54.2730570  10.4768229   1.6708608  59.5034885  22.8742337  63.7042713
  59.2716789  23.2780147  62.8679371  58.6783981  22.5202990  64.0362072
  20.4290032  70.3518486   6.4084530  20.8449006  70.7923985   7.1495187
  20.1264811  71.0643101   5.8453238  74.8857832   6.9589227  58.7550354
  74.7741222   7.2273737  59.6670103  75.7004213   6.4563411  58.7513304
  55.9488964  43.9714622  66.7458534  56.8174314  44.0174246  66.3461542
  55.8893299  43.0792618  67.0874071  20.8658576  10.0165987  14.4950151
  20.9190631  10.6868351  13.8137043  21.6985941  10.0834000  14.9622619
  45.3994036  56.6916275  22.9598737  44.4509697  56.6189051  23.0667162
  45.7417202  55.8595085  23.2864237   6.8541902   0.0860902  17.0118642
   6.6745424   0.7663494  17.6608682   7.6412129   0.3889727  16.5589964
  66.5132380   8.8777769  48.0088329  66.4863873   8.1912535  47.3423529
  65.8152723   8.6447114  48.6210108  22.1514106  34.6082449  56.6325617
  22.6513052  34.8953557  57.3966980  21.5431762  33.9539266  56.9762897
  71.2366295  65.3059816   5.7790238  71.5043592  66.0856390   6.2655312
  70.3846407  65.0739479   6.1484915  24.5064187  28.8638091  11.9452035
  25.1432061  28.3721948  12.4638999  23.9503336  29.2947102  12.5943005
  10.3142941  56.7606115  27.6143765   9.4496781  56.9690037  27.2604799
  10.9262407  57.0504808  26.9378185  80.4275417  20.2722383  11.4060104
  79.5076084  20.5048060  11.5319741  80.8000278  21.0161948  10.9327090
  18.2162750   8.2926649  24.2669845  18.3019960   9.0361947  24.8636818
  19.1033745   8.1452358  23.9390349  35.9531975  17.4337983  19.2288089
  35.8874440  17.5998950  18.2884264  35.3347993  16.7211688  19.3899751
  61.7386293  16.3661766  48.1866693  62.2661114  16.9322121  48.7502241
  61.4441156  15.6613350  48.7634611  41.9985580  23.0887580  60.0161219
  42.2958040  22.1864867  60.1335239  41.8770504  23.1798506  59.0710449
  16.6938555  44.0966129   9.7715968  17.0226014  43.7213659   8.9546847
  15.7519257  43.9275932   9.7508240  78.6781454  62.0469618   1.3546202
  78.5284615  62.4155283   2.2252426  78.3142900  62.6969957   0.7535459
  28.6017418  76.4613628  14.7791529  28.7736249  75.6600380  14.2846155
  28.1569123  76.1625624  15.5722964  23.5187316  67.5498390  45.3224468
  22.9828024  67.0104504  45.9038830  22.8908706  67.9508591  44.7214413
  78.4298277  79.0603304  67.1225977  77.7841234  79.4767714  66.5517426
  79.0270567  79.7680235  67.3649311  56.6229343  64.3647909  22.3787761
  55.6827402  64.4218588  22.5490999  56.8472052  63.4552622  22.5754762
  30.1358819  77.0862198  17.9223943  29.2306209  76.8496704  17.7204525
  30.6588793  76.5943909  17.2892976   3.4158602   2.6782843  12.6370251
   3.4511581   3.3419329  13.3259058   2.9864782   3.1176317  11.9029701
  26.9746542  77.2560453   6.1863118  27.5887465  77.5988054   5.5369747
  26.1117768  77.3909426   5.7945490  63.9688778  20.2824450  59.7369671
  63.1417704  20.7497239  59.6196318  63.7470722  19.3627119  59.5916224
  51.8263626  60.2506351  21.7581344  52.3078060  59.4484186  21.9603467
  52.5067472  60.9075117  21.6103983  81.3281727  67.6553488   2.6601094
  82.1231174  67.3292589   2.2382550  80.6454182  67.0401525   2.3925205
  56.1226320  24.5547509  60.9793615  55.2551746  24.5620179  61.3839531
  56.0161829  25.0631404  60.1753473  77.6230574  22.7499008  50.5582571
  78.4429121  22.3965788  50.9035492  77.6633167  23.6855626  50.7561207
  64.3046236  55.8629513  49.9127436  64.7660780  55.0400066  50.0741434
  63.6246634  55.6358576  49.2784595  71.9342518  70.5984926   7.8471398
  72.8290749  70.5604982   7.5093728  71.4989138  71.2514830   7.2991294
  69.3452454  62.0378828   4.2915437  70.0441980  61.6237116   3.7854195
  69.8032093  62.5467634   4.9605310  71.2090683  77.5239325  36.1128497
  70.9542656  78.0293703  35.3409433  70.7971382  76.6692400  35.9861875
   8.0021864   7.8491676  48.7228107   7.7415335   7.5208318  47.8622961
   8.3547395   8.7220180  48.5494041  26.8953824  76.6847038   2.9121900
  27.4366140  77.3110580   3.3927915  26.2363577  77.2237682   2.4747758
  42.1327114  27.6367307  67.7796936  42.7355051  28.0548835  68.3945274
  42.4778652  26.7505527  67.6711130  69.7386932  13.0323887  63.5879660
  70.4153061  12.7434659  62.9756308  69.9555826  12.5921154  64.4097662
   8.3276570  41.2062693  12.8884912   8.7489504  40.3469896  12.9080641
   7.4583459  41.0385704  12.5246119  82.8542805  51.0733652   7.4517530
  83.0255604  51.9492579   7.1057725  83.4188080  51.0053825   8.2217681
  53.2104778  13.3260071  54.2317104  52.9430819  13.6292326  53.3640814
  53.2417202  12.3725522  54.1531038  12.6258802  25.8763742  26.9965458
  13.4547496  26.3299727  26.8434000  12.8811634  24.9860787  27.2382832
   8.3996445  59.0396881  29.6385121   7.9598230  58.5614681  30.3414321
   7.7482033  59.0900326  28.9389992  51.5379572  20.9983802  23.0862141
  51.9553232  20.9730554  23.9472580  51.9510317  21.7385364  22.6414990
  33.3660889   7.7813649  29.4667029  33.9280033   7.5024742  28.7437224
  32.4958825   7.8622293  29.0762758  66.7042828  78.1517792  24.9330997
  65.8010483  78.4468126  24.8175025  66.6543150  77.4931908  25.6259179
  72.5018692  16.4620268  28.2258654  72.6614666  15.5851185  28.5748529
  71.7790365  16.3464618  27.6091123  78.2915163  53.8453150  20.0513721
  77.4260902  54.0312338  20.4156637  78.9015627  54.0850830  20.7489252
  61.0970211  14.1099930  49.6153212  60.8011818  13.3903348  49.0578222
  61.2580872  13.7029326  50.4665470  75.5929995  60.3525972  13.1653655
  76.0447121  60.7867241  12.4416828  76.2958097  60.0628233  13.7470186
  13.0757070  57.2939920  11.3458693  12.3180246  57.8778744  11.3107932
  13.0415344  56.9096231  12.2218406  66.0461473  63.2359648  13.4630275
  65.8508825  63.3785009  14.3891954  65.1895618  63.1136656  13.0537176
  15.1068890   9.7524536  40.7026291  14.6123505  10.3918660  40.1899719
  14.7948134   8.9028376  40.3911924  51.6780806  30.2365947  57.3126793
  51.4827871  30.9195304  57.9543114  52.1939182  30.6806946  56.6396856
  60.4345131  20.8520651  45.4972792  60.9392071  21.3998699  46.0984659
  60.0399113  20.1831079  46.0567570  28.4090853   8.4887189  25.3416038
  28.0230141   7.6188290  25.4439354  27.6585388   9.0821499  25.3141880
  56.4019442  26.2445927  50.5007648  57.3128176  26.3159084  50.7861662
  55.9826708  27.0363474  50.8377647  56.2546539   8.5905880   9.3660277
  56.7641258   9.1240466   9.9760199  56.6295385   8.7850350   8.5070258
  23.0793595  72.5813007  50.2251339  22.9517722  71.6333532  50.2618361
  23.8496351  72.6979399  49.6689796  17.4030089  19.7316277  61.5459681
  16.4887369  19.4506836  61.5834856  17.5264299  20.0254822  60.6433868
  71.0106897  61.9957829  11.4435625  71.9562769  61.8509865  11.4098632
  70.7926702  61.9388485  12.3738623  11.4182019  60.1709795   7.4199188
  12.1586418  59.6119213   7.6553601  11.4828217  60.2664709   6.4696884
  37.0778489  15.0505686  62.9081440  37.7096033  14.8977149  62.2054672
  36.4809227  15.7098973  62.5543118  49.8324490  63.7275600  67.9124880
  49.7874975  64.6826887  67.8683901  49.0392399  63.4296417  67.4671888
   1.4141440  56.2687778  29.3196678   0.5760206  56.6745806  29.0980673
   1.3970320  56.1892939  30.2734065  46.8060541  20.2778149  54.8516273
  47.2970200  20.8131313  54.2282343  45.9063864  20.5979633  54.7857571
  62.8004169  24.9259782  56.9584799  63.5660744  25.0297213  57.5234890
  62.8005934  23.9982414  56.7228222  72.7330160  67.0987892  28.6952257
  72.9222441  67.9864931  28.3912325  72.8137589  67.1494770  29.6476650
  52.0428038  48.5414648  64.4860029  51.7252827  47.9004574  65.1220226
  52.5335455  49.1752005  65.0092411  65.9055901   6.8820029  37.2910857
  66.5255499   7.1721560  36.6219878  65.0444174   7.0592129  36.9126439
  35.1920938  23.1448770  26.3300085  34.5741153  23.7590146  26.7264557
  36.0023332  23.2675529  26.8246746  19.8297071  49.2586231   0.4081648
  20.7179117  49.4872284   0.1341831  19.4575691  48.7993336  -0.3446966
  19.2245901  36.1789560  68.4722376  18.7716055  35.3588128  68.2762766
  20.0745487  36.0921669  68.0406475  72.5989676  49.8620129  12.6337802
  72.6341915  49.2470312  13.3664358  72.4419546  49.3117046  11.8664873
  14.5617735  33.5195851   8.5554081  13.6891186  33.8900352   8.6875850
  14.9609089  33.5305429   9.4253522  60.3239155  69.8199224  17.6064241
  60.7165527  69.1670561  17.0269179  59.7758484  70.3528214  17.0303380
  75.3033257  30.4775381   2.7796647  75.4372072  31.2457108   3.3348393
  74.5274019  30.0512719   3.1436342  82.8549576  14.3558466  64.4407654
  83.7075138  14.2249572  64.0257311  82.2614384  14.5454836  63.7141323
  10.3508675  60.1267719  22.1745038  10.4882658  59.1838408  22.2652102
   9.7205019  60.3441191  22.8612566  74.0498400  19.3403780  66.3839865
  73.6991501  19.7806716  67.1581888  73.2948017  18.8957000  65.9987450
  80.7868195  33.6717892  64.1029930  80.5680656  34.5946431  64.2322969
  81.7378139  33.6639881  63.9944935  84.2984772  42.9003716  53.5817909
  83.7911892  42.1960020  53.9852285  84.2099857  43.6364031  54.1873121
  80.4238415  41.0166168  61.2541866  81.0013390  41.6199684  60.7865477
  81.0014629  40.5547714  61.8618774  68.9736605  19.3196774  45.0093555
  69.4481039  18.5852897  45.3989887  68.1458139  18.9404607  44.7142410
  58.0020475  60.1991606   3.6210889  57.7738571  60.2617550   2.6935953
  57.1853113  60.3905344   4.0821251  11.4929795  44.6614695   3.0901203
  12.1684623  45.0572109   2.5393522  10.9847057  44.1152334   2.4905264
  82.0281124  57.5883770  15.1434886  81.2670708  57.2088861  14.7041428
  82.7683449  57.3580551  14.5820141   9.2509156  36.8614054   3.2681206
   9.8963970  37.0649791   2.5912571   9.7660565  36.7650318   4.0691033
  17.0949781  72.0056581  13.0906582  17.6809859  72.4725962  13.6863041
  17.6087272  71.8894672  12.2914124  38.6471391  17.9397655  56.6997337
  38.7748456  18.8851368  56.7784405  39.4648790  17.6184142  56.3199091
  14.9860346  74.8065138  66.8909502  15.7884741  75.2982426  67.0656586
  14.7279310  74.4582510  67.7443695  54.1526413  41.1013460  66.8085384
  53.6997080  41.9437408  66.7703533  53.4529877  40.4581881  66.9228315
  59.1044998  19.4190979  47.3113441  58.7120199  18.8196445  47.9460478
  58.3895588  19.6361256  46.7130184  80.7361317  71.7582703   6.9235599
  80.0364590  72.1096992   6.3729352  81.4630890  71.6068363   6.3195425
  65.9967041  11.8252337  60.8670950  66.5035963  12.5527716  61.2276268
  66.2755632  11.0637915  61.3756990  72.5476885  61.0920858   1.6485040
  72.4002552  61.4658642   2.5172892  71.8627501  60.4302788   1.5531120
   0.6168050  30.1681781   5.8042663   0.8080763  30.1006889   6.7397302
   1.0145326  29.3861938   5.4214519  79.1717529  76.8756056   3.4341833
  78.8169050  75.9879303   3.4826362  79.8256874  76.8343782   2.7364028
  51.9305992  49.2584181  61.8102407  51.6988945  48.7380743  62.5795174
  52.6612949  49.8039484  62.1013069  11.2535584  72.8911734   9.5594388
  11.7287958  72.2040081   9.0923381  11.1548507  73.5935020   8.9166123
   6.3694537  71.7185640   7.7654821   6.8418026  70.9087133   7.5724471
   5.9040099  71.9234753   6.9545531  47.8095293  25.4098058   8.0209893
  48.1627798  26.2954330   7.9366606  47.3428869  25.4166436   8.8567096
  60.6279182  14.1273212   8.0446267  59.7883511  14.5362115   7.8344518
  60.6199837  13.3015490   7.5606143  37.1796703  10.6445312  38.4356809
  37.8387618  10.5480564  37.7482772  37.4990296  10.0962436  39.1523528
  11.2001967  29.9132919  24.0191793  11.0035610  29.2659640  24.6963310
  12.1328974  30.0985789  24.1285849  67.8481627  30.8604479  64.4654226
  68.1138468  30.8462954  65.3848982  66.9947910  30.4269695  64.4559956
  34.6971989  11.7500639   9.2681438  33.7747836  11.5502071   9.4276482
  34.6881866  12.6197529   8.8684028  19.4858503  69.4935608  33.8638568
  18.5331702  69.4810438  33.9559293  19.6454978  70.0497484  33.1013584
  45.3166723  68.2535696  38.8176394  46.2411022  68.0584002  38.9711595
  45.3255129  69.0318489  38.2604718  36.0553718   1.7282772  68.5034561
  35.2349162   1.4108931  68.1261635  36.7321157   1.1914799  68.0910301
   5.0716323  76.2270403   5.6988692   5.9926069  76.3877201   5.9043407
   5.0929415  75.5817366   4.9922127  43.0897427  11.3121867  17.5733984
  42.4432611  11.8850565  17.9858530  43.5664225  11.8834817  16.9712126
  70.8171844  66.2947273   3.2066327  70.4444075  65.6743765   2.5801861
  71.1886501  65.7446337   3.8962990  83.2381439   1.6872907  41.4540005
  82.4066067   2.0672120  41.1703730  83.8839340   2.3743694  41.2893486
  77.7043533  67.0794773  48.6546946  78.3724117  66.7782402  48.0389118
  77.8668928  68.0185413  48.7439537  72.4947691  59.6375656  15.2575731
  73.0648804  60.2974033  14.8628294  71.6729593  59.7097588  14.7721350
   0.5783419  39.3173671  55.6910515  -0.2892605  39.6063495  55.4082298
   0.4876879  39.1737890  56.6330671  78.9869833  51.4624310  55.4703379
  79.6596098  51.6440916  56.1266947  78.3967829  52.2145271  55.5177212
  60.5849028  73.8142109  24.5791435  59.7105408  74.0037966  24.9194002
  61.1805725  74.1500759  25.2489233  63.9000845  30.6360579  51.6995478
  63.8552713  29.7405863  52.0347404  63.1149387  31.0607314  52.0451355
  50.7640123   3.7704223  18.2180643  50.4743052   3.9589509  19.1106761
  50.6379318   4.5937520  17.7464044  75.1459742  71.2082958  42.0788717
  74.5695114  71.6381741  42.7106428  75.0536633  71.7263269  41.2792730
  80.9688377  56.2764835  26.2796593  80.1758003  56.6698742  25.9155560
  81.2929535  55.7037497  25.5845666  23.7676764   4.6926975  13.8882017
  24.1438174   4.1015440  13.2360613  23.2529211   5.3170490  13.3768880
  12.3311722  75.8868980  24.9051976  12.0911539  75.7859898  23.9840889
  11.6702580  76.4807367  25.2612567  42.9808283  41.8301392  57.8620625
  43.6111546  42.1506405  58.5071993  42.2899818  41.4223671  58.3842564
  69.8962975  67.2367573   7.3828262  69.1626310  66.6558695   7.5841624
  70.0720549  67.6944017   8.2049596  27.0625973  26.9912672  58.2545662
  27.6537657  26.2716317  58.0334949  26.2766314  26.8239641  57.7344704
  28.4192824   9.0384847   7.6075757  28.1488490   8.3290702   8.1905240
  29.3068886   8.8020557   7.3383445   5.1017147  78.3662081  26.7285252
   4.2617074  78.2874918  27.1806574   4.9886310  77.8610039  25.9234095
  65.8537388  70.3217793   0.7232516  66.5426493  69.7681618   0.3556345
  65.7960606  70.0549173   1.6406879  51.4545870  41.2668991   6.5872335
  50.5441475  41.2731123   6.8826938  51.4223146  40.8623171   5.7203424
  35.6940866  61.0924435  57.3851252  35.1224113  60.5974245  57.9719543
  35.2390146  61.0828972  56.5430737  31.8959403  46.5685463  17.6266980
  32.5742102  46.3076115  18.2496679  31.9971561  47.5169277  17.5457180
  26.7169642  34.2467237  52.4387932  26.2656522  33.6442399  51.8475533
  26.9816875  34.9773669  51.8799400  59.2395210  21.2581205  12.4413383
  59.5369816  21.0899067  11.5472162  58.4305429  20.7531309  12.5236213
  79.0704393   2.3206396  64.3448067  78.6981249   2.9462200  64.9663115
  78.7833595   2.6350304  63.4875011  20.2191114   0.6408754  65.5473185
  19.3042254   0.5214487  65.8021832  20.2827048   1.5658805  65.3095102
  82.4580956  78.2836103  15.7791364  82.8611088  77.4958324  15.4141545
  83.1827927  78.9018488  15.8730960  24.3717194  44.7075367   6.5135241
  23.5661364  44.4969845   6.0413659  24.6928763  45.5062246   6.0949695
  44.3476248  22.6057816  64.0890312  44.5774889  23.0819058  63.2910967
  45.1849842  22.4549270  64.5275545  52.8814983  46.8166304  57.1859598
  52.6872540  47.0787144  58.0858564  53.3005810  47.5847721  56.7979479
   3.9614543   6.6807908  22.2461724   4.0820318   7.6135671  22.4239945
   4.0163538   6.6095823  21.2932038  52.9499483  35.6545997  62.6632738
  53.2322645  36.3051081  63.3062124  51.9980907  35.7494664  62.6286697
  76.5830278  64.8802757   8.6029655  76.3068342  65.3092813   9.4128454
  77.1323633  65.5293226   8.1634188  15.2861333  65.8776140  68.2418394
  15.3906870  66.8258524  68.1634283  14.3577850  65.7237053  68.0665874
  66.7876911  67.2485161  33.6331677  67.4498796  66.8034554  34.1619921
  67.1156216  67.1856499  32.7360964  62.4003172  58.8595343   0.5834062
  62.3185539  59.7810507   0.8290614  62.8353596  58.8765907  -0.2690493
  68.2798672  26.2458968  53.7878513  68.3658886  25.3674579  54.1582251
  67.3881531  26.5133905  54.0103865  75.8527613  42.0484352  55.2159739
  76.6550350  41.5263605  55.2210522  75.6928682  42.2508287  56.1377668
  36.6779995   6.6422558  16.4066660  37.1296740   7.1695769  17.0655704
  37.3813844   6.2076819  15.9243500  56.9978905  69.4946337  19.8619211
  57.1467113  69.4561481  20.8066988  57.7500439  69.0403509  19.4822764
   8.6677212  53.6756563  56.7709446   8.3251601  52.8598118  56.4058733
   8.2488579  54.3638420  56.2540436  53.4722042  59.6945238  42.9897928
  53.6178160  60.6405020  42.9772377  54.1585922  59.3541336  43.5635853
  23.3421183  74.1014099   5.0602710  22.4230194  74.3070745   4.8894203
  23.7837243  74.2684698   4.2276201  56.0165215  37.7604437  50.7708883
  56.2843800  37.2301650  51.5214157  56.4171457  37.3278832  50.0168180
  59.9940634  43.5321331  61.1874104  59.8796177  43.5552359  62.1374607
  60.7554770  42.9682064  61.0515308  26.7228246  54.1061306   9.9177635
  27.2815871  53.3325481   9.8430169  25.8703518  53.8183069   9.5911437
  76.6488028  36.5571356  51.4636326  77.3375607  37.1185374  51.8195391
  75.9404039  37.1603632  51.2388563  47.1784973  44.1628790  64.6651030
  46.6791868  43.6159420  64.0586567  48.0417633  43.7511683  64.7036934
   3.7614560  26.4613795  27.0673943   4.3698114  27.1809006  26.8988013
   3.3195809  26.7068195  27.8802514  82.3419476  58.9969921  67.1572065
  82.5777149  58.3133841  67.7843571  81.9560719  58.5232878  66.4203596
  62.7202129  46.5396500  58.1274509  63.4155178  47.1105766  58.4542847
  62.1349478  46.4224768  58.8757563  36.1988330  17.1036744  16.5199530
  36.0130811  16.1650765  16.5475440  37.1494842  17.1625865  16.6149664
  20.4493761  60.3603649   9.6264201  21.0506725  59.6161270   9.5984626
  20.8059049  60.9308910  10.3073192  52.4963427   3.4618333  62.0057249
  52.6919270   2.6630160  62.4954891  51.6037846   3.3334488  61.6846561
  66.5951681  76.9179964   4.6206877  66.0011005  76.2201500   4.3444052
  66.4330721  77.0129156   5.5592752  50.2610207  55.2605534  54.3119049
  50.2917957  55.6202936  53.4254122  51.1775494  55.2164030  54.5844221
  14.2779684  74.3820906  25.9072018  13.5541797  74.7224188  25.3813338
  13.9638495  74.4351292  26.8098354  30.3836656  21.8104076   6.9202226
  30.4534936  22.1944451   6.0462248  31.0655284  21.1389756   6.9419825
  76.3240623  74.3279839  26.2401414  77.2069216  74.6342373  26.4475250
  76.0109186  74.9357557  25.5702257  63.7392950  45.4662895  62.5550365
  63.9382267  45.1652002  61.6684675  63.8117981  44.6804762  63.0967712
  21.6939878  64.8514462  43.4831381  21.3983178  64.9718761  42.5807476
  21.4085078  65.6446171  43.9365864  31.8694258  27.9970145   8.6810178
  32.0657372  27.8570247   7.7546829  31.9870210  27.1365261   9.0834677
  75.4822922  78.2245827  40.0030613  75.9234524  78.1335688  40.8476448
  75.1992226  79.1386271  39.9779677  60.9703159  19.0576136  50.8254051
  60.4435539  18.2684743  50.6988764  61.8470335  18.8100088  50.5316544
  56.6366434  26.6082501  66.2070417  56.3444185  27.5047612  66.0424042
  56.6137028  26.1872387  65.3477097  48.1968164  71.9940376  37.1858764
  47.9745531  72.8140116  36.7448902  48.8477898  72.2436333  37.8417540
  30.4249072  17.3783278  16.1107278  30.7570076  18.2030559  15.7560945
  30.5342555  16.7495561  15.3973413  34.0055013  27.7046967  27.6579189
  34.3060589  28.4823275  28.1282210  34.4370079  27.7588058  26.8052125
  75.0277233  74.0062284  50.2451515  74.7094154  74.6855211  49.6506119
  75.4260015  73.3524418  49.6705484   3.0694368  28.5419536  61.2448072
   2.8133041  28.9180136  62.0869541   3.0017170  27.5959873  61.3743973
  46.0295105  74.0885687  12.6888108  46.2257195  74.4996881  13.5306633
  45.1552868  74.4074106  12.4645293  14.8666441  78.5900688  20.5238509
  14.3433285  79.1518688  19.9522269  15.6951666  78.4792328  20.0574851
  41.0198355  51.4228487  65.3528070  40.5035210  51.7832422  66.0737562
  41.0375500  50.4802942  65.5186749  17.9413235  66.4549255   5.9726197
  18.6489105  67.0767117   6.1427259  18.3032882  65.6053734   6.2245560
  31.7355084  58.5997343   2.5313166  32.2065878  58.6239529   3.3642209
  31.3873553  59.4852734   2.4272247  34.9079227  33.1213474  16.9765401
  35.8625126  33.1177878  17.0470941  34.6831036  32.2259307  16.7237222
  71.4389849  75.2618837  67.2656393  70.6406593  75.1897669  66.7424726
  71.6217089  76.2010050  67.2955656  60.6232548  51.7398214  42.8683329
  61.5291071  51.4553452  42.9897261  60.1598740  51.3961220  43.6321306
  72.9610491  17.0043218  36.4126801  72.2977829  17.6885080  36.5032172
  72.4608564  16.1889553  36.3777709   5.4833788  29.5851517  46.5262842
   6.0332906  29.2264342  47.2228098   5.2345169  30.4541492  46.8411541
  27.2260857  11.1783504  13.0153394  27.1507478  11.7344606  13.7907732
  27.7165008  10.4132855  13.3160055  31.2103391  17.0246804   3.4280092
  30.3867435  17.4302888   3.6989421  31.7785025  17.7620494   3.2050538
  67.2298622  77.8678417   7.2937346  67.1104908  78.6671638   7.8066361
  67.8794193  78.1031513   6.6312116  57.6289988  47.3819256  48.9318275
  57.5173998  47.8044176  49.7834587  58.4483480  46.8936348  49.0122366
  60.0601482  16.2327707  51.7873573  60.6444550  15.9755766  52.5005674
  59.8506546  15.4120302  51.3415718  79.0461302  64.4788027  65.8162832
  78.1345701  64.6665525  66.0399914  79.0437078  64.3804359  64.8641539
  47.9805040  40.0838852  67.1430397  47.6175833  39.6048093  66.3980532
  47.2550154  40.6235409  67.4571657  64.6584177  25.7683659  62.4325275
  64.9753761  24.9497628  62.0508718  65.4521513  26.2732387  62.6095104
  43.1358957  13.2206810   0.8877271  43.9557600  12.8041446   0.6221002
  43.4057379  14.0481567   1.2861013  32.1360135  71.8994665  32.1655917
  32.9478383  72.3960543  32.2684288  31.4552164  72.4804926  32.5049329
  71.5576458  32.2966433  66.1404514  70.9448385  32.9657507  66.4453983
  72.4223900  32.6834345  66.2777138  75.6600714  10.8060384  66.4343071
  76.4078426  10.6111634  66.9991922  75.9396505  11.5630352  65.9195042
  56.3983870  72.2037315  46.2811375  57.0195770  71.7982864  46.8860865
  56.7443562  73.0845404  46.1372328  48.1118584  64.4814110  44.5630503
  48.6663961  64.2779016  45.3162479  48.4242201  63.8983631  43.8711548
  35.2125597  70.1310587  60.5618238  34.3800545  69.7123194  60.3431416
  35.6433487  69.5134735  61.1527872  66.9950008  19.5114517  38.7881541
  66.4642048  19.2352653  39.5352864  66.7153263  20.4103374  38.6148906
  26.2798357   2.3919143  37.5495696  27.0890379   2.1694908  37.0891857
  26.1727214   1.6943902  38.1962681  32.2677445  69.1246223  42.8811836
  32.5920057  69.2459822  41.9887924  31.3832402  68.7762403  42.7693129
  24.4907832  40.5150270  13.9814162  24.8574662  39.9295330  13.3188665
  23.5765886  40.2429914  14.0618885   9.0998453  39.3413162  20.8617091
   8.7051398  38.7048411  21.4578128   9.3864506  40.0561476  21.4301300
   3.1202054  65.4782581   5.3818262   2.8808650  64.8957682   4.6609533
   4.0426424  65.2853107   5.5495000  84.4678174  14.4840002   4.9655476
  83.7942720  15.0113201   4.5360109  84.3946137  14.7108662   5.8925885
  39.1759419  71.2795925  31.8322182  39.7037458  71.9393015  32.2821498
  38.6487913  70.8814096  32.5248909  57.0222044  35.4316831  60.0268984
  56.9888639  35.9928203  59.2521429  57.0510769  36.0420752  60.7636642
  79.9643612  71.4572048  23.9725471  79.5310259  70.8244991  23.3997178
  80.2920055  72.1327257  23.3787847  82.1568584  12.3899353   7.9911858
  82.7767849  11.9749177   8.5909271  81.3134670  12.3311710   8.4400296
  10.1570261  56.1567545  64.2750072   9.8566496  56.7851639  64.9315977
  10.8459568  55.6600142  64.7164297  42.2364378  38.9624953  62.2721529
  42.3052120  39.7398806  61.7179203  43.0437088  38.9628625  62.7864933
  40.1852608   7.0744574  24.4524646  40.2684641   7.9022908  23.9791751
  40.5818939   7.2459614  25.3065705  21.2184048   3.6930868  18.1159222
  21.3540006   4.6388930  18.0585098  21.9641852   3.3154643  17.6496136
  48.1447458  33.0549669  60.8091974  47.9278088  32.1455431  61.0144281
  48.6920595  33.3415008  61.5403461  47.5720310  11.7567027  36.5693498
  48.1207657  12.4596417  36.2214994  46.9894600  11.5270770  35.8453894
  11.9541287  18.1602943  25.3381634  12.3501003  17.3688757  25.7029867
  11.6499043  17.8973448  24.4695234  73.1153297  24.7587299  56.0997391
  73.1512690  25.6768775  55.8315134  74.0320110  24.4877553  56.1497355
   1.0442191  27.6774168  66.0968685   0.9133707  27.6183772  67.0432472
   0.7863718  28.5720825  65.8747816  14.0557802   2.2588193  14.9568975
  14.1261387   3.1081817  15.3926325  13.3562481   2.3765452  14.3142259
  66.7261028  21.3061690  50.9285831  66.5544748  22.2290945  50.7415438
  67.0892811  20.9600878  50.1133776  47.2940207  66.7207956  10.2938187
  46.5503883  66.9556618   9.7387683  48.0404472  67.1695900   9.8967427
  11.0317421  67.5965738   4.1384962  10.8536446  68.4564543   3.7575537
  11.5958977  67.7796412   4.8897931  62.7668571  34.9329996  52.9109335
  63.2487011  35.7425785  52.7416945  63.2474566  34.5128798  53.6242008
  11.8764949   8.7936974   1.1195913  12.2745335   7.9942071   1.4639914
  12.6181448   9.3694228   0.9332396  45.5687571  46.7181873  49.3171310
  46.1091709  45.9288597  49.2831945  44.6694183  46.3953304  49.2607641
  41.3596439  58.2146215  62.8238392  41.5709829  57.5311041  63.4597445
  41.5651131  57.8235483  61.9746780  55.6726551  25.4183745  58.1984520
  56.1676741  26.1707234  58.5227346  55.6368160  25.5458450  57.2504520
  50.9104061  47.9150963  39.7888589  50.3580666  47.1388626  39.6960783
  50.9988499  48.2539892  38.8980389  53.7747240  72.1457481   5.6225771
  52.9919100  71.6979504   5.9433717  53.6660814  72.1665192   4.6717891
   3.4667674  14.8313642  24.0362859   3.4040850  13.9682412  23.6272383
   2.6415178  15.2623224  23.8138676  29.3276548  41.1335468   3.3371645
  29.0616274  40.2140856   3.3442831  29.6240807  41.3040447   4.2311966
  10.9645164  15.9759438  62.8154755  11.7393446  16.4122009  63.1698132
  10.3173554  16.0285997  63.5187864  20.4581785  69.4606638  36.3307405
  20.1792359  69.2832184  35.4324460  19.7838247  69.0548468  36.8755245
  59.0341997  21.9317389  57.5107861  58.9306355  21.1783576  56.9294739
  58.1843328  22.0199370  57.9422712   4.7692239   0.8204801  44.8843050
   4.1014451   0.1684108  44.6719170   4.7801915   0.8492231  45.8410120
  14.3478620  37.3768806  60.3062677  14.0962517  38.1540847  60.8051443
  14.6217620  36.7442870  60.9703732  58.6191607  54.0835047  26.4713502
  58.6183596  55.0403976  26.4956117  59.0515852  53.8236523  27.2848082
  70.6224442  27.2316933  58.0704308  70.2122545  27.5008321  58.8923407
  70.4465437  27.9538155  57.4672461  20.4005027  33.1456685   9.1208625
  19.9541974  32.4878216   9.6540415  21.1967134  33.3511114   9.6108335
   2.6806250  63.0473328  34.9236727   1.8487942  63.0961275  34.4526005
   2.7096042  62.1541643  35.2666688  24.3972564   9.1180623  12.9442263
  24.8361278   8.7721574  13.7213838  24.7656488   9.9942696  12.8311813
  79.4926453  25.5907702  68.3943939  79.3885422  25.2762651  69.2924356
  79.0414000  24.9386048  67.8584003  57.5066233  15.7246256  34.2118073
  56.7251301  15.7996082  33.6641955  57.5081921  16.5243924  34.7377372
  49.6989059  79.2349052  63.8321447  49.6811914  80.1914310  63.8009787
  50.2292871  78.9804459  63.0770445   2.5676540   5.0676590  66.0398388
   3.3880854   4.5984435  66.1913681   2.8336012   5.9767985  65.9021091
  66.0983944  40.7089376  61.6364908  65.4615641  40.2067566  62.1449137
  66.8244457  40.8579636  62.2421885   4.3258247  66.9531870  16.2212992
   3.4392744  67.3124456  16.1867428   4.3251494  66.2508202  15.5709839
  41.2196255  39.9480534  59.2540026  40.4324627  40.2024508  59.7355461
  41.0530663  39.0454006  58.9825058  65.9389925  50.3506660  51.6790247
  65.7776546  49.4866037  52.0579624  66.8740225  50.3515911  51.4742136
  60.6502628  16.6492963  65.9640694  60.9905195  17.3899889  66.4659023
  61.0386181  16.7501616  65.0950289  10.0659704  36.7590284   6.9586211
  10.3828597  35.8850002   6.7308348   9.5264596  36.6227484   7.7374583
  70.3028250  38.6858582  20.0636935  70.7394743  39.3024540  19.4760072
  69.7487450  38.1582165  19.4885206  79.0594292  61.7993593  11.4207017
  79.9239683  62.0380449  11.7551172  79.0362406  62.1629763  10.5355597
  66.8841553  29.5436454  59.8815966  66.7744827  28.8204122  60.4989576
  67.1639442  29.1238332  59.0681410  73.7437820  11.0920048  43.8253164
  73.2132435  11.0980988  43.0286217  73.1052828  11.1027920  44.5383596
  78.2888746  64.7803402  24.8817468  79.0427113  65.1958942  24.4630837
  77.6809072  65.5004120  25.0493884  83.4575462  76.1969614  60.5719423
  84.1076183  76.8994713  60.5830765  83.9272404  75.4307652  60.9014273
  54.1493988  54.5831823  68.6913109  53.3345747  54.8296738  69.1289520
  54.3066978  55.2881813  68.0632448  77.3615217  42.3439360  64.3035650
  77.3271990  43.1084871  64.8784733  76.5770626  42.4175787  63.7600231
  56.8228674  52.0050764  44.9358702  55.9910488  51.5777111  45.1400042
  56.6067791  52.9359531  44.8810768  64.3866539  49.3025684  41.2790537
  63.5695601  48.9814854  41.6604948  64.8027229  49.7968245  41.9853306
  17.8287530   4.9610737  19.6868968  18.4371233   5.4642725  20.2281070
  16.9792891   5.0736785  20.1134682  24.7151494  61.6660833  20.9489250
  25.1834774  60.9616613  20.5009413  24.2418551  61.2273121  21.6558266
  65.6544256  61.1443186  44.8022461  65.0338316  60.5729389  44.3498993
  65.1252365  61.6046286  45.4536390  11.8981969  67.7480173  12.0880735
  11.4841664  67.9640675  11.2525296  11.1667752  67.5611687  12.6765811
  48.0713701  46.1948633  58.7325478  48.1174755  46.5457439  57.8431749
  47.2761059  45.6621885  58.7389421  64.5842075  22.2983837  64.0204382
  63.8166904  22.6954484  63.6087513  64.9704170  21.7551923  63.3334017
  67.2680426  33.3118629  66.8403912  66.5355539  32.9610467  66.3338089
  67.3574734  32.7107573  67.5799227  55.5017281  67.1312571  55.5824041
  54.7494888  66.8147278  56.0825825  55.1454687  67.8248072  55.0271559
  74.1062546  62.0243311  15.1350188  74.9678421  61.7362595  14.8334932
  74.1946936  62.0893860  16.0859013  17.4979877  13.2692695   6.7224389
  17.0453906  12.6501822   7.2952557  17.6610601  12.7763307   5.9182936
  23.0104685  28.0805373  36.2501597  22.2853160  27.4631143  36.1543870
  23.6185050  27.8465056  35.5489111   7.2709525   0.6193832   0.9537949
   7.5968164   0.6697357   1.8524101   6.9135100   1.4900656   0.7794999
  46.0752583  56.8516254  67.0441008  46.9643593  56.5440989  67.2206116
  45.9655905  56.7381716  66.0999966  22.1109939   2.7335995  24.8423767
  21.9297099   2.7052793  23.9029264  22.1990538   1.8151288  25.0971103
  31.5868473  10.2229023   9.4021374  31.2845874   9.6833330  10.1327097
  31.3525081   9.7215772   8.6211181  66.7837667  24.0136409  50.6526136
  67.3760748  23.6739278  49.9817944  66.5446472  24.8865962  50.3411627
  14.3343604  74.1127396  29.1476989  15.2468884  74.1280270  28.8590980
  14.0430641  73.2177114  28.9736152  82.5091076  24.4639635  58.2782793
  81.8895340  25.1805401  58.1408787  83.3662128  24.8508596  58.0996656
  62.4275303  54.9225473  37.7663708  62.5790167  54.1022015  37.2969985
  61.6567135  55.3014278  37.3438430  73.4760857  45.2298450  43.4017420
  73.4224558  45.6989431  42.5690937  72.6463509  45.4218197  43.8386822
  30.3584695  78.8392401  40.4974985  30.1104188  78.6253786  41.3969231
  30.3577852  79.7960424  40.4699183  33.8096261  11.5714836   6.4387661
  34.0877056  10.8247423   6.9691259  33.7751532  11.2308121   5.5449057
  76.5210724  32.5962067  20.5737114  76.8318224  31.9995880  19.8927450
  77.1328783  32.4711180  21.2991643  69.9203157  62.9427338  27.5474524
  69.1873407  62.6134443  27.0273089  70.1476240  63.7780666  27.1390629
  77.7327871  28.9671254  58.0464935  78.2263756  29.0411162  58.8632727
  76.8691015  29.3229270  58.2555103   0.0084643  16.6789699  61.5317774
   0.5552534  16.5733445  62.3103046  -0.0963159  17.6259184  61.4393663
   4.8219219  67.8234529   6.5616953   4.0691614  68.2862902   6.9296169
   4.5465776  66.9073391   6.5276670   1.1409495  39.2304730  45.4718685
   0.4062506  39.1966653  46.0844898   1.6375358  38.4315825  45.6490946
  61.0414648  55.8965397   0.2516790  60.4135942  55.2145481   0.0131412
  60.5482864  56.4878511   0.8203231  47.0263338   9.2214340  44.7531748
  47.8467035   9.4219053  45.2037668  47.1717978   9.5086634  43.8517475
  63.1588697  23.3214664  49.1520548  63.0679989  24.0710258  48.5637236
  62.2812748  23.1912255  49.5113564  52.3774338  64.7691822  43.6306477
  53.2848930  64.6152210  43.3678818  52.1131516  63.9584351  44.0654707
  20.4715633  19.9386299  61.4634323  20.7996821  20.6045675  60.8592033
  19.5495009  20.1627517  61.5891552  41.9831944  13.1823421  10.9390891
  41.2527895  13.6615205  10.5477715  42.5985336  13.8634729  11.2104678
  19.6402597  62.0719099   6.3809228  19.5380771  61.1216354   6.4335668
  18.7542140  62.3999405   6.2274599   4.6998727  19.9781430  30.1884341
   5.0345743  20.1253510  29.3038225   4.2245686  20.7812381  30.4014063
  71.3106060  39.5213103  65.9395170  71.4238834  40.0656796  65.1603746
  70.6959629  38.8395691  65.6680870  70.2563715  33.7527251  31.2479925
  69.3008232  33.7088060  31.2129331  70.5273914  33.8076687  30.3316069
  49.7667265  15.0296307   2.9995966  49.0740728  14.4803083   2.6325744
  50.5149269  14.8916411   2.4187474  22.0018315  34.8313212  27.6427150
  22.5381327  35.5829954  27.3905277  21.1505485  34.9979091  27.2379971
  10.2828622  75.4089260  50.2218390  10.4868555  76.3102579  50.4712772
  11.1172020  74.9454975  50.2949572  82.8940010   1.4241113  37.9205775
  82.9173088   0.5015447  38.1746626  82.5131893   1.8711698  38.6764574
  52.1911812   0.1580126   8.3106869  51.3375902   0.5690479   8.4473169
  52.2278070  -0.0107289   7.3691899  18.1262600  13.7020814  42.9826784
  17.4845910  13.1283700  42.5639296  17.7510834  13.8940144  43.8421154
  69.2131138  65.0740290  54.1356468  69.1562128  65.5297422  54.9754810
  68.3111095  65.0465155  53.8164854  12.9929721   4.5157939  38.9418364
  13.3534074   3.8090944  39.4774604  13.5151434   4.4986370  38.1397915
  44.9765015   3.3165509  29.0182853  44.6894026   3.6066788  28.1524730
  44.2105293   3.4408215  29.5787120  16.4531994  35.8825445  43.0425835
  15.9942091  36.3974094  43.7062645  16.7829525  36.5319085  42.4214411
  28.8553262  14.6016264  11.7428362  28.1424284  14.2590392  12.2819471
  29.1750908  13.8412523  11.2572300   9.7870094  63.1669092  62.6174545
   9.8608899  62.5085402  61.9265652   8.8467807  63.2356977  62.7831936
  20.2302337   1.0545910  53.9405823  19.9162698   0.7922018  54.8059177
  20.9953809   0.5008040  53.7853336  43.5921049  24.7312236  20.5142665
  43.9315081  24.4129777  19.6777511  44.0444279  24.2036891  21.1725521
  76.1416340  68.0674267  39.3565059  76.6867495  67.2900772  39.4781971
  76.7250299  68.7076902  38.9491463  48.5523891  10.5983949  14.7107470
  48.6147118  10.3184664  13.7975180  48.1698799   9.8480892  15.1656759
  62.3799658   6.1374915  24.7661662  62.5656366   6.8643570  24.1716695
  61.4815521   5.8811909  24.5578480  24.7038341  19.8486090  40.5228615
  25.1105738  19.1067863  40.0750971  25.1012754  19.8499703  41.3936472
  45.9011555  59.2081118  58.6654758  45.1735020  59.7723579  58.9269781
  46.6038799  59.8153734  58.4338665  69.8244476  61.6207504  63.4288311
  70.2883434  62.3511457  63.0194950  69.5175552  61.0898685  62.6938391
  49.8733091  68.3515692  16.1585128  49.0433788  68.4371758  16.6276860
  49.7510386  67.5892639  15.5926740  34.0628219  27.1330023  18.7710869
  34.9577975  26.8287325  18.9216518  34.1328239  28.0875897  18.7614012
  59.1373920  32.2517753  17.8216183  58.6585188  32.6143980  17.0763552
  59.3274927  31.3486671  17.5676656   3.2906654  20.2844453  58.7310839
   3.5481942  19.3807423  58.5487843   2.8744531  20.5826688  57.9223442
  83.7201977  54.2328501  62.5865030  84.0920258  54.9232340  63.1354523
  83.7636471  54.5844316  61.6972733  21.6573119  30.9655428   7.4089450
  20.8231449  31.1632490   7.8347498  22.2457099  30.7380438   8.1288499
   7.5335085  37.2562623  56.0929775   6.6195464  36.9814086  56.0197592
   7.6821119  37.8019619  55.3207350  83.8794613  47.7116537  45.2920914
  84.5882511  48.2376909  44.9217796  83.4442997  48.2979155  45.9110928
  57.5280190  50.0663328  34.6164083  58.1014585  49.9028969  35.3651977
  57.4917412  51.0202694  34.5462275  42.9171085  34.7073913  51.5680075
  42.5919294  35.4501438  52.0767403  43.4312057  34.1958928  52.1927500
  61.7634487   8.2402742  29.4169760  62.3359442   8.6533320  30.0633979
  62.3378944   8.0495167  28.6754537  26.5397263  14.1777563  13.0263376
  26.1762428  15.0381446  12.8169501  26.0540962  13.8946855  13.8011074
  32.9343390  13.5689402  16.2070954  32.1432471  13.2416224  15.7789958
  32.6772046  13.6965275  17.1202409   1.0607715  47.7180099  47.9153728
   0.4532504  46.9802523  47.8618574   0.5450196  48.4738493  47.6344109
  75.3192902  47.2435427  28.8640833  75.2855682  47.1243668  27.9149294
  75.9733438  46.6112328  29.1617823  52.7550697  77.3004389   6.9950086
  52.0749426  76.9437122   6.4236873  52.2733259  77.7192688   7.7082652
  52.7605963  32.6201653   6.7258590  52.3048639  32.1950865   5.9993309
  53.6895990  32.5015450   6.5280741  82.2839642  70.1421928  60.0989532
  83.0267239  70.7160664  60.2866173  81.5965557  70.7330084  59.7913218
  53.4960032  37.6665235  64.6941948  52.5545597  37.5343513  64.8057270
  53.8889217  37.2493339  65.4608774  81.2087727  58.2568645   5.9870458
  80.6197834  58.2266998   6.7409760  80.9896851  59.0769196   5.5446130
  25.1608539  14.6079195   3.7101892  24.3236113  14.9776042   3.4298486
  24.9774790  14.2220140   4.5667419  56.6595840  20.4159808  12.9742205
  56.2919664  21.0884619  13.5476828  56.4484739  19.5894361  13.4083736
  62.1903086  61.7787457  58.0083179  61.4365005  61.2015486  57.8864479
  62.4078369  62.0782328  57.1255827  60.4629087  44.1384506  14.3083799
  61.2062550  44.5433855  13.8615060  60.5293512  44.4474173  15.2119052
  47.1700573   7.1949857  35.5357718  46.3461208   7.5669110  35.8504581
  47.1896887   7.4108928  34.6034455  38.0218029   4.1784263   6.6990227
  37.2877979   4.2479593   7.3094600  38.6050653   4.8971421   6.9429171
  25.3510547  69.1189432  59.7479677  24.8339963  69.7683525  59.2713690
  25.3046703  68.3312750  59.2060661  73.8493347  30.1399064  67.1050072
  74.0443897  31.0107303  67.4512053  73.9665318  30.2264881  66.1589622
  33.1009054  37.2783422  22.9356885  33.1083274  36.3898635  22.5796247
  33.2047415  37.1589231  23.8797164   3.7611511  61.7809296  41.7486572
   3.9854473  60.9229517  42.1089363   4.6044752  62.2162008  41.6238594
  22.8810692  12.9690051  62.8198576  22.9753685  13.6942232  63.4374332
  22.8241134  13.3905125  61.9623518  58.8012075  63.8431406  27.7813697
  59.5960999  64.3596649  27.6487994  58.4068537  63.7828493  26.9112659
  69.0055418  61.9406939   0.7228498  69.5348978  61.1464500   0.6507845
  68.1224918  61.6236067   0.9123496  68.3458090  75.8188295  52.9559708
  67.6794195  75.4876757  52.3538971  68.9639759  75.0942278  53.0511045
  63.8497353  19.6710742  37.5259662  63.6736298  19.1901267  38.3346128
  64.0222216  18.9905667  36.8752813  54.4006968  63.0376673  29.8834324
  54.5176315  62.5177717  29.0882778  55.1519156  62.8098631  30.4311681
  62.3830509  70.2728224  45.4959726  63.1885481  70.5274105  45.9460735
  62.6269245  70.2358437  44.5710993  16.8209291   5.8477610   4.5026445
  17.1109223   5.4695439   5.3327578  17.5485396   5.6908965   3.9008081
  38.2889628  19.0354335   5.9057295  37.8027678  18.3413160   5.4607046
  39.1357636  18.6399794   6.1125547  40.9506845  63.4725189  59.0103674
  40.3779507  62.7108526  59.1001987  41.4172554  63.5210848  59.8447418
  77.5766420  62.4571609  38.5901761  78.2385540  62.9474068  38.1025648
  76.7419147  62.8097916  38.2817721  46.4671993  53.0649757   5.2523607
  46.7478180  52.8862429   4.3548426  46.0066366  52.2703791   5.5220389
  75.9958172  49.4358683  40.9115934  76.9045115  49.5652390  41.1831951
  76.0411453  48.7553215  40.2400017  29.1799617  64.6919441  16.6419363
  29.8759961  64.6768045  17.2988510  29.6295953  64.8929262  15.8211637
  24.3878365  58.9623928  57.6552296  24.1957760  58.1394243  58.1047440
  24.2522669  58.7662554  56.7282009  39.3813896  18.7134409   8.7301505
  40.2705145  18.3767855   8.6189926  38.8189983  17.9477692   8.6131287
  37.3479199   6.1589497  63.3788109  37.1586919   5.3464854  62.9094219
  36.9252419   6.8410546  62.8569794  58.5270882  53.6109495   5.4236758
  59.2395973  53.0913544   5.0514078  58.9578629  54.1972113   6.0457379
  61.7462826  46.6598320  45.6614351  60.8211851  46.4648628  45.8111429
  61.9589710  46.2020683  44.8481417  62.1780682  19.8261726  56.0411215
  62.0414352  19.2466986  56.7906380  62.0688486  19.2596543  55.2773428
  37.0553851  59.3283463  29.4103026  37.0506978  58.5183907  28.9002204
  36.4072323  59.8860741  28.9801049  78.2117558  43.3441639  58.8152361
  77.3924828  43.4276342  58.3273268  78.1799889  44.0514040  59.4594669
  43.6478901  14.7169542   5.3641194  42.7664852  15.0480449   5.1916790
  43.5074472  13.8570046   5.7603455  32.3903561  22.5749779   9.4313931
  31.9161463  22.1002388  10.1140213  32.7949858  21.8894267   8.8998622
  64.4564724  10.8657551   8.4591848  64.5348787  10.5219150   7.5693208
  65.1254272  11.5483558   8.5120064   2.6669264  77.6480198  20.9138751
   2.7893874  78.3446121  20.2688980   2.9705012  78.0286169  21.7380238
  64.9385118  76.6895247  29.0319419  64.1228962  77.1897650  29.0596151
  65.0655794  76.3886213  29.9316859  27.2560954  36.4738584   6.7541742
  26.7605567  37.1745014   6.3301820  27.0545840  36.5675426   7.6852214
  31.9767356  18.2935512  66.6428804  31.8261790  19.2343640  66.7347193
  32.3375440  18.0251229  67.4878645  61.1572456  75.6812525  30.2571011
  61.6779566  75.4218149  29.4969821  61.1079168  76.6354322  30.1992512
  51.9574042  49.3566051  68.5516526  52.8937122  49.2915949  68.7396202
  51.5325495  48.9538798  69.3089788  48.3608770   8.1237918   6.6878909
  49.2360449   7.7816355   6.5055525  48.2308006   7.9630679   7.6224917
  43.2280254  22.2556663  29.7234559  43.6387777  22.4232650  30.5716467
  42.7973032  21.4074349  29.8293567  27.3269892  24.5996499  -0.0540169
  27.2271323  25.0863957   0.7641139  27.1835399  23.6857843   0.1919543
  53.5834122  11.7022634  59.9257374  52.8588295  11.9642425  59.3577719
  54.0154600  10.9923649  59.4507551  76.0480356  56.1694860  61.5991640
  75.2733421  56.2092543  62.1599674  76.1848640  55.2346373  61.4456654
  57.1178722  55.0347424  42.0970392  56.9235086  55.6352901  41.3774538
  56.6161871  54.2456102  41.8925619  37.1204686  21.7961717  17.2359145
  37.0974612  21.1445642  16.5351212  36.7596412  21.3419104  17.9972839
  56.6567421  45.1010895  45.3475666  56.8622732  44.3859911  44.7453785
  55.7109737  45.0377035  45.4807472  38.5311174  34.2580128   2.1226704
  38.4941149  33.4690690   1.5819015  37.7118444  34.7159123   1.9346412
   9.6583343  69.8247862  55.3914165  10.2938116  69.5964813  56.0698557
  10.1639330  70.3191376  54.7462702  41.0184193  50.3650999   7.7123868
  41.7789555  50.9013605   7.9365379  41.3785744  49.4921160   7.5561333
  15.4355371  70.4841948  24.5325375  15.5591917  70.8962393  25.3876185
  16.3186193  70.2427721  24.2530537  43.2749653  77.9721737  55.2605963
  43.8838482  77.2425890  55.3754997  43.7667608  78.6166954  54.7517109
  35.7821608  15.9499121  34.3870926  36.0468411  15.1207209  34.7853637
  34.8294020  15.9658527  34.4778180  42.6902103  21.8427086   9.1799176
  42.6728392  22.7913284   9.0532166  42.2260857  21.4910603   8.4202039
  60.8563185  25.8291912  17.4112880  60.9656382  24.8870039  17.5399840
  59.9345064  25.9333372  17.1753776  84.5999121  47.1505356  64.9474382
  84.0289415  47.3641491  64.2094707  84.0818892  46.5520382  65.4856586
   2.2144270  76.5166950   1.7826536   1.4224719  76.2579107   2.2538969
   2.6630688  77.1159315   2.3791961  56.3243914  26.1228228  55.2566862
  57.2396755  26.0292101  54.9926376  56.0250044  25.2258539  55.4051685
  22.7411628   1.5141921   5.7908756  22.5704885   0.6118555   6.0608590
  23.4226990   1.4395016   5.1229233  74.0796471  50.0464439  33.9719248
  73.6214781  49.2747402  34.3047762  74.9544239  49.7280693  33.7491345
  67.8780127   5.9345913  62.1142006  68.6979961   6.3224697  62.4198341
  67.3605251   5.8105606  62.9098463  71.9536114  34.3339872  48.7792015
  72.3369455  34.5438361  49.6308184  71.4260674  33.5516810  48.9402294
  29.3927765  24.8977304   7.1346545  29.0994477  25.7665539   6.8601793
  29.6166348  24.4514370   6.3179904  27.0540428  37.6765776  26.9722056
  26.7630434  38.4288096  26.4567471  26.4517903  37.6482630  27.7156591
  76.6268826  27.9593182  46.7407703  77.2652245  28.6205411  47.0082283
  76.6286039  27.3220420  47.4549866  45.2842331  65.2569675  57.5023270
  45.3736353  64.6538591  58.2402277  44.7762251  64.7689199  56.8542814
  62.1214390  77.0628119  39.3628788  62.0611238  77.7361012  40.0405836
  61.4228630  77.2807837  38.7458634  57.8284597  48.1298256  51.6836691
  57.6218700  47.7375698  52.5320148  57.4595499  49.0117884  51.7313862
  65.9476566  29.0998816  22.5661111  66.6472530  29.1808772  23.2143688
  66.2734890  28.4515595  21.9418192   3.7394574  51.4079189  64.4643307
   2.9285812  51.7186117  64.0616131   3.5351971  50.5209351  64.7605944
  80.1698303  41.6016912   0.4190211  80.8077812  42.3083496   0.3196091
  79.4727850  41.9817543   0.9537322  58.6361408  29.9524117  13.4848416
  58.9032936  30.7478070  13.0241811  57.8956556  29.6193075  12.9779375
  58.1991959  68.7647009  35.5355239  59.1155958  68.4882307  35.5365825
  57.7025414  67.9479027  35.5846190  54.6777248  14.8247945  13.1814778
  54.2358923  13.9881909  13.0361784  55.5507755  14.7025204  12.8085637
  75.0531197  58.2575274  48.3679152  74.1493893  58.1037378  48.6433315
  75.0847578  59.1915226  48.1608391  81.2459087  64.6528101   8.9040434
  80.7851219  63.8138247   8.9010888  81.0596848  65.0313759   8.0448365
  35.9530497  17.9326379   0.6466623  36.5747356  17.5281012   0.0416074
  35.3757048  18.4507871   0.0859266  62.6008654  55.0495768  23.5964942
  63.2828999  54.4282103  23.3416224  61.8882656  54.8902321  22.9775882
  65.6518364  12.4672282  26.1864305  64.9578476  11.8901706  26.5052009
  65.6711292  12.3190391  25.2409673  20.9787130  35.4299688   3.6767933
  21.0388684  34.5490503   4.0463802  21.8291354  35.5741858   3.2618013
  10.4330361  72.3388815  59.1134405  11.1971807  71.9744205  59.5600748
   9.9591130  71.5740538  58.7868452  61.4438534  50.6681585  58.6553144
  60.5072546  50.6128120  58.8449097  61.8629122  50.2061987  59.3814087
   8.3306569  42.3799706  52.8873205   9.0193123  41.7852736  52.5901365
   8.7667412  42.9572678  53.5140562  30.3516269   7.2901320  47.4572182
  29.4977117   7.7101916  47.3541975  30.7477999   7.3363060  46.5870762
   4.2427945  59.2778254  42.7616215   4.0741464  58.5726881  42.1366644
   5.1726669  59.1936350  42.9725266  59.6852160  71.7511797  36.9321156
  60.0398540  71.6537142  36.0483956  59.9271345  72.6405191  37.1905422
  28.3100653  14.0508664  29.3013740  28.1539941  13.5901308  30.1257491
  29.1564274  14.4808722  29.4238305  37.6098084   8.8658094  68.3224010
  37.9425192   8.4613419  69.1236162  37.9945636   8.3481312  67.6151514
  60.5833387  51.2777472  37.0679498  60.6263304  51.6097164  36.1711884
  60.1020575  50.4535294  36.9954157  16.2971890  44.5041180  27.1579432
  17.1665967  44.6309948  26.7781234  15.9809017  45.3903103  27.3335981
  10.4562926  40.0160933   2.4139343   9.7499919  39.7094655   1.8452936
  10.4008985  39.4558001   3.1880370  53.3733177  16.1664629  15.2920306
  53.7924528  15.8981335  14.4743776  52.4355268  16.0848451  15.1184845
   9.8674572  78.7784624  44.5558691  10.4591429  79.3963814  44.9851799
  10.1242292  78.8020229  43.6340523  29.1021967  27.9212642   8.3438432
  30.0474429  28.0667591   8.3834958  28.9136076  27.8251553   7.4103391
  78.7881279  33.7095928   4.9870193  78.8942432  32.8867412   4.5096448
  79.2974377  33.5889482   5.7884437  10.5439389  48.8895464   5.7247323
  11.0564494  48.6964512   6.5097666  10.7662129  49.7955894   5.5104423
  61.7731476   6.8914133  14.2459464  61.9897461   5.9637129  14.3391693
  61.2864876   7.1049178  15.0420666  39.6277785   1.5071213   4.0244430
  40.2386332   1.3493070   4.7442913  39.7844887   0.7859451   3.4148705
  46.1639023  56.4861488  57.5639486  47.0032072  56.3454580  57.1257639
  46.2188053  57.3785400  57.9057932   8.6469579  79.0160513  63.3193398
   8.8634795  79.9226665  63.5370493   9.4069052  78.5118723  63.6100531
   8.8344485  16.6241443  14.2840421   9.2626035  15.8563364  13.9053798
   9.5558882  17.1989059  14.5397878  48.4590912  79.5718384  40.9692669
  47.9251003  80.1846790  41.4747429  48.3083677  78.7231350  41.3854551
  61.6551208  19.2768955  23.3740520  61.4948988  19.0853143  24.2980957
  62.1323538  20.1066184  23.3807206  76.8599129  69.3393993  29.9968147
  76.4486456  69.1827726  30.8468485  77.2672796  70.2012873  30.0830150
  43.1408882   8.5781968   3.0727339  43.9222765   8.4733415   3.6155730
  43.0160046   7.7213925   2.6646635  53.9539814  71.9252539  54.6009159
  54.2573452  72.0750475  53.7055016  53.3101845  72.6167488  54.7545195
   2.8536931  75.0187635  46.0577583   3.0512041  75.1573515  46.9840479
   1.9765767  74.6355009  46.0546207  73.8916445  23.8250875  66.5124464
  74.3686581  24.2023945  65.7733059  73.1426573  24.4079924  66.6368055
  80.2638411  58.1979396   0.0362599  80.8104348  57.9773607   0.7904542
  80.4890418  57.5414481  -0.6229341  67.1939325   6.3438857  68.5708809
  66.4801359   6.0045898  68.0308867  66.7566109   6.7404187  69.3243694
  58.4759903  55.4856348  61.2526846  58.8522720  55.3571081  62.1233845
  58.3553410  56.4325094  61.1812878  29.2901778  56.5857697  33.6096478
  29.2911124  56.2992334  34.5229530  28.5601187  57.2022200  33.5527730
  26.7789745  27.6306224  24.4215465  26.9908524  26.7644691  24.7695708
  27.6168156  27.9767990  24.1142797  26.3515973  76.6700411  55.6673717
  26.4480352  77.2932148  54.9472427  25.5847096  76.9785547  56.1500025
  19.2970395  23.1440234   4.2573729  19.2697632  22.1974063   4.3966690
  19.0220773  23.2603073   3.3479199  45.4951382  46.7791748  52.4249840
  44.8744249  47.4987936  52.5393963  45.6200218  46.7188835  51.4778852
  62.1070242  41.5602636  64.5536089  62.8185892  41.4900684  63.9172316
  62.4929333  41.2642145  65.3780270  18.1077993  70.4766226  62.8314543
  17.7780271  70.9979963  62.0995712  18.9899325  70.2189827  62.5636959
  18.8580883  31.5963936  10.7087743  18.3178294  32.1419287  11.2803900
  19.1166580  30.8564854  11.2582350  56.8429089  60.3577042  59.0424585
  56.2986279  61.1269522  58.8743734  56.4208937  59.6535254  58.5502529
  18.0356336  39.6667099  65.4034424  17.6965988  38.8978744  64.9449921
  18.4314656  39.3148923  66.2007999  71.6610193  56.6724443  60.8996010
  71.0628510  57.2655535  61.3541842  71.1941051  55.8373547  60.8704424
  16.0771620   4.0400812  39.4749737  16.6192019   3.8758975  38.7033081
  15.3791976   3.3872944  39.4206929  70.8751869  36.8775249   3.0364650
  71.3479567  37.6866102   2.8412661  69.9527693  37.1049762   2.9196632
  27.5414658  27.9697466  20.9830070  26.8651605  27.3072553  21.1242390
  28.3369875  27.5812888  21.3469815  83.9694118  39.0398455  58.3433676
  84.0096283  38.1135607  58.5812950  83.0419159  39.2030859  58.1720829
   4.2053667  52.8720140  47.2305965   4.8448595  52.4857616  47.8290033
   3.7170044  53.4934855  47.7705097  83.6519432  24.8378015   5.8143800
  82.7521038  24.7611570   5.4971212  84.1453266  25.1596189   5.0598985
  63.8117504  37.3891926  52.3122835  63.4977293  37.3952484  51.4080763
  64.7462511  37.5843263  52.2425985  43.2778692  19.1115117  20.4802513
  42.5082541  18.5686493  20.6511855  43.4243202  19.0294814  19.5378828
  69.0315390   1.2408837  69.0309525  69.5679951   1.6879459  68.3762884
  68.9652014   0.3407846  68.7121201  21.1996102  66.6872025   3.4483284
  20.4387903  67.2565365   3.5633892  21.6252685  67.0135641   2.6555270
  19.2482328  36.9314790   5.2960920  19.4072688  36.5373611   6.1537695
  19.8834455  36.5099120   4.7172850  52.9900599   2.2462350  25.3289533
  52.4179173   1.7820317  25.9400201  52.5363016   3.0709994  25.1554608
  32.9883885   7.7314848   1.4029010  32.5807166   7.8732586   2.2572646
  32.2755599   7.8488714   0.7749458   3.3738664  63.8079357   3.0969375
   2.9240072  63.2332802   3.7163147   3.3112037  63.3515739   2.2578669
  39.0647125  69.0992880  53.7167597  39.8701501  68.7290144  53.3556557
  38.9232087  68.6164951  54.5310831  41.5934134  63.9715290  61.6721773
  41.7004490  63.4429598  62.4629927  41.8140507  64.8614216  61.9472027
  54.8535299   4.7898519  57.1358967  54.8019266   4.6014798  58.0729580
  55.7741594   4.6505395  56.9139290  31.6273117  22.2883582  52.3980618
  31.5238619  21.8293905  53.2316542  31.1248231  23.0959654  52.5053358
  13.4098685  58.5811186  60.0058174  12.6675618  58.2744837  59.4850636
  13.9237928  59.1144466  59.3994570  67.5464439  29.7344780   6.6182846
  67.9876089  29.0225959   6.1547911  68.0746651  29.8719096   7.4046212
  48.8072157  56.4311028  67.4722004  48.9844942  55.7531548  66.8201351
  49.2288971  57.2159910  67.1223927  75.7513189  60.7288980  50.6944275
  75.9117222  59.8584652  51.0589123  75.2769566  60.5636787  49.8796177
  18.0049431   0.7926819  25.2706695  17.8013563   0.2725881  24.4933105
  18.5287154   0.2086754  25.8191490  74.0118074  72.1046066   6.2194824
  74.7486830  71.4979649   6.1471444  73.6147308  72.1040583   5.3485280
  49.1821623  31.0061479  55.6284428  48.3111238  30.7615447  55.9410000
  49.5960140  30.1745224  55.3974485  76.5071630   1.1701696  59.8299074
  76.1007452   0.5161601  59.2612886  77.1798801   1.5772606  59.2840528
  22.5717616  70.4164124  16.9124579  22.9920244  70.3954649  17.7722096
  22.9503655  71.1814737  16.4793694   4.0555036  71.8113184  61.3491869
   4.9559772  71.4948797  61.2767458   3.7047151  71.7408371  60.4613733
  78.1055832  71.9938183  62.6716566  78.8750839  71.5543652  63.0335808
  77.9189777  72.6990986  63.2913256  77.8966522  27.9399562  26.4258647
  77.6724100  27.6448607  27.3083997  77.8202677  27.1545553  25.8840656
  80.2462959  47.0475864  51.7800760  81.1659241  46.9125891  51.5513754
  79.7591829  46.6053963  51.0847950  13.0408537   1.1436577  26.8431830
  12.2927237   1.6271649  26.4928198  12.8829896   1.1088853  27.7866340
   9.9626666   8.5441005  59.7487307   9.0145719   8.5787082  59.6216440
  10.1659524   7.6093137  59.7815895  79.5600653  35.3977299  54.3292236
  79.0495014  34.7274017  54.7833347  80.4565239  35.0622821  54.3371010
  53.7670994  49.3340683  52.7216625  54.6529770  49.6887541  52.7968454
  53.6113834  49.2764282  51.7789745  26.4227200  50.1817417  21.0041261
  26.6586924  49.2574739  21.0833931  27.2329521  50.6532383  21.1976337
  52.0737839  58.5569906  29.1019344  52.5149584  57.9784918  28.4798956
  51.1890316  58.1992149  29.1757298  64.9369431   7.6060367   3.9234263
  64.8952341   6.6542363   4.0159884  65.7673359   7.7669406   3.4753278
  77.6676321  58.7073183  50.7128525  78.0721188  59.5732498  50.6601191
  77.5948524  58.4211111  49.8023462  26.1752653   0.0851555  50.4386902
  25.3582215   0.5657312  50.5717945  26.3505483   0.1657813  49.5011377
  82.3360443  26.0890675  21.5021348  82.8332329  25.2772951  21.6024423
  81.9063950  26.0031772  20.6511021  50.7811403  23.1648016   4.4396865
  50.0516415  23.4539604   4.9878195  51.0493422  23.9507890   3.9637381
  52.4373817  35.6477451   3.8213921  52.8826714  36.4855623   3.9479446
  51.5883732  35.8819723   3.4464946  36.3621521  27.0971942   9.3112844
  35.9903812  27.5943279   8.5826731  35.8651948  27.3861217  10.0766492
  16.7729723  74.4245052  58.1313419  16.0325372  73.8378191  58.2855749
  17.3503351  73.9330196  57.5471067  55.2380180  14.3425357  66.5804052
  55.8255816  13.6437368  66.8679476  54.4919538  14.2890823  67.1777010
  26.6609073   5.6218839  28.0438638  26.9209123   5.8137250  28.9448762
  26.0105515   4.9243253  28.1256127  24.5448208  29.6445489  65.4700422
  24.6178722  29.9829030  66.3624620  23.9807630  30.2739501  65.0206804
  11.1429608  55.4576540  40.9825420  10.8657825  55.3837013  40.0693417
  10.4055631  55.1118374  41.4854145  12.0147872  74.3269491  55.0910282
  12.4440551  74.1020107  55.9164715  11.0793447  74.2981243  55.2919006
  56.0025167  53.9009094   4.8813701  55.6605530  54.2343760   5.7108825
  56.9535398  53.9259005   4.9870011  81.2610245   4.5300677  47.1422052
  81.7188072   5.2627981  47.5542355  80.3489780   4.8159814  47.0906639
  15.5100822  78.7192440   7.1297902  15.2999854  79.0825415   6.2694967
  15.3077924  79.4251585   7.7437890  14.0730929  62.4654961  67.5658035
  14.1645813  63.1238842  66.8770456  13.1383586  62.2596836  67.5777674
  10.9464490  79.3471241  35.2633548  10.7666624  79.0635633  34.3669724
  10.4276466  80.1443005  35.3709936  14.6219289  48.7771940  42.5422573
  15.2801716  49.2465019  43.0547953  15.0553691  47.9641628  42.2827482
  80.7817936  77.1631050  63.7267828  80.5099106  78.0790710  63.6691713
  80.2755547  76.7197323  63.0460691  47.3333788   4.5096108  35.3977966
  46.5046835   4.3010741  34.9665093  47.2642565   5.4398835  35.6123805
  60.2944040  39.3353558  11.6194797  59.5387840  38.8646102  11.9711387
  60.3805494  40.1046658  12.1824801  66.2628794  65.9237289  68.0238104
  66.9847965  65.3279829  67.8234291  66.6381645  66.5577984  68.6348343
  31.1659932  23.5449982  31.7011404  30.9672165  24.4751620  31.5938354
  30.6684732  23.2815099  32.4752712  56.7580700  47.2906828   9.3213105
  56.1258507  47.4900055   8.6307997  56.7548180  46.3353205   9.3805331
  45.3057146   5.9342903  23.2533669  45.1977634   5.2356982  22.6079607
  44.5249653   6.4783788  23.1502485  16.4657199  77.8041553  16.3667989
  17.4153399  77.8352070  16.2506580  16.2660158  76.8725538  16.4588130
  78.5050440  62.2906685  64.0481043  78.2633877  61.9036531  63.2066441
  77.6829815  62.3344946  64.5364904  59.5765066  48.0261564   6.0816681
  59.1703653  48.7990093   5.6892645  60.5061150  48.2470465   6.1388141
  34.3661475   2.1668559  39.1835308  33.4274483   1.9800246  39.1706181
  34.5149326   2.5878987  40.0301838  38.4539318  64.7970247  62.2899199
  39.0114188  64.2548132  61.7318439  37.6876569  64.2510033  62.4657583
  26.5808272  56.4239407  65.1022387  26.7400527  55.8853912  65.8773804
  27.2914076  57.0652628  65.1060820  25.4310250  23.6338329  33.2693791
  25.6191683  22.6967740  33.2168794  24.6738791  23.6938357  33.8519263
  70.6617260  11.7208791  49.0923452  69.8455334  11.2244129  49.1522121
  70.4130125  12.6182628  49.3138790  12.4582028  67.7713490  50.0793457
  12.5457752  68.0223370  50.9988928  12.4700296  66.8142843  50.0901318
  62.3612261  32.1383047  59.9153471  61.8463612  31.5193677  59.3976021
  62.1335125  32.9967594  59.5583677  27.7039266  19.0372789  29.3913984
  28.1465697  18.7087882  30.1739550  27.9527307  18.4236932  28.7001395
  73.1617594  60.5012465  57.0128345  74.0096092  60.3136015  57.4155378
  73.3738756  61.0285664  56.2426567  70.5054712  26.6387439  44.6974373
  70.2633953  25.7145333  44.6385336  70.3625011  26.8656898  45.6162882
  77.0615768  69.5042229  62.3023796  77.3619890  70.3825665  62.5358152
  77.8182077  68.9410734  62.4654865  54.0668297  72.0483971  58.3509731
  54.8314667  71.7595673  57.8528452  54.2378473  71.7527580  59.2451668
  35.6735659  23.6400390  33.7520170  36.5648532  23.3155417  33.6234140
  35.6968474  24.0721178  34.6058321  22.1894693  40.7805490   6.3837045
  21.4054728  40.2322149   6.4139158  22.1837044  41.2527704   7.2162944
  16.5061426  49.6073961  44.6524382  17.0497644  49.2334175  45.3458691
  17.1327066  49.9693060  44.0258026  15.2053607   0.9869079  56.3232183
  14.2920029   0.7115780  56.4019871  15.3549683   1.0534773  55.3801298
  31.1714935  64.5206785  62.9128313  32.1265960  64.5774460  62.9409075
  30.9640574  63.7276649  63.4071350  59.8775053  74.8892832  66.3913155
  59.3135118  75.1202393  67.1294260  59.6339178  75.5065155  65.7014465
  26.6520071   2.8473309  32.0698857  26.2454438   2.1265689  31.5888047
  26.4688826   2.6549041  32.9894900  35.0773621   3.7995124  41.6810942
  34.3878341   3.8611513  42.3421431  35.8647394   3.5742283  42.1765900
  18.2171535  58.9676762  52.6187086  18.2654476  58.2823038  53.2851648
  18.2132399  58.4934139  51.7872667  65.6664801  22.3713064   7.4630326
  64.7236156  22.5269294   7.5180036  65.9880924  23.0544567   6.8747276
  65.6986856  12.7431810  51.0866642  66.4758253  13.2113087  50.7814741
  64.9700451  13.3287203  50.8806086  60.5707932  78.7966919  35.0231481
  60.2728796  79.5856905  34.5704246  60.6278563  78.1331635  34.3356133
  49.6333408  47.0213747  14.9093199  49.0144253  46.3188934  15.1085544
  50.0771236  46.7307663  14.1125524  35.5999136  17.6153553  43.1829977
  34.7874737  18.1141591  43.0971479  35.7378221  17.2313344  42.3171186
  48.9799404  18.1591976  61.9198370  48.0519485  18.3878875  61.8673134
  49.4378042  18.9957440  61.8374920  44.1397095  70.2386093  58.2254219
  43.8629532  70.8633804  57.5551271  43.7322044  69.4123745  57.9655933
  65.2174950  45.9290075  13.0505824  65.6009865  45.5724525  12.2493112
  65.2612162  45.2078819  13.6785173  36.1421132  17.2232902  56.0985041
  35.9994745  18.0114651  55.5744171  37.0767379  17.2385967  56.3045979
  64.0252066  14.0309942  47.1013689  63.8072968  14.5470119  47.8775597
  64.1312599  13.1380403  47.4294186   9.6624029  31.7831373   4.6758792
   9.8489523  31.7903399   5.6146973  10.1098228  31.0027266   4.3487605
  22.5942898  63.3415222  39.0437889  21.6891360  63.0309105  39.0226555
  22.5637245  64.1320229  39.5826888  60.1073456  10.8799243  42.0147276
  59.6677494  10.0705302  41.7542171  59.8207331  11.5264535  41.3696814
  15.5862093  16.5438366  49.4913530  14.8799717  16.3695908  50.1135254
  16.0814917  15.7255042  49.4558859  18.2038617  19.5897150   4.3408936
  18.2614756  18.8379014   3.7512428  19.0117717  19.5548868   4.8530468
  16.9285798  67.9017591  42.5530100  16.3641298  68.5882664  42.9084444
  17.8110814  68.1516218  42.8268528  40.8050537  14.6586931  34.1954422
  41.5160131  14.3755889  33.6204457  40.0081205  14.3686712  33.7515759
  69.7909403  38.6303306   6.8600816  69.4954062  37.7594566   7.1255481
  69.0248728  39.0271640   6.4454788  81.2780285  33.4449100  68.0577278
  80.9316063  32.7093649  67.5525522  80.5849552  34.1043830  68.0266190
  12.4035275  52.4543476  56.3283348  11.7420971  51.9462729  55.8586550
  12.8124726  51.8245077  56.9218826  62.6571608  11.9690430  55.1529026
  62.0024395  11.4132297  54.7302389  63.4581041  11.8202281  54.6503353
   5.7436007  58.0689430  64.1596794   5.9639424  57.1925449  63.8440800
   6.3129538  58.6537600  63.6596203  22.4177384  76.3741732  57.0436764
  22.1520638  77.0518494  56.4220619  23.2326746  76.7032337  57.4229288
  64.5063448  66.2414932  12.4901342  63.6006927  66.5245533  12.3640311
  64.4351482  65.4213333  12.9784977  49.1015387   8.3237088  63.2927322
  49.1827536   8.2617533  64.2444658  49.9657345   8.0785513  62.9621363
  21.0234857  17.0838523  30.2910829  20.4086900  16.8963623  31.0003829
  21.0162711  16.2926102  29.7524595  14.6655023  52.3398638  62.3769665
  14.8400760  52.8872013  61.6113424  13.9035547  52.7443075  62.7918053
  39.5291042  67.5134563  31.0406780  40.3713846  67.6929808  30.6228685
  39.7172260  66.8164062  31.6691375  44.9284363  69.8045254  32.7146864
  44.0886545  70.2184248  32.9139090  45.1188803  70.0700665  31.8149924
  81.2091446  17.5310338   7.0983100  81.6606712  18.0116677   7.7920997
  80.9803867  18.2001603   6.4531964   5.6742656  65.1562595  39.3623376
   6.5309787  64.8531246  39.0616989   5.8419323  66.0256052  39.7261381
  41.3823986  78.6862135  44.2023373  41.4826393  78.1235409  44.9701786
  40.8230257  79.4028568  44.5019388  82.2743607  68.1632757  40.3884649
  82.6510429  68.5819197  39.6144652  82.5502396  68.7173462  41.1186218
  48.0607033   1.7042901  39.9142480  47.1677160   1.9521230  40.1537895
  48.0319691   0.7506725  39.8366618  64.6561289  65.2387762  38.9462137
  65.2155256  65.2563667  39.7227454  65.2340555  65.4986095  38.2287717
  26.4501786   1.5163721  55.2423811  26.6018748   0.7957581  54.6308804
  26.3977647   2.2944690  54.6873617  80.2331924  34.2527986  15.8196366
  79.6582031  34.9366546  15.4761863  80.7532883  33.9759779  15.0652456
  58.5929251  67.9213047  11.0334134  58.1841612  67.9545736  11.8983042
  58.2335091  68.6774302  10.5693853  34.4591594   8.6938328  47.9277420
  35.4046011   8.7849492  48.0463457  34.0986967   9.5286036  48.2268333
  14.1544139   2.4574506   9.3799931  14.3391275   1.7307067   9.9749345
  15.0158799   2.7421328   9.0749300  42.3376608  76.7735672  42.0167017
  41.8048620  77.0575953  41.2739468  41.7673635  76.8855286  42.7772665
  30.7801604  12.1298933  24.4192338  30.4353929  11.3285792  24.0251994
  30.0019073  12.6267278  24.6716404  59.8909092   8.7735772  47.9229641
  59.7087765   8.8259017  48.8612175  59.4214725   7.9921293  47.6310682
  17.8213489  77.5969696  42.8302813  16.8807173  77.6845503  42.9844666
  18.2274246  78.1080675  43.5303640  58.5278845  72.0825577  51.3637733
  57.8753042  71.7936325  50.7258940  59.3690252  71.8772125  50.9556723
  79.8073053  64.7022915  54.4629478  79.8659849  63.7743425  54.6903229
  80.7023907  65.0286198  54.5554399  61.0814333  46.5763092  52.2043228
  62.0092535  46.3800573  52.0744562  60.8883142  47.2576380  51.5603304
  53.7076092  53.6505127  61.7878962  53.0756521  53.0531740  61.3878345
  53.1697035  54.3039083  62.2350645  34.3036532  63.0501080  59.3698311
  35.0833869  62.5209284  59.2018509  33.8441849  63.0727911  58.5304213
  16.8411148  73.4016037  62.2811937  17.0574307  73.1521654  63.1796455
  17.5868630  73.9276886  61.9925261  49.7703457  59.6057844  40.4044199
  48.9791012  59.4387054  40.9165239  49.7220373  60.5364132  40.1857233
  10.3951895  29.1932559   3.5422814  10.2266121  28.2932949   3.8213542
  11.3477230  29.2806506   3.5779890   8.1977081  71.9716978  42.3271942
   8.3716351  72.7888823  42.7942991   7.2839868  71.7702246  42.5290775
  66.4353848  72.2499275  54.5509720  67.2633219  71.7771149  54.4661331
  66.4111280  72.8290319  53.7892103  50.3557348  13.8037395  30.1676083
  49.3991375  13.7844276  30.1956463  50.6076002  14.3154418  30.9363461
   8.8117564  78.2618570  41.1314487   9.3911272  78.6281681  40.4633379
   8.3602619  77.5430965  40.6889915  39.9911499  10.5679905  29.3418527
  40.5113792   9.8202497  29.0477896  39.1139054  10.3995252  28.9979100
  43.5010576  53.1416130   4.8928604  42.6871109  52.7635765   5.2257401
  44.1694689  52.4869490   5.0950503  61.0864782  32.2903419   5.2973175
  60.5334902  31.6509700   4.8482728  61.9305801  31.8498182   5.3956139
  56.5856934  32.9554129   8.9469677  56.0548449  32.8014183   8.1654811
  57.0064783  32.1133423   9.1204339  18.6906838  79.2207623  26.2613750
  19.0399063  78.4047508  26.6197062  18.6473274  79.8128700  27.0122123
  70.8244038  22.8745699  67.5009060  70.0546741  23.2571435  67.0797348
  71.3865948  22.6063156  66.7741251  14.3367755  76.6475773  52.6206160
  14.7679615  77.4980736  52.7040577  14.6335435  76.3104963  51.7753124
  16.0176778   7.8683323  36.5524244  15.1914597   8.0717731  36.1140108
  16.4348423   8.7197000  36.6842508   6.7229724  19.4564676  40.8164692
   7.5401068  19.8205280  41.1570311   6.0415137  20.0330853  41.1619520
  83.1219959  78.9178467  28.4403110  83.8949013  79.0360594  27.8881574
  82.7395153  78.0921650  28.1433511  21.4427423  78.6134672  55.8961773
  21.6097689  79.5349932  55.6983709  20.4884958  78.5384274  55.8998489
  66.5701151  58.2423353  57.1280289  66.9287062  58.1452084  56.2458658
  67.0217466  59.0059471  57.4874210  40.3992796  78.5798597  54.2114401
  41.1075306  78.8210011  54.8084831  39.5992804  78.8149977  54.6814871
  72.9786873  40.2736616  19.0090322  72.9478788  39.8617363  18.1455517
  72.7237892  41.1825037  18.8500690  24.8266602  74.3706751   3.0015919
  25.4116368  73.8275290   3.5298210  25.4130220  74.9425173   2.5062078
  15.2043712  72.7545547  60.2656078  15.5585504  72.7678442  61.1547756
  14.8854268  73.6454773  60.1214981   8.3342677  33.0544019  65.0212097
   8.2195908  32.2010493  65.4393816   8.3885247  32.8575110  64.0860510
  13.3671212  63.5529327  62.6188374  14.1853893  63.8626051  62.2305441
  13.6023641  62.7311563  63.0496264   7.0563722  39.3448687  35.6784892
   7.6757419  38.6592436  35.4284239   7.2956020  40.0942659  35.1331401
   8.6650550  31.4701319  57.5293350   8.4555167  32.0208406  58.2836866
   9.5589429  31.1695361  57.6931667  28.6190915  72.7118921  28.8903928
  28.9884853  73.3462191  28.2760549  28.9494300  72.9865265  29.7457767
  45.7663584  75.2851868  61.8673229  46.5244770  75.7433176  61.5045500
  46.1347914  74.6971798  62.5266695  61.1614656  59.0739298   9.1648155
  60.8969069  59.7419453   9.7972649  61.9967413  59.3887329   8.8192105
  75.1913261  52.1208382  50.5077600  75.9640789  51.6632795  50.1765156
  75.4272604  53.0477333  50.4699421  67.8551626  59.3918419   4.9340683
  67.2996616  59.6339035   4.1930839  68.5580158  60.0416136   4.9288157
   5.5723423  79.0059757  60.3029013   5.8519489  78.3048820  60.8915567
   4.8536640  79.4357252  60.7666349  17.4122250  73.1095314  51.1419582
  18.3456933  73.0420732  50.9411669  17.0437908  73.5989809  50.4064798
  47.5529528   9.6743107  23.1926417  46.9681740   9.4997931  22.4552059
  48.0086946  10.4807127  22.9512954  50.1169205  34.0722370   5.3962153
  50.4647064  34.7580886   5.9662032  50.5298662  34.2335916   4.5478797
   6.8226659  70.4815006  35.6249142   6.4643842  71.2311172  36.1002398
   7.7414268  70.4460049  35.8910918   4.1065282   4.7402388  49.1537380
   4.3577251   4.3637756  48.3102894   4.5972115   5.5604661  49.2055893
  77.2710752  17.2987998  61.2293530  76.5804482  16.6618621  61.0461187
  77.7094936  16.9589531  62.0094395   5.6796944  60.7385063  49.0440369
   6.3004714  60.5637312  49.7513723   5.1884413  59.9224520  48.9494133
   3.2828549  46.6168404  10.7464552   2.6967007  46.6439867  11.5027082
   2.8318328  47.1290970  10.0753343   8.1230456   3.2694054  33.2466578
   8.4744012   2.3804602  33.2972312   8.5942787   3.6720657  32.5172496
  28.2521987  35.2811909  26.9647479  27.8459382  36.1462092  27.0188642
  27.5322390  34.6921396  26.7391181  18.6605501  11.0337114  31.1283898
  18.4318173  11.9627106  31.1579466  18.6518633  10.7556522  32.0442724
  33.2493210   4.1286308  59.9962711  32.4113560   3.6704648  60.0605726
  33.2402873   4.5231539  59.1242075  44.7925997  68.3779383  45.1616192
  44.3093109  67.6577806  44.7566032  44.5638609  69.1449976  44.6367073
  68.2325220  32.5171733  13.3142698  69.1786861  32.4917364  13.4569418
  67.9079103  33.1342292  13.9700925  40.4094028  72.7722168   5.4393607
  39.4735837  72.5727320   5.4132169  40.8191919  72.0642328   4.9423087
  11.4944363  18.4650016  15.1706576  11.2667799  18.5960531  14.2502058
  10.8532548  18.9872801  15.6526768  52.8893328   7.5040781  48.4487677
  52.0767641   7.2010803  48.0436087  52.9781246   8.4116548  48.1578159
  29.8800087  32.5688291  27.6079583  29.0411544  33.0298567  27.6054335
  30.0786161  32.4278474  26.6822648   0.7927245  55.4354477   3.4165776
   0.8638947  54.7526932   4.0836710   0.1681290  56.0624409   3.7812561
  13.1057763  64.8878288  12.2734547  13.0752194  64.3474579  11.4839637
  13.2046378  65.7824421  11.9476950  44.8829222  42.2501135  10.2016032
  44.2572546  42.2860956   9.4780862  45.4934549  42.9661369  10.0261259
   0.0805078  18.7918580  39.2732048   0.9828079  18.4785414  39.2106032
   0.0909352  19.6416211  38.8327217  53.5593700  51.5885830   6.0218906
  53.4977579  52.0954609   5.2122533  52.9691124  50.8474016   5.8859533
  20.7410955  26.7915773   9.6864390  20.9333062  27.6409507   9.2891347
  21.4964843  26.2470531   9.4648260  41.0876036   6.3571227  57.1008587
  41.2115192   5.4383498  56.8626690  41.7077112   6.8334210  56.5487385
  71.0981321  59.4744110  19.9045205  71.5945292  60.0271606  20.5080843
  71.5470600  59.5732641  19.0649235  13.1401348  69.0946388  67.8104782
  12.7729607  68.6718893  67.0341396  14.0152645  68.7167740  67.8976536
  65.5465412  13.1304991  64.2797613  64.6788597  13.3555663  63.9440441
  66.1501074  13.4151423  63.5935259  71.2456179   1.9221941  42.5921440
  70.9954166   2.8264961  42.4027538  70.8655643   1.4135091  41.8758869
  44.3116426   3.5286295  52.4297237  44.2153931   4.0153947  51.6111708
  44.9112511   4.0588892  52.9546309  28.3898807   4.1775012  35.3154922
  28.9560676   3.9560810  36.0548401  28.6601400   3.5788924  34.6191740
  81.8328190  77.5277996  52.9437780  81.8535137  78.1729698  52.2369862
  81.1817360  76.8850470  52.6623726  14.0457428  18.0849898  41.5525723
  13.0905163  18.1031299  41.4938736  14.3412805  18.0640781  40.6423759
  25.1423311  67.9139090  42.5716352  25.4883623  68.7916279  42.4100685
  25.0645494  67.8586960  43.5240698  81.3281631  56.3410616   1.7911647
  82.0532513  55.9580755   1.2974069  81.6505241  56.3897133   2.6911366
  65.3198576  36.0988450  27.3086739  65.5435085  35.3763032  26.7220354
  65.8289576  35.9300351  28.1014872  19.3881357  58.0320835  42.5985384
  19.5137239  57.3763418  43.2844400  20.2709150  58.3462381  42.4029970
  59.5072126  11.0548842  68.9525938  59.5546770  10.1429832  68.6655140
  60.0194836  11.5372562  68.3036566  43.8778448  26.8077135  45.1346493
  43.7804747  26.6411710  44.1970921  44.1798210  25.9743071  45.4958630
   0.8877292   5.4367214  58.6120892   0.8034447   5.6103271  59.5496368
   0.8617498   4.4824499  58.5419273   9.3699008  78.0284882  55.3209257
  10.3233755  77.9604626  55.2710247   9.2125285  78.7264490  55.9567881
  22.9784560  18.9103842  34.1536808  22.7671528  18.8940966  35.0871253
  23.8255501  18.4689367  34.0921283  28.3280349  16.2798285   1.5087771
  27.8743458  17.1154833   1.6186692  27.7363729  15.7551849   0.9694107
  58.2146311  65.4590940   7.8922975  57.8089857  65.3080177   7.0385635
  58.1394958  64.6191549   8.3451688  46.4099836  69.6268559  66.8530416
  47.0597649  70.2259827  67.2205496  45.6315660  69.7560501  67.3948956
  34.2438674   8.7154174  56.7814493  34.4050932   7.7925146  56.9776344
  33.9023089   8.7140822  55.8872652  66.0307837  18.2860482  44.5492077
  65.8777428  17.3674774  44.7706509  65.1550722  18.6690056  44.4972467
  47.8818512  38.5844493  59.2613697  47.9989815  37.8620386  58.6444139
  48.4409761  39.2829537  58.9212227  76.5629625  50.5835199  61.8934822
  76.1383629  50.2773237  61.0921144  77.3594904  50.0567293  61.9588137
  44.3028927  15.8275497  54.0630674  45.0947618  16.1801434  53.6570454
  44.5586348  15.6439030  54.9670029  65.6420088  36.3654375  56.2194395
  66.0313416  36.1754370  57.0729923  65.2858400  37.2492719  56.3100481
  43.2605791   5.2341282  43.2587671  43.6828852   5.2477002  42.3998690
  42.3254061   5.1702094  43.0648708  74.8583031  52.5344992  32.5176883
  74.2123604  53.1811380  32.2333431  74.3858385  51.9816971  33.1401157
  46.2081671   1.4313485  64.5200634  46.4296103   0.5044729  64.4300795
  45.7767630   1.4928894  65.3723145  12.2869420  43.6370993   5.3961766
  12.2375119  44.0781355   4.5480731  12.1581781  44.3359852   6.0374367
  62.4193764  26.7918158  54.6304131  62.7195597  26.0355067  55.1345158
  61.5154982  26.9261217  54.9153709  10.1074433  35.6290579  10.6013036
   9.3302554  36.0198975  11.0006213  10.5667460  35.2114058  11.3298917
  73.5730171  28.2809758  46.9129658  73.5983038  29.1908860  47.2090340
  74.4859600  27.9946208  46.9407129  48.9769030   9.0277588  42.3183584
  49.8011732   9.1207713  41.8406963  48.3014441   9.2389673  41.6738605
  26.0270739  24.2462158  40.7880163  26.0347605  23.8583732  41.6630936
  26.7728710  24.8462248  40.7854080  66.1705351  20.7994509  62.3978996
  67.0548868  20.4658270  62.5490618  65.7329130  20.1040888  61.9067860
  68.9027739  55.6964111  20.0304246  69.2119503  54.8321104  19.7590864
  68.8939238  56.2117290  19.2238235  18.8593888   5.9245735  59.7095346
  19.7616494   6.0680526  59.4239330  18.7647653   4.9724022  59.7349882
  12.2053981  66.1178255  27.9809618  12.1416605  65.1738453  27.8358006
  12.4506831  66.2024450  28.9023232  44.8218489  17.6003754  50.1829481
  45.0037813  18.3110964  49.5681238  44.2326212  17.9883003  50.8299112
  56.6859007   4.0266347  61.7372894  56.8454266   3.2837534  62.3194456
  57.5227261   4.4902757  61.7058086  15.8984947  41.2628269  20.9099698
  15.9954655  40.3924179  20.5236816  16.2343454  41.8602085  20.2417111
  16.5460682   6.3641775  24.7685242  17.1638668   7.0251077  24.4559097
  17.0687711   5.7966721  25.3350496  65.7794114  53.6810902  68.6825609
  65.1736208  53.2038906  69.2495970  66.4125844  53.0213883  68.3995106
  33.8613844  16.9550800  50.5590820  33.8893819  16.1488044  51.0742235
  34.0992951  17.6440763  51.1794996   1.1718428  47.8571558  60.1009560
   1.5015572  46.9687128  59.9660873   1.8612692  48.4236479  59.7545338
  44.9551392  16.9509327  65.3361320  44.4877291  16.4002264  64.7080517
  45.8807898  16.7824507  65.1600170  36.6520023  29.1803265  43.0467367
  37.0524597  28.7997150  42.2650719  36.7585397  30.1249528  42.9346561
  38.3246779  33.0202627  66.6590214  37.9376006  33.8110662  66.2834740
  37.9867911  32.9900289  67.5540924   5.0164068  46.9747639  54.7569561
   5.0132239  46.3346004  54.0453291   4.3397272  47.6065874  54.5137787
  71.9899511  44.5180798  49.7696066  72.2469091  44.7277212  48.8716888
  71.0329390  44.5280457  49.7533846  41.6076946   3.5177839  67.0005655
  41.4362288   3.2043210  66.1125469  40.8496046   4.0622383  67.2129250
  39.0491152  30.1619267  57.0971251  38.0981088  30.2055240  57.1967316
  39.2001390  29.3673778  56.5851545  29.8552728  10.6913543  29.1736436
  29.9672890   9.7703993  28.9380074  30.6481147  10.9116077  29.6626449
  72.8851366   8.5580713  57.3062849  72.8830576   9.2194980  57.9981947
  73.6702967   8.0372691  57.4751568  35.4607034  26.4064789  42.2098541
  35.6726456  25.6559420  41.6548681  34.7298956  26.8350220  41.7643166
  29.1659951  24.6931767  59.8943281  29.1540384  25.4867411  60.4294348
  28.8433623  24.9763227  59.0387774  16.7560196  64.1478682  64.9648714
  16.6142416  64.6723843  64.1768265  15.8875382  63.8142776  65.1900101
  67.4007750  43.3609533  43.3315277  67.1481562  43.3290434  44.2542362
  67.5819683  42.4497271  43.1011581  36.3699770  30.9539676  50.4248953
  36.8193460  31.7006540  50.0289679  35.6939244  30.7171369  49.7899961
  11.8839633  27.5178719  65.8446646  11.2547779  27.6180840  66.5590286
  12.0443356  26.5753984  65.7972002  30.7388830  30.8862567  13.9157069
  31.6710663  30.6868148  13.8291490  30.7013011  31.8417859  13.9579237
  16.8541193  65.5842161  59.2004585  15.9154046  65.4058504  59.1436195
  17.1268475  65.1728821  60.0206137  34.8815799  23.5363150  29.9530935
  34.1210914  23.2887292  30.4790139  34.5094705  23.8803077  29.1410351
  58.6662388  13.2934034  56.6892052  59.5207262  13.6632490  56.4671707
  58.6499596  13.2856834  57.6462364  63.7543631   2.3013528  56.9440413
  64.3975782   2.9809690  57.1456146  63.2223368   2.2324236  57.7367735
   6.7271173  74.2744875   1.3209839   6.3854301  73.4406996   0.9980589
   6.8379921  74.8086357   0.5344570  55.1185417  42.5884676  57.7058935
  54.5506859  43.2785273  58.0488014  55.6006908  43.0072975  56.9929123
  75.2006149  12.8848910  54.9458694  76.1038780  13.1936669  55.0166607
  74.7333479  13.6059988  54.5240927  18.7455344  29.5004082  46.2742662
  19.0868199  30.1631927  46.8746614  18.3666670  30.0029254  45.5530405
  52.0704937  17.3938870  63.6854124  52.0830488  16.5276825  63.2782698
  51.1819029  17.4838495  64.0297174  62.9331923  29.8464108  55.1001549
  63.7111092  29.6201253  55.6099319  62.5026369  29.0075946  54.9351025
  53.7969971  65.9202194  60.1754475  54.0769720  66.7792702  59.8594141
  53.6036110  65.4238129  59.3802023  70.0798798  73.2182837  46.9188881
  69.6959305  72.3415661  46.9052982  70.0009918  73.5283136  46.0167313
   2.6994178  64.4327354  43.0751848   2.7166459  64.3187428  44.0254164
   2.8637469  63.5568380  42.7258635   7.9347283  12.4181640  13.7382269
   8.6544913  11.9548750  14.1666389   8.0119985  13.3202708  14.0488148
  72.2019100  74.7142267   9.8332125  71.3164663  74.3660402   9.9380481
  72.6036835  74.6106625  10.6958139  51.1806965  11.1796534  29.6691871
  51.2629318  12.1267700  29.7807169  52.0118427  10.8278751  29.9880600
  55.1774216  21.5459895  56.7722178  55.7550478  21.9326448  57.4303055
  55.1086521  20.6253672  57.0251131  61.7493153   5.4563618  54.0035582
  61.8551826   4.5051196  54.0163231  61.5346289   5.6856161  54.9077606
  74.7359133  57.6349974  43.2063723  75.6134748  58.0156422  43.1713915
  74.7389030  57.0986748  43.9992094   0.4807419  57.3544598   6.3955808
   0.2026441  57.9861832   5.7323885   1.3973297  57.1750546   6.1860275
  45.9992361   7.6284969  11.6240060  45.3756714   7.5127095  12.3409390
  46.2463713   6.7378145  11.3753247  65.7501507  43.9338923  57.8653908
  66.4525175  43.3385944  57.6035976  65.7132530  44.5840120  57.1638107
  53.3303213   5.5489773  54.9498415  53.9600468   5.4130942  54.2418814
  53.7283707   5.1236564  55.7093763   8.5413760   8.3913761  53.9486980
   8.8864684   8.1152141  54.7977400   8.4211898   9.3370599  54.0351200
  50.8199739  36.5634108  52.5868893  51.2649441  36.2621522  53.3790255
  50.6559134  37.4933863  52.7433062  62.3457527  42.5807095  60.9723997
  62.8713799  42.0847416  61.6000700  62.9391098  43.2562208  60.6440163
  10.6925428  19.7022212  65.0589943   9.8783493  19.2028856  64.9958801
  10.7057393  20.2399230  64.2672062  14.9547970  77.4339294   2.9946756
  14.9948144  78.3774996   3.1505704  14.4292319  77.0936251   3.7186968
  14.8286951  39.6630645  62.1551800  14.9407482  40.2820587  61.4337063
  15.5440998  39.8657584  62.7579594  54.9685860  68.1678867  40.0434256
  55.4262018  67.9919052  39.2213249  55.2344847  69.0564346  40.2801037
  71.0375595   0.0795474  50.3478622  70.6896544   0.6067172  49.6286345
  70.4748726   0.2899999  51.0930586  62.3872566  38.3567166   4.7161213
  63.0009699  38.5155392   3.9989275  61.7589426  37.7290177   4.3591243
  80.1600552  43.4185171  41.4254904  80.3101158  44.3638706  41.4304447
  79.4529247  43.2849407  42.0566368  19.5888841  35.2635193   7.7104211
  20.2388215  34.5731211   7.8414184  18.9849973  35.1668096   8.4467638
   8.4059298  41.1345339  26.2084794   8.3999449  41.1096573  25.2516222
   8.0147225  41.9799709  26.4285421   4.7296143  19.5427847   6.0526657
   5.2710849  19.0933084   5.4038113   4.7320348  20.4584360   5.7737237
  13.5383201  56.6860867   4.6849465  13.3001018  56.8008661   5.6048971
  13.1305492  55.8573818   4.4335419  48.1462431   8.4311885  49.3682671
  48.6882496   8.4850103  48.5811472  47.8816271   9.3350792  49.5391226
  49.2222548  34.0238595  63.1612444  48.2948208  34.1153979  63.3796883
  49.5144844  33.2672119  63.6694956  57.0971298   1.6634855  63.4400988
  57.5448322   1.0835002  64.0560627  57.6168585   1.6083011  62.6381826
  73.7185907   0.1480459  39.0860128  74.0148497   0.2457585  38.1810737
  74.1532326   0.8581440  39.5583248   2.5237182   8.7864119  47.2290564
   3.1788421   9.1266578  47.8383827   2.6861286   7.8434038  47.2047615
  35.9568810  19.1571999  45.2648592  35.0052190  19.1778147  45.3655767
  36.1106396  18.5136819  44.5731401  24.0555549  51.7801142   3.5841289
  24.8586798  51.6507483   3.0796620  23.8166904  50.9028006   3.8832918
  19.6988750  74.7851372  21.4136553  18.9570665  74.7712612  20.8088732
  20.0639081  73.9015961  21.3652635   3.7643299  67.6862717  46.4632130
   4.3219027  67.2517347  47.1085978   4.2064792  67.5393391  45.6270599
  30.2068543  30.4352546  58.2931900  29.3504596  30.7846761  58.5396099
  30.5296278  31.0408378  57.6258707  35.6921673  32.3182845  13.0911934
  35.1336718  31.9054604  12.4324894  36.5391445  31.8830967  12.9938567
  61.2922430  69.6083879  32.5893807  61.0542440  70.4547405  32.9679036
  61.3175106  69.0104914  33.3364511   8.4435177  61.3873863  35.3942490
   8.4017175  60.4456043  35.2283239   7.6732165  61.5702248  35.9322429
  63.2169342  45.5117083   2.1868841  62.7902412  45.6556129   1.3422215
  63.6526251  44.6645021   2.0938736  80.4932117  11.0277390  50.9496737
  81.2971210  11.4199400  51.2904692  80.2237606  11.6116059  50.2406406
  67.5451183  13.9504135  45.2797318  68.0429029  13.7428415  44.4889402
  67.2196388  13.1042671  45.5868673  72.1224689  10.3370607  37.1854997
  72.7493858  10.7590997  37.7729416  71.7082453   9.6616143  37.7225518
  80.8845329  73.3850098  11.2511122  80.4675293  74.2384291  11.3695002
  81.5130234  73.5218048  10.5422318  67.8636885  22.0255256  45.6009960
  68.5449123  22.0936275  46.2699699  68.1722212  21.3349080  45.0144100
  19.2240381  11.9122612  33.9767480  18.4155655  12.3025739  34.3088031
  19.9090672  12.5333679  34.2241216  43.8345909  17.6813877  56.7615318
  43.6767054  17.3479569  57.6447773  44.7654390  17.5200891  56.6074705
  53.6611652  58.1000471  64.2756844  52.7939796  57.9307365  64.6438646
  53.5760784  58.9497995  63.8433504  55.0297022  69.2720222  43.0597496
  54.2598772  69.1492462  42.5042963  55.2152395  70.2096462  43.0080986
  71.6610765  40.4027987  63.0634594  72.2819567  39.7568727  62.7265310
  71.8478394  41.1977482  62.5640583  48.8163233  17.3925245  58.0027056
  49.6426773  17.7531564  58.3241367  48.9772940  17.2137117  57.0762396
  48.0118275  23.9653635  56.5631914  47.5353289  23.3322620  57.1001911
  48.9310217  23.7154126  56.6572142  26.7382360  73.6244726  42.2810650
  27.5459361  74.1186333  42.1408653  26.2257099  74.1680241  42.8794765
  22.9599071  15.8744812  10.0940037  22.6729703  16.7398703  10.3855526
  23.6564374  16.0533392   9.4622684  83.5661316  51.9536686  23.4838462
  83.2461452  51.9190836  24.3853140  83.5213375  52.8805780  23.2491875
  76.6800261  13.5573542  66.2258053  76.8512583  13.2789707  67.1254826
  76.2436295  14.4044816  66.3161612  61.8465137   8.7410063  60.4019260
  61.5666199   9.3413240  59.7109032  61.0596561   8.2404023  60.6175137
  58.5806179   2.0976929  41.1707783  59.2292595   2.7395853  40.8818722
  57.7588272   2.3953040  40.7804966  45.3303194  25.2933955  54.2433357
  45.4725122  24.9193525  53.3737946  46.0920095  25.8541608  54.3903255
  53.9731359  25.1837564  66.0598326  53.4337997  24.9397087  66.8120241
  53.3551359  25.5630779  65.4349947  82.9718685  59.5428896   2.4037744
  83.6576271  59.3534088   1.7634177  82.2822380  59.9711180   1.8965574
  79.5964193  45.0357103  11.5298533  80.2747917  44.3936872  11.7392516
  79.2211342  45.2728558  12.3778820   4.5836183  34.7517061   5.4389668
   5.2696824  35.0035071   4.8207882   3.9232284  35.4397678   5.3571856
  37.4651074  72.5366497   4.4258556  37.6362586  72.2249413   3.5371608
  37.7297950  73.4564209   4.4121981  46.6532516  23.3971047  33.5643578
  46.5855408  22.8364849  34.3372440  47.5660849  23.6850333  33.5565519
  14.0533090  49.3047380  25.5916739  13.5456407  49.4834280  24.8001099
  13.4075475  49.3165636  26.2981319  61.1182880  69.1516113  26.6266704
  61.9539928  69.0391731  27.0796466  61.2268257  69.9564934  26.1200953
  24.4112515  31.3033319  58.9549589  24.8539591  31.8330979  58.2919455
  24.2919636  30.4495692  58.5389185  59.2434454  22.5687575  48.6213064
  58.3526230  22.3868775  48.9206123  59.5922041  21.7126131  48.3730841
  70.4644251  55.5126762   5.0304276  70.5456734  56.3176155   5.5419999
  69.8420429  54.9776411   5.5229801   4.4409844   7.2483510  60.2247190
   5.2022088   6.8444985  59.8079777   4.5248255   7.0190042  61.1502457
   0.8506540  30.0410438  54.3411589   0.0009706  29.9942327  53.9028883
   1.4880842  30.0530457  53.6271763  80.5389595  15.7085264  46.5249968
  80.3676033  16.1674368  47.3473501  80.6060123  16.4048266  45.8716154
  13.6799860  49.9657440   5.4746103  13.1634843  50.6131172   4.9946427
  14.2094600  49.5360136   4.8028803  37.1498489  61.0279560  25.4739809
  37.3066258  61.9105387  25.1382756  36.5018272  61.1473894  26.1682701
  23.8836074  45.4028177  14.0373492  24.8020864  45.1665020  13.9077997
  23.5276604  44.6950293  14.5745361   6.5144771  27.1325874  35.2986550
   7.3427868  27.3318315  34.8622632   6.6941798  27.2714829  36.2285185
  57.6368093  36.1581087  49.3186378  58.5492325  36.1206746  49.0317392
  57.4877262  35.3183556  49.7531748  25.4840374  43.3378553  11.6025281
  25.2784944  43.9159632  10.8678329  26.0883760  42.6917410  11.2370956
  77.3740292   1.6792816  52.0610523  78.2035351   1.2231256  52.2027206
  77.5576687   2.5888205  52.2960997  11.2710190  17.6793706  49.4892502
  11.3974047  17.4510729  48.5683060  10.5072713  18.2563627  49.4903469
  62.0892668  14.0046918  17.7848613  62.8005600  13.4169209  18.0394697
  62.2605228  14.2032099  16.8642676  52.7269506  47.1497631  59.8592615
  52.3970079  47.8792906  60.3838205  53.6794043  47.2330666  59.9054432
  30.1219702  79.5681095  36.7951226  30.7226419  79.0424061  36.2668633
  30.6077909  79.7512484  37.5992799  28.3555365  77.7923775  46.6174555
  28.9579773  77.7164412  47.3574114  27.5031686  77.9612732  47.0189190
  45.7405043  70.5751133  14.9417841  45.2595663  69.9123144  15.4373872
  46.4534521  70.0916243  14.5244396  56.0218382   0.4239934  58.2760572
  55.2982950   0.9781433  58.5686970  56.3362980   0.8437167  57.4753237
  28.2003999  32.0206141  66.0179663  27.3257303  32.3255968  65.7767773
  28.5977101  31.7529964  65.1892567  46.8742752  32.7673745  52.9681826
  47.4250221  33.5317850  52.7991152  47.4899006  32.0804644  53.2239056
  61.8683767  12.2410929  62.9511929  61.0508442  12.6240373  62.6330376
  62.4384737  12.2208917  62.1825504  75.1993704  21.8595052  62.1627092
  75.6163979  21.0417032  61.8915606  75.0798988  21.7655802  63.1077671
  48.7081575  69.8450470  61.9442463  47.9219437  69.4777060  61.5403128
  48.4103251  70.1739645  62.7923870  77.2694349  32.1775603  51.1692095
  77.9761171  32.5193715  50.6214905  77.7175951  31.7436457  51.8952274
   6.1270100   1.9982050  18.8648760   6.8628657   2.4025044  19.3245387
   5.3517681   2.4170622  19.2387617  33.0294919  36.8180704   1.9841766
  32.7913260  37.1324849   1.1120228  32.2053003  36.5100098   2.3610555
  13.5738003  75.4857206  37.3657632  13.5157466  76.0263777  36.5780139
  14.5065701  75.4744911  37.5803494  60.2097225  35.8418345  56.1350775
  60.4244614  34.9348044  55.9173250  60.2446079  35.8733368  57.0911217
  48.3968782  52.6020241  13.0532074  48.7938309  53.3306694  13.5304236
  47.7522039  52.2403193  13.6613154  19.2418802  47.5876904  12.1916175
  19.5747590  48.0440664  11.4188647  19.6232963  46.7115831  12.1351886
  72.7800608  72.2402430   1.0132642  73.1074142  71.9981098   0.1469834
  72.2765350  73.0404949   0.8639608   7.6562506  34.4307804   3.3449465
   7.2054720  34.0281248   2.6027203   8.2600039  35.0579143   2.9469311
  82.9111290  54.9335241  10.0503969  83.6659241  54.3465519  10.0949609
  83.0650616  55.4626179   9.2677099  47.3082733  52.8230810  46.3157940
  47.3790503  53.6895180  45.9151506  48.1562042  52.4117613  46.1482859
  22.5760913  58.1197214   9.5846915  23.3091092  57.6255846   9.9517655
  22.0580268  58.3807659  10.3460693  69.0236712   8.3610362  60.5767775
  68.1782961   8.3928317  60.1289368  69.5468950   7.7502954  60.0576782
  78.9215899   2.6887563  37.2551990  78.2015944   2.2827658  36.7724872
  79.0182924   2.1490717  38.0398130  63.7011194  75.0933599  53.6911774
  63.9845133  75.2755308  54.5871305  63.5645390  75.9574986  53.3027935
  29.0397644  38.9903116   9.2193878  29.6415043  39.6301150   9.5999062
  28.8497138  39.3306637   8.3451611  17.3519123  46.2151670   4.7557130
  16.8352318  45.4823446   4.4206911  17.3780978  46.0767221   5.7024854
  30.6938958  20.7755351  47.9057217  30.4879880  20.4578948  48.7848949
  30.7865381  19.9812293  47.3796749  76.9261551   6.1181825  40.6900167
  77.3881912   6.4060229  39.9026775  76.0109711   6.0479480  40.4184675
  22.2653842  24.0142655  57.9030228  22.3641825  24.3167853  58.8057709
  22.1860313  24.8175478  57.3885584  23.4303308  61.0626030   1.6508377
  24.0311170  60.8306980   2.3590112  23.8877916  61.7476702   1.1633482
  26.6132307  63.2030249  37.6233506  26.8973470  62.3278332  37.3596334
  25.6991601  63.2525349  37.3436117  70.8323860  25.2934074  26.3876653
  71.7888021  25.2718711  26.4197874  70.6224775  25.2273512  25.4561043
  39.9507737  57.3659611  50.8487797  39.0030646  57.3206329  50.7221937
  40.2388811  56.4533520  50.8297205  36.8599534  22.5969124  23.9963603
  36.1661124  21.9630218  23.8147020  36.5469408  23.0824876  24.7595572
  62.3553991  70.8668566  66.5968704  62.4385357  71.6243744  67.1760845
  62.5975752  71.1986923  65.7323074   7.5752658  72.5873709  28.9691639
   7.7842754  72.5860119  28.0350614   7.8161049  71.7110872  29.2697620
  67.4339008  10.1639616  44.2659569  66.5779257  10.1062989  43.8414383
  67.2420788  10.4755890  45.1504469  32.6524162  12.0365059  67.8379679
  33.0162716  12.4279761  68.6320686  33.1973433  11.2656629  67.6795816
  68.9598942  39.3429494  50.7536793  69.6176481  39.0765619  50.1113176
  68.7254381  40.2357244  50.5002785   4.2157426  24.3412876  56.5653229
   5.0732422  24.7660565  56.5429783   3.9459899  24.3943524  57.4821901
  50.7406569  21.3391685  52.1120214  51.4533758  21.9758201  52.0577908
  50.8841133  20.7550406  51.3674068  66.5628958  53.8706446  65.0729513
  67.1253824  54.5551682  64.7106314  65.7040977  54.2851925  65.1556587
   9.4316500  27.8329062  29.8164439   9.8755807  26.9890475  29.7324324
   9.5842904  28.2683778  28.9778137  51.3510895  63.7835503  15.9881353
  52.1221924  63.7672806  15.4212427  51.6316080  63.3369446  16.7869365
  48.3738565  23.7564254  48.4501553  48.0130148  24.5900011  48.7521124
  49.2739105  23.9624310  48.1977892  47.6188755   7.5623000  53.3537292
  47.3060656   8.4660983  53.3146095  47.4108696   7.2751307  54.2428303
  16.1687231  74.5968246  23.5087705  16.8924141  74.7016335  24.1264415
  15.8723044  75.4899073  23.3333588  82.9808235   6.8088174  60.9823036
  83.1095886   7.2599399  60.1479530  83.6852741   6.1616319  61.0158730
  76.3784456  23.9849949  53.1824064  77.1919632  23.4882236  53.2698441
  76.5428352  24.5881057  52.4575138  44.8487091  76.0416985  50.6086636
  43.9173651  76.1874056  50.4425287  44.8810577  75.2060986  51.0744524
  77.7681160  18.1964278  41.8008614  77.0241547  17.6921451  42.1301842
  77.9864407  18.7952995  42.5149488  33.8960862  16.6863418  26.1208844
  33.0572104  16.7465186  25.6638336  34.5483923  16.6546965  25.4210782
  62.9227066  10.7125306  45.5611515  63.1921339   9.8475581  45.2521801
  63.3130503  10.7881403  46.4318657  80.9365749  42.1611261  10.6952763
  81.6751099  42.5954008  10.2684259  80.1920795  42.3324442  10.1185548
  72.0807886  43.0907631  39.6967316  72.5752878  42.2734547  39.6358514
  71.4023638  43.0107450  39.0262318  84.1404343  30.9398007  28.7059641
  84.4802570  30.2330136  28.1571460  83.2204151  31.0178399  28.4535336
  78.4105158  56.0576010   1.0891310  79.2716074  55.9459019   1.4919749
  78.3786249  56.9825029   0.8446515  69.0098095  64.6862411  67.7684736
  69.4787121  64.3963814  68.5509968  69.1881990  64.0077400  67.1172810
  35.2690029  76.2110281  53.3725691  34.6887136  75.9751606  54.0963507
  34.9930453  75.6464100  52.6505661  83.9341521   0.2202983  59.0609503
  83.5891080   0.6302399  59.8541212  83.3084130  -0.4754119  58.8592720
  62.6616335   0.1214077  63.8573694  62.0937109   0.2626263  64.6148396
  63.5350561   0.0049541  64.2312717  80.1245975  40.5273104  25.8850503
  79.6277475  40.8442163  26.6393352  81.0390091  40.5727196  26.1643529
  22.6345730  43.1321096  15.0091767  21.8260884  43.3032322  15.4921913
  23.2528234  42.8322983  15.6755936  80.9786797  20.0209498  56.5455389
  81.1107159  20.8606434  56.1054087  81.7148209  19.9507439  57.1533203
  42.4170971  15.3844595  41.0076284  42.6903486  14.5208609  40.6981754
  43.2333040  15.8767283  41.0954237  25.9628797  60.7767105  65.7834148
  25.5380368  61.3419008  65.1382017  26.6495347  60.3260517  65.2918434
  41.5070963  75.6414843  27.0745206  41.3430929  74.7257710  26.8491316
  40.9132624  76.1370134  26.5105677  75.1605034  11.1853349  30.9584904
  75.0677872  11.4612150  30.0466108  74.5848608  10.4247487  31.0383296
  78.9302778  35.1469398  68.0668688  78.0918026  35.4579592  67.7256012
  78.7222624  34.8016429  68.9350462  21.8530202  78.9834595  20.1398969
  21.1195135  79.0563583  20.7505417  22.5900149  78.7041378  20.6830812
  11.5566170  50.6629324  61.7360783  10.8393395  50.1921082  62.1604252
  11.8535912  51.2909460  62.3945856  61.6219997  20.4093719  48.2754421
  61.7616129  20.7109118  49.1731167  61.0612297  19.6389472  48.3660555
  18.9624786  43.6473322  39.4357705  19.3953502  43.5990524  38.5834074
  18.7104154  44.5664597  39.5246696  81.6730404  78.1045008  11.1296427
  81.4982986  78.5951853  11.9327140  81.6196156  78.7586212  10.4328620
  60.5333233  69.5858955  41.9230938  60.5118847  70.1454926  41.1468029
  61.3612890  69.8025799  42.3517561   8.9384282  51.4575005   7.7782935
   9.3705773  51.7901230   8.5649580   8.2325423  52.0818758   7.6106298
  65.7766199   7.8827238  21.8661714  66.0199451   7.0985365  22.3581815
  65.7213259   7.5876606  20.9572649  12.2520113  63.1952906  10.4255342
  12.7940822  62.5087547  10.8141971  11.3868093  62.7956438  10.3364277
  63.3832026   8.6040175  56.1167192  63.6383200   8.7375963  55.2038670
  64.1847134   8.3086365  56.5486431  79.8906517  18.7118852   4.7432011
  80.1804256  18.5930538   3.8386884  79.1382837  18.1269038   4.8324877
   7.7056277  72.1400213  55.8820772   7.4457300  72.0230103  56.7958593
   8.3336425  71.4361382  55.7196760  44.1180325  60.5612230  15.4058993
  44.4232845  61.0326290  16.1810315  44.4631147  59.6748734  15.5132794
  54.3307018  19.3456602  21.0152030  53.8929415  20.1581764  20.7614017
  54.9047613  19.5986164  21.7381811  16.7950344  17.6516831  15.7817364
  17.7413869  17.5653267  15.6668901  16.4248288  16.9351828  15.2661717
  46.5992785  27.4963284  61.0654354  47.3415804  26.8941689  61.0141993
  45.8335686  26.9267988  61.1399698  41.6362572  10.9250152  37.0872927
  41.1529541  10.2206814  36.6553640  42.2990847  11.1874211  36.4485145
  53.8248968  10.0830555  51.5355873  53.5833693   9.1616583  51.4411259
  54.7125340  10.0625312  51.8932295  68.2150841  17.5976110  21.3911486
  67.3907709  17.1656322  21.1672473  68.2421446  18.3696520  20.8259463
  65.3860092   2.5632325  34.6254325  64.9689436   2.2630049  35.4329896
  64.6570349   2.7404314  34.0309334  43.7839603  21.9154882  67.8638458
  43.8641882  21.7562652  68.8042927  44.5450258  21.4788961  67.4812222
  44.5448351  25.2501369  51.2891483  45.4065704  25.3978682  50.8995056
  43.9763880  25.8921218  50.8637619  40.5523968  30.2633905  49.4729042
  40.5003166  30.9735799  50.1125574  39.8190975  29.6887851  49.6927547
  34.8045206   7.0593494  34.6610117  35.1199985   6.8664736  33.7781143
  33.8760543   7.2610718  34.5448494  52.4790287  29.6287704  48.1663990
  52.3775816  29.1849184  47.3244143  52.9416800  28.9964509  48.7162685
   9.9466175  17.7679789  59.4634295  10.6347823  17.1405435  59.2421007
   9.2217386  17.2275174  59.7775698   1.4615536  61.7571688   8.9120740
   0.7974749  61.2114096   9.3332362   0.9688073  62.4864531   8.5358113
  43.5218716  12.9311359  40.2738142  43.8251448  12.3492372  40.9707022
  44.3042469  13.1068754  39.7511005  39.5101833   0.8091896  32.5238156
  39.0280581   1.6299413  32.4230456  39.1075778   0.2155433  31.8899989
  14.2186773  79.2251205  24.4853854  14.4330633  80.1577187  24.4624019
  14.6037376  78.8710213  23.6837792  75.5528021   3.9592263  66.8061781
  75.0643301   3.1742862  66.5581942  74.9693871   4.6846926  66.5835667
  62.6427746  30.9948730  66.7646933  62.1618795  30.3578258  66.2363577
  62.1287870  31.0764885  67.5680494  61.6674328  22.2088861  68.0011654
  62.5835419  22.2357368  67.7250290  61.2224674  21.7215419  67.3078156
   0.6765649  33.1736326  50.2560186   0.5748563  34.1013026  50.0431490
  -0.2141725  32.8238511  50.2342892  76.1726904  10.6975687  42.9144478
  76.7838383  11.2840819  43.3602476  75.3474331  10.8076024  43.3867550
  80.7398033  34.3835592   7.0778859  81.2026310  34.2099571   6.2582016
  80.8534527  35.3228760   7.2228098  42.2008419   8.6245328  21.1525893
  42.9919243   9.1097015  21.3871670  42.2645712   7.8083009  21.6485071
  57.5290489   3.6520690  52.6421547  58.0530310   2.8655130  52.7938271
  56.8593645   3.3766961  52.0161152  68.9022923   1.5838681  37.7826333
  67.9855156   1.8291821  37.9074097  68.9339733   1.2171409  36.8990397
  65.2200365  52.1252203   1.3195696  64.6591759  52.8879452   1.1784294
  64.6104002  51.3923502   1.4060450  45.7278967  40.4439688  48.2590532
  46.6836882  40.4959154  48.2578850  45.4394293  41.3419533  48.4222841
  28.3114600  73.8425398  46.1608267  28.2257557  72.8908682  46.1041975
  27.9724503  74.0623331  47.0285797   0.8099416  48.2092857  27.2363758
   0.2156076  47.4733925  27.3828697   1.3379714  47.9444361  26.4831996
  43.0999279  26.1643291  58.5428143  42.9695749  25.2168012  58.5049820
  43.8029289  26.3346076  57.9158974  41.4268970  27.8624964   0.4887022
  41.5127230  28.8002849   0.6602237  41.4106512  27.7941132  -0.4659138
  71.1044884  47.1619320  48.0009460  71.0217190  46.4096928  47.4148369
  70.2153397  47.3156929  48.3203268  35.0887346  17.0359766   7.8767765
  34.4349813  17.5487137   7.4014455  34.9218607  17.2309566   8.7989306
  24.1379976   0.1612859  62.6406860  24.2415762  -0.0219428  61.7069149
  23.5820746   0.9398836  62.6717615  19.2650318  18.6738753  54.8631907
  18.7072420  18.6762726  54.0853119  19.3589270  19.5982146  55.0934410
  54.9373865  62.1666098  34.7970724  54.1373110  61.7234564  34.5147252
  55.0759792  62.8509188  34.1422820  36.2310719   1.4963630  30.5417633
  36.0221028   0.6122380  30.2402902  36.2670088   2.0201021  29.7413659
  20.4502416  51.4002848  21.0339594  19.5682871  51.6453505  20.7540822
  20.3111959  50.7426405  21.7154288  65.2896881  33.6737967  58.4113455
  64.7865486  33.5112119  59.2092514  65.4875422  34.6098995  58.4395266
  66.4175272  39.3991327  59.0616369  66.3774204  39.9152017  59.8668003
  67.2817612  39.5904541  58.6973190  52.6439047  17.0988047   8.7649810
  52.3208809  16.3694477   9.2940623  52.5389481  16.8035269   7.8605324
  73.4412813  50.8601856  58.0619860  73.8938570  51.5221739  58.5846472
  73.2648993  51.2936974  57.2270060   1.3737166  66.3418436   1.7839299
   2.2754133  66.4905262   2.0686534   1.0786670  67.1956062   1.4672793
  53.7649870  20.2917242  53.7269354  53.5844660  20.5323815  52.8182364
  54.7034311  20.1038361  53.7430382  78.6707783  21.6085005  47.8154612
  78.5573292  21.9326186  48.7089443  77.9637671  22.0211625  47.3193979
  59.5165873  76.3648462  49.9963093  58.9334726  76.7311716  49.3314695
  59.0466738  76.4879036  50.8210945  14.7339773  37.6089144  44.3574095
  13.9950204  37.2374368  43.8755608  14.7905874  38.5133410  44.0491247
  46.4105320  13.3461523  19.2050993  46.9546843  14.1300809  19.2798328
  46.3210583  13.2056701  18.2625020  21.6860366   1.2183511  39.7671700
  21.0508013   1.7323932  39.2687058  21.4283323   1.3399954  40.6809664
  33.9299130   7.1120960  15.9249818  34.8068309   6.9523162  16.2738621
  33.9290142   8.0414367  15.6957293  43.5716677  30.4861641  13.3083224
  43.9934540  30.1963758  14.1172421  43.1125450  31.2898779  13.5522234
  17.5050998  28.1881833  10.5689597  17.0238996  27.5568891  10.0340331
  16.9188702  28.9419460  10.6353378  27.0586491   6.5044355   0.2523087
  27.9933286   6.3340563   0.3688324  26.6875911   5.6538874   0.0175416
  31.0600471  69.9595690  20.1735115  30.2706623  70.3705788  20.5258870
  30.7526588  69.4598055  19.4172156  35.5794501  26.4443421   2.9382524
  35.8590627  25.7633495   3.5500515  36.1105990  27.2064638   3.1690830
  52.2021580  20.7185531  45.1670074  53.0979013  21.0324359  45.0431013
  51.9787931  20.9784007  46.0607767  53.1984711  23.4143281  48.6816406
  52.9328823  23.5647941  49.5888615  54.0453100  23.8537240  48.6039686
   0.4297797  56.7760134  37.3651505   1.0751688  56.3513899  37.9303026
   0.9284846  57.4396753  36.8886185  63.2441616  72.0709944  31.9085693
  63.1143332  71.1591959  32.1693420  62.3794031  72.4713516  31.9987559
  47.1603012  55.5618286  60.7154751  47.6356173  56.3700056  60.5227137
  46.9368029  55.6309748  61.6436434  22.2112179  23.6812115  51.7199850
  21.4699721  23.1923604  52.0774889  22.8552103  23.0095553  51.4955282
  12.2000146  75.9751034   0.3093556  12.6205671  76.3705444  -0.4541872
  12.5125957  75.0703907   0.3132311   1.0397791  14.8793697  55.2844000
   0.3336000  15.2130723  55.8377409   1.4346509  14.1752160  55.7986736
  20.1752853  47.4346447  66.6576529  19.5784009  48.1004143  66.3160229
  20.3285956  47.6939535  67.5662184  49.1717482  46.6138840  49.4997549
  48.5956717  46.7652607  48.7504482  48.8062143  47.1586370  50.1967955
  58.8768721  19.7005439  61.2869358  58.4959364  19.7463703  60.4099989
  58.7987518  18.7791252  61.5341520  60.2167749  11.9248843  58.5879230
  60.5535460  11.2186193  58.0365515  60.9348631  12.5561416  58.6337233
   7.7133495  57.0335197  12.0819032   8.5913354  56.6524982  12.0959508
   7.8513807  57.9604721  12.2766721  68.4287453  24.7185493  59.2139339
  68.5466003  25.6546879  59.3751431  69.2260075  24.4521260  58.7560892
  31.3508606   2.0475978  36.1158276  32.0188141   2.7330413  36.1312437
  31.4600658   1.6258813  35.2635002  78.4796286  50.8785295  30.1345038
  78.3912945  50.5069876  29.2567873  77.9052114  50.3419018  30.6806731
  74.0121317  48.3608389  45.4393578  73.6137295  48.3104944  44.5704651
  74.3134546  47.4697781  45.6166840  55.6872559   9.7668254  65.1885271
  54.7705650   9.8515797  64.9263620  56.1486816  10.4180408  64.6601009
  77.4555969  44.9734783  40.2312565  77.1908665  44.2783070  40.8336544
  77.3746777  44.5808649  39.3620372  82.0371056  37.9441905  54.7846699
  82.3805332  37.8131509  53.9008617  81.5580273  38.7713981  54.7352648
  79.0409470  63.6963558  45.0328970  79.5680189  64.2193747  44.4288397
  78.5148573  63.1328678  44.4654989  50.6709003   9.3248224   0.0798622
  50.5868769   9.7799861   0.9177152  51.3559437   9.8046058  -0.3857094
  58.1216431  34.5807409  54.5175171  57.8570938  34.0609312  55.2764893
  58.6244535  33.9734221  53.9747620   2.0992269  52.5703478  62.8320980
   2.2651426  53.5040379  62.7019644   1.2944213  52.3996305  62.3428392
  64.3359518  49.0136337  27.2885656  65.1937008  48.7278891  27.6029706
  63.8569593  48.2007313  27.1273351  11.3769627  22.8582335  47.9781818
  12.1422815  22.9569912  48.5445404  10.8247733  23.6113596  48.1882286
  40.0404263  18.9291942   3.0268160  39.9100423  18.6493027   3.9328471
  40.4852915  19.7736859   3.0986777  16.1905622  69.2241049   4.5502251
  16.7878723  69.8934841   4.2164755  16.4208114  69.1373682   5.4752624
  13.8262832  12.9579949  20.7565093  13.4722948  13.7378597  20.3290319
  14.7717750  13.0183673  20.6200099  52.3660135  19.1077149  56.0644197
  53.3180714  19.2001295  56.0287809  52.0565271  19.5005381  55.2482414
  54.0703917  64.1279316  23.3595514  53.9801979  63.3298254  22.8388572
  53.2247782  64.5678329  23.2720542  44.1858912  26.4234543  61.3575315
  44.3118620  25.4752517  61.3932133  43.3572960  26.5722990  61.8130589
  25.0381351  51.2776041  16.1224115  25.4065514  51.3861322  16.9991791
  25.5328107  50.5512714  15.7429755   5.4760253  29.7593904  41.7734528
   5.0149590  29.3506718  42.5059795   6.2963796  29.2710495  41.7043543
  75.2376652  27.9402971  59.0162039  74.7222185  28.6543584  58.6411476
  74.6137094  27.2213221  59.1161394  45.7317114  58.7555599   8.5667217
  45.5311155  58.2652664   7.7694720  44.8850727  58.8658810   8.9994639
  67.5282955  41.5391159  35.5490875  66.5954828  41.3472176  35.6453824
  67.6593304  42.3464108  36.0464120   5.1814777  55.6731224  19.6430862
   4.3345714  55.8059311  20.0689316   4.9985397  55.7751322  18.7090850
  73.9156818  54.1402245  63.9587498  73.9602518  54.9651527  63.4752798
  74.0259171  53.4643793  63.2899380  50.4805803  22.6389647  41.5693903
  50.0995684  23.5146070  41.5037537  50.0915432  22.1533394  40.8420324
  72.7067614  38.0462885  21.4521384  72.9093456  37.1113634  21.4188838
  71.9316769  38.1432343  20.8989024  67.0754242  66.8440151  38.3854604
  66.3939714  66.8620253  37.7134991  67.8445721  66.4922953  37.9372001
  12.3815989  62.5755978  52.2630596  12.5216484  61.8712616  52.8959322
  11.4526236  62.5160742  52.0401382  59.3130732  41.6927147  12.8709030
  59.6107006  42.2861242  13.5604787  59.4308519  42.1887302  12.0607603
  37.4157310  67.3753643  45.3907442  36.7748356  67.9404259  45.8222342
  37.6247454  66.7077827  46.0441017  59.6848774  62.0941448  47.2017813
  59.3442392  61.3057137  46.7792034  59.1114569  62.7967691  46.8956089
  58.2104921  49.1371489  54.9091768  58.3894587  49.7754049  55.5997086
  58.6621904  48.3428431  55.1942682  80.1959705  16.6011691  49.1302538
  79.4782639  17.0716894  49.5542097  80.7714462  16.3429797  49.8502493
  49.0315104  20.5466914  56.4257336  48.1325865  20.3457117  56.1654043
  49.5742178  20.1128507  55.7673407  75.8528519  38.4538221  38.1670189
  75.0608110  38.9730978  38.3057785  76.2198019  38.7904596  37.3495483
  16.5095687  38.7759304  20.1817751  16.5288913  37.9967618  20.7374334
  16.2116945  38.4556031  19.3303680  61.8388033  28.1098008  18.8077521
  62.1195650  27.6922369  19.6220291  61.6670561  27.3808599  18.2116151
  14.4955742  25.2242661  62.5759268  15.2315998  25.5798483  62.0778704
  14.8367882  24.4194460  62.9658890  68.9690399  36.6787076  52.9542923
  69.7088242  36.8564677  53.5351086  69.3546963  36.6442466  52.0789003
  49.1461563  70.5206537  32.7624869  48.7760973  70.0677252  33.5202098
  49.7133970  69.8703671  32.3482442  73.5202789  41.5669346  44.6850967
  73.1556273  40.6942272  44.8322010  72.7646255  42.1059561  44.4512558
  26.1925697  78.8166857  47.5815773  26.8682790  79.4837189  47.7028847
  25.6201005  78.9145231  48.3424568  66.7641354  19.8840415  33.3499646
  67.5541019  19.8300350  32.8121305  66.8395996  20.7240057  33.8027310
  81.1870289  41.2773514   3.6957166  81.3781643  41.4622450   2.7761984
  80.2674007  41.5203762   3.8027510  52.6766348  31.7106676  51.9901896
  51.8865347  31.6660285  52.5286913  52.3585367  31.9385290  51.1166191
  28.2860398  23.5869122  49.4415140  27.6971769  22.8672147  49.6684647
  28.7228298  23.8074994  50.2641821   1.1226541  40.9185743  29.9349451
   1.6307478  41.6153240  29.5194793   1.7398456  40.4953098  30.5317330
  50.2607250  25.4585099  18.1979728  50.7395840  24.9321628  17.5577509
  50.2731037  24.9326253  18.9976752  53.1772566  68.8359833  22.0535088
  53.2880926  69.7441149  21.7720056  52.2555113  68.7736654  22.3039651
  68.1999588  53.6793995  36.0509515  67.6038408  52.9414082  36.1783695
  68.9760590  53.4515285  36.5627885  54.6664190  47.8094912  34.6717954
  54.3912506  48.7262344  34.6618056  54.7405100  47.5715780  33.7475991
  22.6125503  12.9884923   2.7145961  21.7396855  13.1149280   3.0865520
  22.9584169  13.8747084   2.6086268  72.6581287  49.2624378  28.0654931
  71.9179964  49.8209238  28.3032584  72.4683332  48.4224749  28.4834337
  60.3077650  68.3132410  39.2252111  60.2874804  69.2695713  39.2605972
  61.2392426  68.0941534  39.2011881  17.2096562  76.4674759  68.0245590
  17.5104284  75.8587122  68.6992216  16.9622254  77.2563744  68.5068989
  41.5627289  39.7208762  45.1253462  41.7282677  39.8037219  46.0644770
  41.3622236  38.7935638  44.9983740  83.4139442  29.4863653  64.2573595
  83.2289886  29.7014856  65.1715517  82.6259995  29.7537994  63.7842369
  77.5904179  33.8438320  55.4503441  76.9237280  34.0649438  54.8000622
  77.1353102  33.9047885  56.2902164  64.3386889  20.0467730  51.5996647
  65.1880169  20.2499151  51.2077332  64.1762352  20.7687545  52.2067738
   3.1541044  11.5725780  43.8625574   4.0336126  11.9275868  43.7334585
   2.6805279  11.8101442  43.0653620  81.2316799  78.7299919  18.2344878
  82.0656490  78.4339476  18.5992968  81.2733936  78.4833670  17.3105454
   9.5498812  24.1217065  36.1586380   8.7523770  23.6606359  35.8985758
   9.2517126  24.7815847  36.7846465  66.4422035  45.1709890  41.6272593
  65.7569551  44.8165131  41.0606813  66.7177773  44.4276524  42.1636772
  78.7514925  71.0500240  34.6224022  78.8306475  70.7661867  33.7116861
  78.5594702  71.9860554  34.5657182  21.8781281  36.5207744  60.9513140
  21.7236543  37.3308420  60.4653502  22.3037910  36.8043137  61.7604160
  12.8024757  43.1590319  23.5172629  12.7334666  43.1391096  24.4717646
  13.2155228  44.0007401  23.3245063  57.5959206  58.5301828  49.4965839
  58.5380745  58.3742714  49.4312668  57.3980236  59.1121817  48.7628651
  40.0117111  13.1051195  36.4345503  40.4178858  13.7010181  35.8051395
  40.5543661  12.3172331  36.4030504  60.5990887  17.8368330  37.7606440
  60.2001953  18.6885917  37.9384780  59.9254560  17.3516953  37.2841024
  44.3310642  39.7578764  63.7777996  45.1471090  39.8989868  64.2577887
  44.3842077  40.3574467  63.0335426  68.7208462  41.1889458  33.0044842
  68.8303041  40.2388525  33.0441141  68.3136559  41.4181805  33.8398743
  29.0270662  69.9903822  11.8264592  29.1109538  69.7240496  10.9108925
  29.8304200  69.6766758  12.2417223  64.3192101  54.6891737  42.2965479
  63.5501528  54.3220711  42.7324677  64.3681002  54.2213392  41.4628983
  64.1940737  43.2761097  25.6763172  64.3896103  42.4078608  25.3239751
  64.8276377  43.3957481  26.3837862  78.6567879   3.6116502   0.3897472
  78.3130550   3.7857714  -0.4864730  79.0837383   4.4290292   0.6463356
  32.6458788  44.3909407   3.0163863  32.1428061  45.0677776   2.5635698
  33.5447478  44.7199774   3.0158758  47.7824494  49.0898827  69.1814892
  48.2966992  48.4403017  68.7020891  47.7037319  49.8272148  68.5761984
  18.1144917  50.2027750  18.1262100  18.2767045  50.6094027  18.9774287
  18.7940550  50.5619907  17.5557804   4.2221537   8.7929893  54.2202568
   3.4356314   8.8388801  53.6766529   3.8908124   8.7288302  55.1159859
  81.2384415  60.2588129  26.5803647  80.5814075  60.8814716  26.8915558
  81.6413021  59.9168396  27.3784781  14.2681146  64.5643663  58.8842535
  13.5624433  64.3686199  59.5006514  13.8185596  64.8286819  58.0815887
  71.1332417  44.7784042  21.1309934  71.9266558  44.5102596  21.5944862
  70.4570055  44.8027086  21.8080068  41.7513275  35.6332588  15.6320691
  41.0303688  36.0185170  15.1340532  41.8788719  34.7695684  15.2396357
   4.8470101  52.6899147   8.7302786   5.6322151  53.0710173   8.3372831
   4.3603119  53.4410477   9.0696257  69.3340635  44.3106604  58.9941692
  68.9179468  43.6172056  58.4821129  69.8938370  44.7684574  58.3670235
   3.4969050  34.1999030  13.0989492   2.6471907  34.0353942  12.6901031
   4.1043994  33.6311460  12.6259828   6.3174683  17.1135998  53.1222820
   5.5988675  17.3792982  52.5484800   6.0623944  16.2475336  53.4402370
  56.2621832  13.6992741  19.9635291  56.6385460  14.5380652  19.6970439
  56.9578171  13.2728243  20.4639959  81.2987518  66.1085463  16.4698601
  80.7498169  65.7782507  15.7586598  81.8190384  65.3525019  16.7417622
  75.6929064  30.3064680  55.0542641  75.2284288  30.6845093  55.8009720
  75.5809021  29.3613124  55.1560736  69.4262171  37.6939321  64.1970062
  69.8922920  37.7306581  63.3617496  69.1223764  36.7885756  64.2621326
  71.8733215  55.2631283  51.1933374  71.0902357  54.7252798  51.3105392
  72.0136452  55.6712532  52.0477247  71.9982767  14.6025717  48.9852762
  72.9320908  14.6390402  48.7781763  71.5627623  14.6296978  48.1333256
  61.0128784  71.7153597  10.3210914  60.0979519  71.9961023  10.3030849
  61.1984682  71.4458704   9.4215560  78.9986992  29.6871448  64.5310354
  78.4113121  29.3851376  63.8382149  79.0921021  28.9320850  65.1118898
  15.5814755  45.2116776  60.7082462  14.8378980  44.6502447  60.9276104
  15.2028894  45.9157133  60.1817131  54.3768120  71.7891979  38.4548330
  53.4567404  71.6169024  38.2548141  54.5918131  71.1660147  39.1488457
  55.3631210  12.6216078  41.0733986  56.1456919  12.1610355  41.3761950
  55.6493378  13.5271704  40.9539461  51.6096592  27.3229480  57.9423141
  52.2281647  27.7044630  57.3193073  52.0402813  26.5250659  58.2492065
   2.3165552  69.8343658  51.9552803   2.5791749  70.7051325  51.6569138
   3.0299985  69.2603636  51.6764355  76.4809752  59.5109272  34.6759105
  76.4753437  58.7734556  34.0657163  76.3012266  59.1168833  35.5295229
  56.2925386  47.0984030   0.3664130  55.3368139  47.1453094   0.3413921
  56.4950371  46.8117285   1.2569416   9.7325522   5.5802679  49.0406132
   9.0501004   6.2435997  49.1429996  10.5369282   6.0823864  48.9098883
  31.4461040  18.1967580  11.1345625  30.9799552  18.4381795  11.9349706
  31.8770337  19.0046072  10.8554351  50.5616331  19.5093358  43.2861233
  50.3583241  18.5845268  43.4262133  51.0815811  19.7586668  44.0501404
  14.4834995  56.0884666  50.2237272  15.3870070  55.8626604  50.4448986
  13.9743161  55.8130789  50.9860420  83.2838440  52.1689367   1.1283994
  84.0479660  52.3613214   1.6718502  83.5844612  51.4901447   0.5241589
  49.8105001  36.4503551  62.0496845  48.9438295  36.7968893  61.8374825
  49.6699238  35.5113006  62.1706963  84.1698622  34.3299031  46.0752821
  83.7375553  34.2164612  45.2288342  84.1830849  33.4522104  46.4570093
  26.3708091  23.9525986  43.8273191  26.4206004  22.9967070  43.8221359
  27.2748733  24.2388248  43.9576054  23.8735294   7.1621627   8.1101614
  23.6013746   8.0664712   7.9539913  24.5859933   7.0156074   7.4879485
   3.7134472  38.0645776  53.2464457   3.0351701  38.5581708  52.7854252
   3.2667562  37.6998401  54.0104246  78.2480526  53.7233019  64.1503572
  77.4651909  53.5413361  63.6305046  78.6505651  54.4781876  63.7209797
  81.9519997  43.9535332  64.1771746  82.6113892  43.7590408  63.5111284
  81.6796494  44.8517656  63.9894581  21.0084629  56.5009451   5.1907420
  20.8038545  55.6427431   4.8194507  21.1283064  56.3349724   6.1257946
  17.7141082  11.9420373   4.2950055  17.7920699  12.0039797   3.3429986
  18.1342793  11.1109042   4.5161536  67.5324154  14.0009403  62.2909641
  67.6773787  14.9372149  62.1545601  68.2947206  13.7110507  62.7920532
   4.9602258  36.9858122  31.3053918   5.7967764  36.5652704  31.1064959
   5.1993871  37.7835369  31.7772698  54.0005684  52.2733736  46.0437965
  53.3510351  52.7631903  45.5393887  53.9757967  51.3910770  45.6734324
  54.1101837   0.1439922  15.5873084  54.4793224   0.3321463  16.4501905
  53.3154249  -0.3569155  15.7708383  51.9236803  14.7915566   1.1662118
  52.7959013  15.0630057   0.8802491  51.5098858  14.4441867   0.3760603
  20.2027392  10.4381108   9.5221895  20.3600740  11.3816357   9.5573652
  20.9929085  10.0493789   9.8973584   1.9847870  57.9094696  21.5021896
   2.4760675  58.5562515  20.9956884   1.1608128  57.8077984  21.0257840
  18.8705683  14.5842588  59.7077990  18.6927271  14.8740172  60.6025887
  18.4252560  13.7399590  59.6364832  69.7307968  30.0326109  57.0844746
  70.5850649  30.4348469  57.2415400  69.5959806  30.1175284  56.1406279
  58.9125776  64.5669174  35.4796124  58.1439638  65.1167250  35.6318498
  58.6266708  63.6846542  35.7164717   2.4568768  64.0789175  24.5513773
   1.5682179  64.3691015  24.7570729   2.4655224  63.9909458  23.5982680
  50.4155874  73.2153082  25.1298642  50.5622578  73.9720392  24.5623493
  50.8086205  72.4816370  24.6571255  49.6025181  73.2103825   5.0263017
  50.2753162  72.6198578   4.6873969  49.8093748  73.3004284   5.9565347
  51.7721939  18.0155969   0.1214727  51.2471294  17.6661921   0.8415083
  52.1426630  18.8276374   0.4672746  58.2991934  29.9580383  51.9892502
  59.0664101  29.8625207  52.5536013  58.5875034  29.6335149  51.1361408
  46.2219862  13.8965532   0.2677930  46.0181431  13.9926454  -0.6624972
  45.5874733  14.4594309   0.7114041  46.0904360  16.6536796  60.1872158
  45.2224255  16.7428839  59.7937250  46.5512991  17.4536932  59.9345875
  14.3592560   0.9202147  11.7150784  13.7543082   1.4117733  12.2706330
  15.2285171   1.2057005  11.9963527  83.3121109  21.4652300  49.7247458
  84.1688442  21.0821676  49.5363235  82.8114986  20.7505322  50.1182270
  69.5856571  34.3189955  58.0494404  69.1296673  33.6754036  57.5071383
  69.9684095  34.9324989  57.4222660   2.5773990  -0.2163432   6.4866263
   2.8337905   0.6484192   6.1661869   2.2018643  -0.0497542   7.3511803
  65.6391001  17.4197590  54.2872906  66.0692692  18.1365192  54.7535944
  64.7970533  17.7833879  54.0134954  23.8461733  69.0022182  11.3834620
  23.3857155  69.2579317  12.1827245  24.7698903  68.9861774  11.6339099
   3.5349596  78.1937361   3.8059545   3.1548622  79.0628147   3.6776274
   4.0976748  78.2895041   4.5743370  49.7576666  61.3404083   0.8861683
  50.5969143  61.0272121   0.5488249  49.1022873  60.8416939   0.3983207
  38.0898452  31.6668105  44.2355680  39.0260458  31.5006304  44.3457747
  37.9690480  32.5667500  44.5384645  81.4901638  19.5671880  40.8085060
  81.7708111  19.9487805  41.6402864  81.8634319  18.6857724  40.8113003
  81.4857292  39.6607018  57.8824139  80.8379078  39.1977525  58.4136820
  81.1530781  40.5564594  57.8258228  68.0023813  71.2087107  61.5118837
  67.6427317  70.4773474  61.0098934  67.2837925  71.4852190  62.0805693
   7.5676072  40.6362486  60.5716085   8.5126036  40.5329466  60.4596138
   7.3566610  41.4403248  60.0970602  27.1712637  44.0038729   3.8691032
  26.7194772  44.7010183   3.3935902  27.4006581  43.3640003   3.1951794
  54.8744202   8.1907892  61.2273121  54.3691683   7.4030644  61.4284277
  54.3854475   8.9013958  61.6422558  66.9135666  16.8506789  24.0476704
  67.2405863  17.2790515  24.8387361  67.6139259  16.9665861  23.4055686
  53.6864376  49.5230484  56.0821295  53.6358786  49.6672106  55.1372004
  53.7745285  50.4006767  56.4539337  14.4967687  52.1704626  16.8289459
  14.9504280  52.7618027  16.2283313  14.8330033  51.3016176  16.6091931
  57.0518017  52.1732616  42.0749807  57.8460836  52.4890995  41.6441870
  57.3374701  51.9301224  42.9556084   1.1757881  64.4629669  55.3091526
   0.8543237  65.1918936  55.8397818   2.0497477  64.7365999  55.0306702
  29.7819281  28.5483932  41.2169600  29.3320227  27.7927542  40.8390379
  30.0776720  28.2462144  42.0757151  63.1263018   2.5365043  62.2365236
  63.1886625   3.3000985  62.8103447  62.5510693   1.9314104  62.7047157
  11.5701389  21.5270782  45.5399084  11.3621974  21.7403722  46.4495802
  11.8391848  22.3606634  45.1539326  69.5098209  19.1718483  13.5288727
  69.8591948  18.8439763  14.3575275  69.1503191  18.3968651  13.0971444
  75.5631876  72.0692015  54.3322372  76.4739084  71.7858839  54.2512465
  75.0739002  71.4652872  53.7735605  46.1094618  71.2366390  40.1092958
  46.8767548  71.7741060  39.9127603  45.9744644  71.3469744  41.0504818
  37.8930235  72.3231792  25.6225443  38.7777257  72.5374699  25.3265524
  37.3355126  72.9809809  25.2069569  57.2321749  43.7334108  60.2415705
  56.7682743  43.7978935  61.0763597  58.1103373  43.4348106  60.4780054
  48.3096647  12.5230873  68.1186867  49.1173601  12.9691565  67.8639603
  48.2988071  12.5745714  69.0744400  69.8160648  15.1383531   7.1090060
  70.4589891  15.4919577   6.4943177  70.0701809  15.5022299   7.9570913
  53.6388826   5.5811369  25.0976634  52.8042698   5.1257133  24.9870276
  53.8410759   5.4878491  26.0286021   9.2871416  54.4169426  62.3519373
   9.0602899  53.8324118  63.0751896   9.6917123  55.1746988  62.7742624
   4.9794924  53.5301828  40.5778742   5.4713988  53.0183029  39.9358130
   4.1047695  53.1414938  40.5746651  65.3111792   5.0324523  12.7239645
  64.5671415   5.6192088  12.5884604  64.9146986   4.1918096  12.9527748
  43.0968380  72.2960901  48.0914307  43.2071161  71.4683390  47.6235628
  43.4327936  72.1209669  48.9704609  69.6686172   0.9216331  28.6339498
  69.6846533   1.2309255  29.5396590  70.4873657   0.4363507  28.5320425
  24.5646262  28.5018682  62.3280764  24.6675301  27.6529717  61.8979406
  24.4840574  28.2908559  63.2582426  11.9550633  54.3409634  28.1260729
  11.3355756  55.0706387  28.1197929  12.3071194  54.3179989  27.2362614
   4.5047900   0.8711568  47.6465321   5.0172734   1.6700682  47.5227022
   4.8039639   0.5224271  48.4862423  46.6727924   3.8833275  54.4098663
  46.5087986   4.2851055  55.2630424  47.4619627   4.3188500  54.0877438
  65.4510689  60.5773211  66.4224005  66.0042524  60.8821154  67.1416473
  64.7568226  61.2333012  66.3596201  70.8976650  37.5468779  57.2358370
  71.4867115  37.9079175  57.8983402  70.2767611  38.2530808  57.0569897
   4.0926558  17.2410667  34.4731236   4.3304124  18.1458354  34.2704010
   4.2058596  16.7726219  33.6460972   3.5021558  68.9569902  26.1573696
   4.4276488  69.1812181  26.2544107   3.5017520  68.0191946  25.9656215
  62.7788067  76.0774899  56.3246393  62.0656061  75.6869841  55.8195782
  62.6187038  77.0199490  56.2759495  35.0544691  11.8052661  15.8214641
  34.5378613  12.6059365  15.9124303  34.4041348  11.1123765  15.7065654
  75.1331425  67.1140671  18.2522166  75.5274725  67.3680925  17.4178278
  74.2605639  67.5071478  18.2342744  37.1227479   1.1964515  56.2041378
  37.0344090   1.5486313  57.0898008  36.2245178   1.1396727  55.8782625
  20.7894945  69.6927738  27.9887342  20.6482911  70.2871561  27.2518492
  21.2887549  68.9653683  27.6174498  31.8227005  32.7322292  18.6760485
  32.5769329  33.3175135  18.7454033  31.9000816  32.3440814  17.8045070
  78.6975861   4.5935693  46.1841393  77.9794121   5.1536572  46.4786816
  78.3171558   3.7160054  46.1469126  25.8230519  37.2866583  23.5569453
  26.1338353  37.1878695  22.6570082  26.4801288  37.8410983  23.9777493
  76.6588593  48.5104418  57.4661922  76.0405731  48.4523439  56.7377853
  77.3374557  49.1105890  57.1570587  53.4814548   4.6395111  64.7732973
  52.6731539   4.1340101  64.8590565  53.6018515   4.7403315  63.8290691
  25.5560708  74.9460173   9.7607625  26.0829902  74.7085142   8.9977551
  24.8805261  75.5284452   9.4134182  39.4801784  21.5616202   6.1483234
  39.4413400  22.0623684   5.3334773  38.9266062  20.7976627   5.9865880
  -0.2899214  70.0609350   3.0480894   0.5526022  70.5117512   3.1042606
  -0.1356931  69.3402624   2.4372892  28.0465746  76.2184334  59.7178745
  28.2878160  75.3011084  59.8465157  28.4986734  76.4745140  58.9139700
  40.6391191  68.9063358  10.0459182  41.2945223  69.4511938  10.4815841
  40.0808477  68.5893822  10.7559252  16.8197703  45.2656317  46.0107565
  16.3739395  44.8443508  45.2759123  17.3894572  45.9179592  45.6031322
  31.2858796  61.4556408  28.9201570  31.7443204  61.3803196  28.0832648
  31.7754316  62.1220589  29.4022942  64.6779156  32.3042226  65.5914259
  64.5610571  31.5760612  64.9812126  64.0768719  32.1123052  66.3112497
  48.6913443  23.7389994   5.8448523  48.0990171  22.9957366   5.9585911
  48.4203529  24.3660235   6.5153998  18.9750731  13.7495852  30.7410121
  18.5186160  14.5833969  30.8534241  19.7367883  13.9642131  30.2025366
  61.3180208  54.6069574  51.3216734  60.5471611  54.7858047  50.7831430
  61.7925262  53.9275980  50.8425617  35.7967472   4.0483323  66.1275387
  35.1413035   3.5512966  66.6170120  36.2004781   4.6201411  66.7804289
  82.3418331  19.9830687  43.6294270  83.2910156  19.9683511  43.7521505
  82.0486736  20.7504892  44.1207123  19.0391493  21.4467692  20.0733256
  18.6724675  21.2598562  19.2091274  18.5853493  20.8433270  20.6616759
  71.0812140  27.9569674   8.5710102  71.4966488  27.3278880   7.9811776
  71.0027456  27.4897432   9.4027418  72.3444128   1.4544925  21.5041614
  73.0370331   1.7234422  22.1076298  71.5824223   1.9695893  21.7692542
  57.7304125  52.8990126  52.2963476  58.0742836  52.5478458  51.4749670
  58.4605932  52.8285885  52.9112577  72.0493937  56.6101170  53.7684059
  71.5742397  56.9818354  54.5115662  72.6993227  57.2755814  53.5426044
  21.9405055  35.5867290  46.5800858  22.8831625  35.7065201  46.6953278
  21.6234398  35.3338552  47.4471235  19.3241775  49.2210865  57.8267956
  18.4657657  48.9144135  57.5347185  19.7062469  49.6358490  57.0533466
  71.7779636  71.8594742  42.3046637  70.9647894  72.2494078  42.6254988
  72.4490976  72.1718168  42.9115009  68.3988571  21.4737248  42.0746231
  68.9012384  21.1779594  41.3154364  69.0320396  21.4818549  42.7924347
   1.0935531  10.4323542  16.9840741   0.9538425   9.5798278  17.3962772
   0.8735188  11.0670376  17.6659787  24.3136668  51.9713020  52.2086716
  25.0227976  52.6060390  52.3110199  24.7410393  51.1189985  52.2933102
  60.9201527  20.4834485  63.0047560  61.3804436  21.2010431  62.5695276
  60.1547003  20.3206515  62.4535704  77.7051067  54.9500084  66.6849804
  77.6870108  54.5276308  65.8262014  78.0792665  55.8151817  66.5185356
  79.3796301   8.2606757  16.4129901  78.7910128   8.6493891  15.7659471
  79.9160194   7.6472163  15.9108138  29.0352607  31.4233208  34.2383361
  28.2346749  31.5726733  33.7353611  29.6641421  32.0490980  33.8789701
   0.7577039  44.3269587  44.4244242   0.8928713  44.5167923  45.3528214
   0.2551556  43.5123253  44.4172239  16.3104391  41.7926455  50.7709551
  16.6549444  42.6726723  50.9229565  15.3643858  41.8827152  50.8854198
  76.8789148  43.9217472  24.3984747  76.5195847  44.3493605  23.6211324
  77.5775719  43.3607006  24.0618181  66.8609762  18.7550199  18.2471037
  67.6010084  19.0613616  18.7712598  66.1423540  19.3424964  18.4809530
  23.3308506  21.1027217  12.2788572  22.8718209  21.9368577  12.3775482
  24.1938925  21.3427210  11.9415247  67.1962690  53.4274673  52.4574566
  66.4721680  52.9135370  52.0999908  67.2109890  53.2052994  53.3884001
  69.3723440  21.5717530  36.7968917  68.6897612  21.6297150  36.1283493
  69.5031452  22.4752688  37.0846081  80.3213024  30.0296545  21.2762427
  79.8237181  30.1932716  22.0774126  79.8981953  29.2662811  20.8832049
  61.9936037   1.6247945   4.0575764  62.1770334   1.0858170   4.8270485
  62.8305197   1.6757868   3.5958380   5.8245605  42.9330635   0.6900930
   6.7112964  42.8891897   0.3323130   5.9396005  42.8050709   1.6316956
  82.2773647  42.6130533  59.8517084  82.5250530  43.4439373  60.2573109
  83.1078243  42.1584940  59.7105026   3.8521972  57.5870466  15.6526232
   2.9978469  57.1558332  15.6332505   4.0461853  57.7756166  14.7344506
  22.8800035   7.5913787  31.2732172  23.0835676   8.4757465  31.5776634
  22.8940582   7.6576006  30.3184128  77.4244928  74.4538450  29.3661308
  77.8126907  74.8542023  28.5881495  77.3164701  75.1798534  29.9805236
  50.5275297  50.3556967  20.9453177  50.2281666  51.0011864  20.3050375
  49.7847652  49.7613335  21.0514569  75.0081491  58.9523411  25.5711746
  74.1174030  58.7183475  25.8320379  75.5121183  58.1474590  25.6912017
   5.7956350  78.5846758  20.0694633   6.1269879  77.7598333  19.7143936
   5.0494963  78.8032293  19.5111227  46.5827179  16.7015553  17.7019179
  46.9530106  16.3830984  18.5251427  47.0687294  17.5048602  17.5155652
  49.3532896  33.6299086   0.4555236  48.8564062  33.7782788   1.2600896
  49.0406036  34.3047762  -0.1469833  69.8205471  41.1524057  59.9547768
  69.8451233  41.5359068  60.8314514  69.7407770  40.2108240  60.1073980
  13.8664043  22.6613760  16.8302667  14.5536685  22.3155546  16.2607884
  13.1724942  22.0029736  16.7952383  54.8430252  20.9175825  66.5614128
  54.1312456  20.2933598  66.4201736  54.6416521  21.3237214  67.4044657
  28.8966775  53.1295061  30.1981592  29.6317291  53.4294176  29.6633887
  28.8278174  52.1940041  30.0075626  21.5944409  31.1064243  66.6089582
  22.2655797  31.2455249  67.2771311  21.3895559  30.1731467  66.6659260
  51.8076658  21.2502742   6.0542196  51.0221148  20.7897472   6.3492739
  51.5122557  21.7755365   5.3105390  63.7411308  61.6191483  50.4860830
  63.2143259  61.4733410  49.7003031  64.2908716  60.8385181  50.5541420
  30.5509424  73.7460184  14.9495494  30.0912642  72.9080105  15.0012803
  30.8243251  73.8131618  14.0346801  58.9225769   4.2004615  14.5904565
  58.3163214   3.4609139  14.6323276  59.1354990   4.3876788  15.5047023
  45.1357603  32.5390053  58.0491590  45.8213139  32.0696425  57.5738239
  45.2718306  32.2981882  58.9655209  12.8780222  27.5261140  56.1490440
  12.3691571  26.7186642  56.2219286  13.7735462  27.2308254  55.9845114
  10.7677948  31.9881630  39.4410944  11.1772501  31.2039542  39.8065972
  11.2432635  32.1488810  38.6260295  21.6123104   1.5534136  42.4964380
  22.3260093   2.1905267  42.5273371  20.8201385   2.0746413  42.6268768
  28.7114882  61.9873810  52.6064539  29.4983029  62.2459793  53.0863285
  28.2790399  61.3539219  53.1791162  73.3127022  39.3271995  27.9618740
  73.9029503  39.2168069  28.7072921  72.6437902  39.9364901  28.2742167
  27.5454307  17.4836087  16.3797677  27.1651936  17.9432428  17.1283579
  28.4853268  17.4683154  16.5603089   4.2515722  57.6831913  57.7371979
   3.9183873  57.6750469  56.8398952   3.5729146  57.2427082  58.2486963
  10.9192014  77.8746080  51.7624235  10.2842510  78.5816908  51.8768740
  11.3257384  77.7760792  52.6233816  74.1033697  35.6717229  60.1065588
  74.3351507  35.9745622  59.2286062  73.4857655  36.3272333  60.4307556
  78.3179092  74.1649437   2.4009682  78.3901405  73.4558058   1.7621121
  77.4638271  74.5597076   2.2250754  37.2791481   2.3348716   4.7399697
  38.1158042   1.9881585   4.4300830  37.5105286   2.8866857   5.4870951
  34.9809742  27.6095104  65.2854490  35.2859640  28.4612346  65.5981493
  34.9908042  27.6870680  64.3314457  81.5981388  52.8786564  54.2416048
  82.3674297  52.5274467  54.6900082  81.1342812  52.1053934  53.9204645
  77.7130985  24.5023346  42.0611858  78.4508562  25.0202036  41.7390776
  77.2036695  24.2976618  41.2770796  50.2381754  12.4274111  14.1521800
  49.7488499  11.6404569  14.3919575  50.0914955  13.0316758  14.8799038
  70.3847027  57.9610586  50.8067656  70.8031082  57.1010590  50.7671404
  69.4481421  57.7750778  50.7396746  73.8385344  30.1826596  58.1070995
  73.5424280  29.7906542  57.2855854  73.4189272  31.0427570  58.1269979
  66.4628458  71.7141724  66.3441229  66.3471413  72.2705126  65.5738449
  65.9199905  70.9456635  66.1682320  36.2135863  20.7124138  57.2216988
  35.4362822  20.1883793  57.0282698  36.1409450  20.9132385  58.1547737
  12.7594674  65.7199097  15.5261469  12.4913633  66.5498495  15.1317382
  13.5411477  65.9375095  16.0339451  63.8471413  62.5873041  67.3511648
  63.2726717  62.9065895  66.6552639  63.8779402  63.3045626  67.9842710
   4.4897038   0.9847621  53.6325598   4.1939771   0.3584069  54.2932081
   3.6901242   1.4262056  53.3461475  56.7996836  12.7815115  14.2844665
  56.7555952  13.0061734  13.3550501  57.2410345  13.5275328  14.6905351
  11.1334550  33.2055879  46.4126348  10.3087008  33.0609488  45.9488535
  11.0352027  34.0698600  46.8121481  55.2704144  47.6716614  28.8969946
  55.9534836  48.1596565  28.4370947  54.4884968  47.7876139  28.3571863
  66.4683723  58.8387632  34.4003868  66.6859341  59.7669983  34.4856906
  65.6047010  58.8321257  33.9877653  26.6517234  37.2626543   9.2759764
  26.3494587  36.7670393  10.0370502  27.4313235  37.7241874   9.5849156
  22.1401143  12.4111199  34.6102810  22.8736854  12.0308304  35.0934839
  21.7939615  11.6857398  34.0904427   9.4077545  74.2785645   1.8575338
   8.5239649  74.1981459   1.4988126   9.9483383  73.7318563   1.2873465
  54.3194866  33.7717247  58.3658409  53.8708639  34.2803717  59.0412998
  54.7527695  34.4279337  57.8200531  34.2494869  59.9323750   7.4081677
  34.4988871  59.0112972   7.3330486  35.0816441  60.4019642   7.4650300
  62.7043438  60.5583286  34.0935612  61.9321060  60.3450489  33.5697412
  63.2272053  59.7565794  34.0868545  55.6891298  58.3186007  44.0911531
  56.2307882  58.2114983  44.8730516  56.1462450  57.8210449  43.4131289
  26.5188789  17.8662634  11.1639154  26.1866093  17.7119839  10.2795935
  26.2399101  17.0979559  11.6620243  81.7525291  71.2222624  48.8459492
  82.5499630  71.0996103  49.3610191  82.0443249  71.1671925  47.9359770
  27.0523167  53.1648064   5.7785374  26.6303658  53.9957476   5.9969968
  27.3960948  53.2957935   4.8948574   3.0541712  56.5877914   5.6359154
   3.1317866  57.3556089   5.0696474   3.7065923  55.9741783   5.2981883
  26.9203639  49.7768259  67.9849434  26.6607356  49.9853230  67.0875263
  27.1594691  48.8504219  67.9559994   3.8639367  62.3998356  53.2122517
   4.3651360  62.0521402  53.9499092   2.9538086  62.3738432  53.5075855
  19.2720199   1.8087636  15.2116930  20.0094771   1.6498172  14.6225190
  19.1278601   0.9685709  15.6470382  82.4371052  37.1263051  11.8049681
  83.3201122  37.4743247  11.9291008  82.4799633  36.6557193  10.9725356
  14.1184103  12.6015985  62.5674629  14.8480570  11.9962740  62.4354458
  13.3592761  12.0351577  62.7056360   3.3141127  41.5637016  24.5139122
   3.7598398  40.9392166  23.9415693   2.3868845  41.4686394  24.2960978
  59.9143744  26.1786413   2.9093349  59.1612339  25.5890775   2.8715485
  60.5572701  25.7120085   3.4433487  34.2738152   4.0482524   7.4175155
  35.0607300   4.1919786   7.9431987  33.5887456   3.8589370   8.0586624
  53.7472296  66.7169857  36.2065172  52.9000759  67.0646477  36.4852571
  53.7511015  66.8291378  35.2559161  67.2848177   6.0653251   5.1368707
  66.9060183   6.6120815   5.8252025  67.9676533   6.6107261   4.7463551
  25.5071235   8.1345415  15.2025402  26.0869265   7.6639152  14.6037328
  25.8561397   7.9438615  16.0732067  79.6184111  50.5909538   1.9376040
  79.7820520  50.6325531   0.9954139  79.1393137  49.7715998   2.0615433
  41.7035007  61.6638851   9.6709073  41.0112572  61.8196011   9.0284282
  41.2928104  61.8497896  10.5153036  62.0429564  28.6061621  49.7958231
  62.6968384  28.2769465  49.1791487  62.4352980  28.4672070  50.6577921
  29.7868061  48.1972218  19.5701683  28.9342880  48.4953833  19.2530787
  30.4060555  48.4859753  18.8998055  72.0676517  67.9632521   5.8033121
  71.1988211  67.8152943   6.1767823  72.5828457  68.3172369   6.5282226
  64.3985415  58.7460375  44.2456818  64.9028540  58.8687229  45.0499487
  64.8530006  58.0419970  43.7830544  47.9081392  62.7464151  62.6834679
  47.7536583  63.3395958  63.4186649  48.6209249  62.1797800  62.9785824
  44.5285225  54.3459845   8.0888140  45.0859642  54.0638065   7.3636454
  44.2170525  55.2127743   7.8282464  28.2208514  73.3650589  60.2482843
  28.6177516  73.2929850  61.1163330  27.6564884  72.5951052  60.1782942
  12.1195364  45.2848959  57.3597908  11.7936373  45.8590651  58.0528641
  12.2065294  44.4288349  57.7791023  66.5261126  54.1183567  25.6017160
  66.2929869  53.2957506  25.1713610  66.2602711  53.9956284  26.5130329
   1.3157289  35.0265908  56.6453123   1.0559418  34.1060019  56.6098261
   1.2220796  35.2665162  57.5672102   3.4560919  48.9697647  54.1776514
   3.6787346  49.4985485  53.4114599   3.3046338  49.6088791  54.8739433
  81.5864754  11.9821084  41.9078398  82.2776890  12.5149989  41.5147972
  82.0431423  11.4234209  42.5367689  43.0684233  29.1285253  47.7199173
  43.7377262  28.6570454  48.2158756  42.4875116  29.4927311  48.3878469
  51.2907600  65.3637314   1.7686838  50.3880739  65.1289988   1.5535422
  51.8186092  64.9173594   1.1065972  28.9197516  15.7336926   9.0426213
  28.7620568  15.4112267   9.9299657  28.9394593  14.9446917   8.5010296
  60.4946804  50.0025320  27.0997071  61.1891747  50.3288460  27.6719213
  60.8826065  50.0087881  26.2246609  82.0753670  11.4921141  27.9317808
  82.6993179  11.3740349  28.6479998  81.2895870  11.8398213  28.3535528
  24.1776562  59.9411201  14.2726851  25.1226163  60.0878191  14.2307281
  23.8143563  60.7903385  14.5238221   1.1547374  36.1021590  65.1749897
   2.0546600  36.0146570  64.8608017   1.2452331  36.3358831  66.0987949
  69.4105148  40.8154726  29.0194464  70.3401661  40.9542656  28.8385677
  69.2400551  39.9209619  28.7244487  12.2453904  75.9717607  21.8524718
  11.4056158  76.3981247  21.6815233  12.0121598  75.0855684  22.1290469
   3.6773688  37.1276689  28.6601853   2.8671953  37.5348544  28.9668584
   4.2001757  37.0077562  29.4529796  77.9887152  40.7055664  50.5822325
  77.4529171  39.9709606  50.8814192  77.9526281  41.3366985  51.3009834
  56.2956715  32.5732875  60.5788898  56.4694738  33.5123801  60.6431389
  55.3408480  32.5058556  60.5791759  60.4098082  77.7906275  41.7589426
  61.0352278  77.5930405  42.4561071  59.6727943  77.2027636  41.9246578
  36.9402719  26.4310455  18.8977742  36.5446162  25.6058121  19.1782689
  37.8779268  26.3102102  19.0475440  51.4912415  14.1622925  18.4917486
  52.3977947  13.8653135  18.4130657  51.0577917  13.4765315  18.9997685
  65.7632685  41.0503340  67.9273748  66.6835546  41.2293577  68.1204033
  65.6917095  40.0965691  67.9654121  81.9674206  49.4305038  58.1697989
  81.3158131  49.5778847  58.8553047  82.7317810  49.9316072  58.4541893
  11.2922776  61.5877581  67.7215719  10.4349029  61.2818956  68.0175304
  11.2457788  61.5435314  66.7665291  72.6892185  59.1778803  50.3459883
  73.0956745  58.9115810  51.1706734  71.8422318  58.7319803  50.3414536
   1.0209343  33.2761955  33.3457994   0.3346770  33.9291215  33.4835291
   1.7894256  33.7866187  33.0906105  77.6199341  20.8872294  68.4927368
  78.0956030  21.2142634  69.2562962  76.8655157  21.4708805  68.4124804
  46.4796209   9.4594848  29.7186732  45.8973694   9.7312927  29.0092111
  47.2879171   9.1973484  29.2780280  22.2445893  20.9311342  49.0614367
  21.9556618  21.7839980  48.7368202  22.6898527  20.5292392  48.3154774
  69.3902016  55.0985956  55.7973385  69.7744417  55.5228329  56.5645504
  70.1220322  54.6382761  55.3865337  48.0292130  17.2417724   4.3650863
  48.5994768  16.6326392   3.8960618  47.8654003  17.9469490   3.7388885
   6.3602859  65.4673243  54.3734503   6.5336335  65.5587006  53.4365273
   6.6374058  66.3021994  54.7508430  82.5506306  37.8464222  63.0558109
  82.2629070  37.1281958  62.4922562  82.8717613  38.5132551  62.4488211
  30.1446271  76.3074493  21.1866283  30.3761935  76.2752533  20.2584195
  30.9261155  75.9906673  21.6395736  10.2551913   1.6305773  39.7770357
   9.5170408   1.9708142  39.2714620  11.0110271   1.7387608  39.1997671
  16.5633786  45.6181622  55.0828171  16.5664625  45.9971762  54.2038536
  15.6979871  45.2180910  55.1680994  26.9135118  71.8905497  13.4730017
  27.3658252  72.6950121  13.2190704  26.2774920  71.7422724  12.7731979
   5.7325125  19.1845107  43.5957050   6.5618616  19.5689869  43.8795900
   5.9332824  18.2592928  43.4546471  24.1864800  70.4620028   5.2738363
  24.6289921  71.3088417   5.3310841  23.7355995  70.3701401   6.1131817
  53.4928322  13.2382429  30.2577925  54.2844772  12.7262139  30.4231834
  53.6338758  13.6249149  29.3936014  52.2469997  11.6306555   5.8237022
  52.4110746  12.5651920   5.6974000  52.8956270  11.3592350   6.4731956
  47.2860098  20.7055974  11.1052155  47.5017548  21.5478635  11.5055561
  47.9611158  20.1078296  11.4263642  19.7034776  72.8031397  26.2417173
  19.7537816  72.1748972  25.5212927  19.0249479  72.4522734  26.8185401
   8.2827854  22.7142477  41.5135384   8.0997133  22.7452683  40.5745173
   8.7017393  21.8641591  41.6479254   0.9800088   5.6358778  61.2454033
   1.6442573   4.9575183  61.3671970   1.2632820   6.3530493  61.8125486
   6.3338965  54.7354460  65.6126547   6.3744611  55.3766870  66.3221550
   6.6646153  53.9260340  66.0021544  18.9400172  45.0640011  66.3733196
  19.4909763  45.8467054  66.3806486  18.5117996  45.0805330  65.5174065
  11.6456532  63.3142996  29.5539641  11.6074908  64.0009117  30.2198052
  10.7294929  63.0994558  29.3786860  35.3259110  75.8114767  58.1529808
  35.5007648  75.8827877  57.2145939  34.6298885  75.1575899  58.2179117
  22.9718709  73.7229013  23.0831504  22.2336578  73.3340263  22.6140571
  22.8106499  73.5097599  24.0022874  50.0363731  53.9987993  33.9077020
  50.8941126  53.5740185  33.8987970  50.0228453  54.5279121  33.1101537
  56.7477036  56.7502499  51.4310598  56.5020657  57.3691368  52.1187162
  56.7791843  57.2785282  50.6334639  17.2337770  72.5530148  18.9403176
  17.3031139  71.8932819  18.2502592  16.3813102  72.3890781  19.3436241
  75.8042908  25.3557539  64.5520163  76.7322636  25.2058744  64.3713760
  75.7824421  26.1942196  65.0132418  14.5425010  57.7230406  68.0441284
  15.1855588  57.0140409  68.0392694  14.9001467  58.3749104  67.4413061
  80.1089001  38.3305073  18.4741735  80.3071499  38.4081793  19.4073915
  79.2187643  37.9796004  18.4468091  57.3077631  69.1822720  22.3879218
  57.6142502  68.2861185  22.2493339  56.5424061  69.0886307  22.9551053
  76.0728550  42.5398827  39.4781899  75.7044649  42.5969887  40.3598118
  75.3097725  42.4882746  38.9026308  42.8347349  13.7355161  32.7060461
  42.3536062  13.7249100  31.8786216  43.4436131  13.0000317  32.6385021
  15.0054526   1.8347639  62.0487118  15.5269694   2.6337919  61.9725132
  15.6478727   1.1440419  62.2112846  33.9284062  24.1523099  50.9891844
  33.7302136  25.0674677  50.7905912  33.1340790  23.6769295  50.7456827
  62.8578377  59.8934841  20.4804063  62.2317696  59.1886377  20.6461239
  63.6137629  59.6755028  21.0256553  18.6177051  18.0126488  45.8550835
  18.7701583  18.1138265  44.9155331  17.7565420  18.4040439  46.0015106
  71.5052223  53.8644314  54.6761274  71.7212200  52.9721498  54.9470663
  72.3515463  54.3071699  54.6133041  69.8493338  14.4678891   1.6566601
  70.7593918  14.3139291   1.4030455  69.3420601  14.2435622   0.8765417
  59.3652010  46.4490318  54.3636560  59.8835087  46.8725204  55.0479364
  59.8886776  46.5512705  53.5688305  45.4383993   2.4657185  10.2467895
  46.0303116   2.3291761  10.9865391  45.6042910   1.7224243   9.6669394
  60.2624655  41.5316820  26.7374063  61.1722326  41.2469578  26.8239355
  59.9272919  41.0383797  25.9887123  48.8671398  14.0176845  26.9669032
  49.6583748  13.5236382  26.7522001  49.1136742  14.9333251  26.8363094
  72.2554922   1.8057413  56.4864635  71.3343287   2.0451814  56.3846827
  72.2341156   0.9197638  56.8481493  50.6245899  67.1109724  56.9849396
  50.6478739  67.2191477  56.0341597  50.0325727  66.3724518  57.1275473
  24.8635292  10.2364910  18.6109173  25.1880574  10.8265960  17.9307055
  25.5467200   9.5716202  18.6971152  54.7332954  -0.1887708  54.7341824
  54.4821167  -0.1332287  53.8121986  54.1156912   0.3864541  55.1857519
  24.1066623   0.6701700  32.6672649  24.5174575   0.4484683  31.8316054
  24.8169208   0.6116625  33.3062840  67.4841404  31.9557929   2.3554473
  67.7687359  31.2938428   1.7253220  67.9158258  31.7091155   3.1733885
  38.9328909  24.3661022  47.3305941  39.0601492  23.9372563  46.4843512
  38.1128240  24.0011954  47.6631069  73.6766291  33.2849407  61.5168381
  73.8340330  33.9838672  60.8820486  72.9916620  33.6308622  62.0890236
  56.6219378  71.0765314  16.2044358  56.0758638  70.6629705  16.8730175
  57.3884201  71.3923931  16.6829467  11.2428832  37.0195270  68.5064888
  10.5804813  37.5212789  68.0314112  12.0708323  37.4455500  68.2845974
  14.7357452  67.8956938  24.5708799  15.2871919  68.6748886  24.6415544
  15.3034091  67.1749592  24.8438883  54.0407705  26.0260177  39.8410344
  54.6203327  25.4869533  39.3027496  54.3955564  25.9484076  40.7266617
  25.0901127  59.2484236  39.1857100  24.9319124  60.1325846  39.5165586
  25.4619169  58.7767553  39.9310446  50.1689053  72.0542479  10.4560924
  50.2710533  71.9018602  11.3955474  49.3650389  72.5687122  10.3829122
  28.4058261  50.6103897   6.2537557  27.8645968  50.3379822   6.9947672
  28.3435440  51.5655518   6.2500095  58.3126307  23.1149769  38.3079386
  59.0623713  23.1040430  37.7129579  57.6414537  22.6027846  37.8569245
   1.3248327   0.6595132   8.9071298   0.4467131   0.2797141   8.8772881
   1.7363143   0.2519016   9.6692103  19.1392207  66.1355829  31.4644408
  18.7582946  65.3475189  31.0770369  19.1378951  66.7765951  30.7535720
  57.0712137  18.4270799  42.8686142  57.7762794  17.8489041  43.1598568
  56.4139843  17.8366160  42.5003242  61.9633007   2.6425877  40.1127148
  62.1718311   2.7121037  41.0443354  61.2296772   3.2442167  39.9859428
  25.7289410  68.4518528  21.9571400  25.9307480  69.3637705  21.7475867
  26.1708593  68.2943773  22.7914906  47.2694206  56.8833828  46.1862469
  47.2744083  56.0681868  45.6845903  46.5509129  57.3917437  45.8100128
  33.0029607  77.2907305  65.8645535  33.7309122  76.7622519  66.1917067
  32.8155756  76.9299793  64.9979639  48.9067507  11.7867982  55.2316570
  48.9392900  11.4087045  56.1104202  49.7292280  11.5159166  54.8237610
  74.0594912  73.1775475  11.8704331  73.4892750  73.2289505  12.6375306
  74.1931677  72.2396278  11.7337859  77.2992468  57.9723883   9.6239531
  77.1542406  57.3523426  10.3386188  76.4611673  58.4241247   9.5250422
  28.1350350  23.8557553   9.2046869  28.5905957  24.3120241   8.4972155
  28.2152581  22.9282308   8.9822131  17.4489141   3.3851472  37.2406840
  18.2579088   3.2886952  37.7431369  17.5369072   4.2331505  36.8055081
  19.4945061  23.2694936  67.9376221  19.9061811  23.6011505  67.1396494
  19.7681379  23.8818002  68.6205816  15.5241656  48.9756489  13.6587298
  16.1111093  49.7288799  13.5925794  15.1938593  49.0075159  14.5565689
  20.4330468  28.3777237  18.3989096  20.6696534  27.6365209  17.8413534
  21.2456846  28.8743925  18.4946895  58.0895042  71.1016798  48.1442404
  57.9969120  70.2459621  48.5630560  58.6579847  70.9396124  47.3913813
  12.4783099  61.8569708   1.8654406  11.6684937  62.1281767   1.4331481
  12.6902783  62.5818872   2.4534872  25.7387424  62.1935749  60.8593988
  24.9293828  61.7280817  60.6484938  26.1926985  61.6179323  61.4748621
  72.3704863  10.6330109  41.0552549  71.7261124  10.3450978  40.4086351
  73.0599689   9.9701005  41.0178852  15.8211589  34.7875714  23.0630398
  16.1273873  33.9953470  22.6216340  16.0118806  35.4943156  22.4462986
  75.2901268  39.4019532  58.0147219  75.4398537  39.5143747  58.9534283
  76.1573458  39.4967771  57.6208115  61.2522554  20.2012706  42.9892445
  60.4624176  20.1646781  42.4497557  60.9979200  20.7217145  43.7512684
  36.2780523  20.0209379  60.1389074  35.7269764  19.2421830  60.0608873
  37.1006203  19.6965265  60.5054712  70.3359747   4.9721313  55.2657700
  70.6093407   4.6188748  54.4191837  69.8902225   4.2429751  55.6968975
  80.7994270  21.9619846  64.8251200  80.4043198  22.2815156  64.0139294
  80.0699520  21.5784907  65.3119802  45.3582096  75.1920938  28.9589047
  44.9824333  74.3163157  28.8692570  44.8916340  75.7203674  28.3112407
  16.2225735  21.4520264   4.7779992  15.6477833  21.6975260   4.0530324
  16.8137991  20.7985997   4.4042084  26.8257475  70.9381580  21.4264059
  26.1891413  71.6173172  21.6493583  27.1218991  71.1673737  20.5455041
  35.1737523  22.1808887  14.8944569  36.1235309  22.1546006  15.0104713
  34.8246574  21.7626476  15.6815004  16.4144742  15.0222361  24.0255690
  15.5611312  14.6054852  24.1453862  16.2478340  15.9541750  24.1668177
  33.0356622  61.2012720  26.6625881  32.7958107  60.2802658  26.5603423
  32.9448938  61.5713167  25.7844877   0.4148812  49.8117304   5.6258768
   0.3144256  50.3689957   4.8541278  -0.4628637  49.7673035   6.0051155
   4.1345048  48.4945202  67.1298265   3.3337641  48.7448883  66.6690016
   4.8423749  48.8277006  66.5783405  45.5576372  21.2018442  35.3872418
  46.0333395  20.9970045  36.1922145  45.5937672  20.3937602  34.8754549
  64.2019892   7.6834249  59.6178961  63.4507322   8.1300461  60.0082445
  64.3841887   8.1760007  58.8176394  47.3445702  26.1011815  23.5102987
  48.0679226  26.5019751  23.0282688  47.7705145  25.5555511  24.1714287
  82.8807449  16.2107563  59.0267611  82.1333408  16.4692938  59.5659971
  83.4855747  15.7933056  59.6400738  38.4404111   3.3018994  18.3881402
  37.6800489   3.3291292  18.9689493  39.0915966   2.7918273  18.8698208
  73.3733845  21.5804887  58.3216810  74.0096998  21.7058516  59.0256834
  73.0056429  20.7116222  58.4831333  54.6276045  23.0872321  24.8378348
  54.2702103  22.8732753  23.9760184  54.1705561  23.8881278  25.0945568
   1.0938217   6.1195713  50.4158354   1.5329790   6.9676292  50.3512526
   1.6153878   5.6274325  51.0498714  18.8397610  76.6327143  23.1266785
  18.3894229  76.3181448  23.9105630  19.2258465  75.8465433  22.7405334
  38.5501003   2.9064247  48.1383657  38.6555600   3.7967619  48.4736443
  37.6388597   2.6847082  48.3299685  37.8266835   4.6270987  60.7497406
  37.8302169   5.1804799  59.9687195  37.0329714   4.0987694  60.6653452
   8.3552510  28.6065316  60.1089191   8.0338204  29.4635463  59.8288536
   8.3161044  28.0664062  59.3196392  55.3865719   6.8968379  21.2534165
  54.4841909   7.1863568  21.1188102  55.7994413   7.6148802  21.7331910
  63.5936499  11.1579216  33.0665684  64.0253019  11.0042393  33.9069796
  62.9074430  11.7957497  33.2628584  56.6289282   4.7866735  19.8278141
  56.1284685   5.3345358  20.4324794  56.0466385   4.6637395  19.0781093
   8.9336205  35.9204817  59.8010683   8.6599231  36.7008805  59.3190908
   9.7940904  36.1465812  60.1541996  10.8194256  42.5039244   1.5559365
  10.6047356  41.7853832   2.1507800  11.4974892  42.1460104   0.9829094
  38.0018353   3.9718345  13.3015847  38.4433317   4.0444294  14.1477776
  38.5097528   4.5347929  12.7173519  19.5714211  25.6304073  46.0918283
  19.1450953  26.4544034  46.3274336  19.3411863  25.0302601  46.8010902
  72.5008535  21.6997743  33.5703135  72.6953840  21.9726348  32.6736879
  72.3050737  20.7655096  33.4992170  70.0013018  37.8721189  33.1732559
  70.8486080  38.3149147  33.2205629  70.1064491  37.2279620  32.4730873
  19.1588247  71.1310768  24.0699935  18.7928820  71.6290760  23.3390260
  18.8194823  70.2442169  23.9493155  73.6240387  46.8546057   3.2376000
  73.9699078  47.1285534   4.0870455  72.7100658  47.1388054   3.2481927
  29.3899894  18.5577703  42.9189873  29.7340560  19.4507229  42.8969717
  29.1854739  18.4025645  43.8411140  43.1453943   0.3355341   4.3447804
  42.3481607   0.4116460   4.8690471  43.7001848   1.0547478   4.6467227
  73.2619381  38.4818625  49.1994524  73.7229300  38.0865312  48.4595680
  72.3929930  38.6904693  48.8564491   1.8691266  21.1629152  40.6408072
   2.0707004  20.3081799  41.0216331   2.6801765  21.4295745  40.2079964
  68.4309673  23.0318236  48.6631632  69.3179989  22.8190637  48.3730841
  67.9119015  22.2618198  48.4310150  59.9044037  70.9781265  46.3420057
  60.8397341  70.8419275  46.1909056  59.4747829  70.3289986  45.7849693
   7.6754028  48.6223459  26.0042930   7.5522316  48.5552597  25.0574255
   6.7876565  48.6774015  26.3579988  76.0064554  21.3738227  57.1540785
  75.3417730  20.6964183  57.0293617  75.5598497  22.1911383  56.9332457
  27.7324557  36.8669486  18.0495489  28.3447170  37.4897432  18.4413302
  28.1995583  36.0315561  18.0623829  76.3893223  14.6937549  16.6153479
  75.7974100  13.9449787  16.6874886  77.1175241  14.4805074  17.1988595
  75.4189825  22.4751496  45.4858637  76.1181974  22.2860527  44.8601055
  75.8724260  22.8226566  46.2538910   3.4144241  28.9141107   3.2630163
   3.2118249  29.8493052   3.2873893   2.9113957  28.5411191   3.9869452
  23.3194852  70.8083773   2.8674895  23.4425688  70.5520678   3.7814856
  22.4330616  70.5167961   2.6542601  76.9183254  43.4152460  31.8824172
  77.7907705  43.0276394  31.8129373  76.9615889  43.9636993  32.6657176
  80.7284069  13.3410013  49.3894339  81.1130905  13.9073586  50.0583792
  81.4424419  13.1796479  48.7727070  48.1262064  19.9706411  59.1646147
  48.8865614  19.8580885  59.7350788  48.2828283  19.3704879  58.4355593
  72.2302151   3.6831027  62.9429531  72.6319408   4.5484936  62.8658390
  72.4484205   3.2436508  62.1210623  74.2697716  69.0434456   6.8426239
  74.9328566  69.4615698   6.2933344  74.2778921  68.1255913   6.5711236
  64.2028093  66.5087223  15.9769082  63.3732128  66.3718891  15.5194414
  63.9978361  66.3477087  16.8979359  12.9344785   7.3733139  24.0223479
  13.7161684   7.7345693  24.4403052  13.1700838   7.2987807  23.0975962
  40.1109838  23.4305668  42.5209284  40.9616518  23.8485241  42.3871279
  40.1435423  22.6422644  41.9789410  64.5857906  12.1914852  39.5707989
  65.0878859  11.6246223  38.9853072  64.8314571  11.9049644  40.4504490
  61.0043240  12.1528172  44.1976070  60.4745483  11.7549694  43.5067463
  61.6328526  11.4725256  44.4392395  17.0193696  68.7302494  55.0722361
  16.8025434  68.6033630  55.9958792  16.5616596  68.0220366  54.6192837
  31.7199254  24.9635649  44.8141146  31.7287397  24.0088534  44.8825026
  32.6443934  25.2115726  44.8048687  79.2080450  34.7102427  30.4734778
  79.9248552  35.3073359  30.2592325  79.6303892  33.8581038  30.5817342
  58.4697485  32.9302812   6.0252637  58.4184742  33.5259390   6.7727882
  59.3869448  32.6577520   5.9986484  56.3852167  19.5928204  53.1818867
  56.9044971  18.7912595  53.1180334  56.5343714  20.0417542  52.3497534
   2.6765674   6.1019647  46.8492079   3.3554024   5.6437975  46.3537312
   2.1888158   5.4050434  47.2881079  -0.0191254  10.2745819  20.8686972
   0.6023056   9.9309945  21.5105724   0.4956150  10.3775072  20.0682712
  75.6131983   6.6329896  51.3491344  75.1348495   5.9673744  51.8434715
  76.3928843   6.8083668  51.8759775  73.2482004  53.8038874  66.5375137
  73.5135412  53.6630106  65.6286812  72.2956896  53.7099457  66.5262413
  53.9185762  57.6862383  53.6298943  54.8016977  57.3170137  53.6327219
  53.8780117  58.2162428  54.4259310  71.1074877  24.4370604  58.1155825
  71.5288305  24.2276549  57.2820044  71.1381865  25.3924322  58.1661272
  50.2570486  77.1431398  51.5082502  49.6740007  77.8554869  51.2458706
  49.7064972  76.5653276  52.0367002  44.6308851   8.6264759  36.0335207
  44.0744019   7.8982604  35.7573652  44.2496252   9.3941987  35.6075239
  78.0230761  44.3913746  16.0689962  77.9712009  43.6452627  15.4716206
  78.7747288  44.8956680  15.7576501  38.7082672  25.8559537  15.3410697
  38.8539362  25.0185180  15.7811999  37.7566290  25.9231257  15.2629459
   4.2174295  50.0949574   2.7261668   3.7978500  50.0095415   1.8700773
   3.6510697  49.6029472   3.3206359   6.8397522  63.0620575   3.7166649
   7.3410827  62.2488403   3.7764648   6.9344914  63.3352852   2.8041932
  23.7342811   6.5670764  19.9202931  23.9346957   6.2368143  19.0445113
  23.2421637   7.3733413  19.7654092  67.0970154  10.1657748  27.4211121
  66.2493658  10.6065023  27.3621440  67.0509148   9.4692838  26.7661262
  12.5804889  57.9070616   0.0262514  12.5869417  57.9102612   0.9834244
  12.1301222  57.0954275  -0.2075203  35.8706880  54.2381811  31.3176155
  36.1634827  54.1356850  30.4120779  36.4974737  54.8496485  31.7042422
  46.4139318  66.4063406  31.7679882  47.2318125  66.3081360  31.2804866
  45.8010769  65.8165693  31.3288879  66.9833374  18.9212275  57.7480268
  66.4428377  19.6330595  57.4054050  67.7140570  19.3624640  58.1811428
  60.1922464  24.4002676  40.0021124  61.0726118  24.2817807  39.6455264
  59.6084738  24.1248965  39.2952776  25.5182171  74.9354792  51.4734125
  24.6426034  74.9384165  51.8600941  26.0822606  74.5804310  52.1604586
   1.9462025  20.2289605  49.8117256   2.4897856  20.7289457  50.4206324
   2.0517814  19.3187153  50.0883818  59.6538210   9.1471428  31.6480851
  60.2583313   9.4129640  32.3410034  59.8097563   8.2088029  31.5411544
   3.0498600  17.0626867   2.0739098   3.1284913  16.2718225   1.5404478
   3.7372476  17.6423287   1.7456630  14.0797412  33.7826681  53.5147238
  14.9689507  33.6553597  53.8453722  13.9481688  33.0625916  52.8979492
  81.3461876  27.1807003  54.3044376  81.7097282  26.4839339  53.7580061
  82.0641708  27.4270248  54.8875809  27.5775433   9.9225783  52.5012493
  26.9142652  10.4740429  52.9161978  27.8150797   9.2855507  53.1750488
  13.7674081  51.4062834  41.4924288  12.8468800  51.6591024  41.4221334
  13.7691927  50.4621458  41.3348341  76.1803675  15.4003751  49.9896479
  76.9586468  14.9261606  49.6970129  76.3049650  16.2908661  49.6614170
  71.7102194  18.2746029  61.6654348  71.9822168  18.2406509  60.7483244
  71.3240385  19.1443360  61.7686844  65.0524235  75.6706953  60.9009504
  65.2256870  74.8268080  61.3181639  64.7519636  75.4453802  60.0204992
  65.3719807  13.2691669  36.0841775  64.5203590  13.0455053  36.4596033
  65.1827621  13.9728832  35.4635239  79.7557640  65.5413198  18.5919976
  78.8108063  65.6057930  18.4536636  80.1389980  65.8129263  17.7579761
  73.7629509  68.4352875  60.1388597  73.8428068  67.8367233  59.3961763
  74.2410517  69.2188597  59.8674440  60.3764629  77.3920536  37.3396039
  59.4431877  77.5968122  37.2821379  60.7702446  77.8606939  36.6037035
  82.6332092  34.0537834   5.2214026  82.2143936  34.0392542   4.3608138
  83.5203266  34.3702149   5.0507343  57.2960758  24.8434305  13.4844649
  56.9415760  25.1358914  12.6448047  58.2340527  24.7385788  13.3249760
  39.6798563  56.7200422  26.3895988  40.1605940  57.3534775  25.8567905
  38.7659693  56.9972754  26.3248944  57.5993586   4.1689104  56.2960577
  57.5262499   3.2693368  55.9772253  58.0154085   4.0858409  57.1540976
  40.8247662   9.8291391  23.8576174  41.1592150  10.0972176  23.0017495
  40.3364897  10.5896747  24.1729021  33.8039875   9.6239400  24.4497252
  33.1424570   8.9526486  24.6169901  33.9668179  10.0184786  25.3064966
  69.3232441  44.3942404  33.6308813  69.0126371  44.8343658  34.4221115
  68.8558912  43.5589314  33.6223102  22.0722389  18.5413313  10.9601021
  21.4102101  19.0127873  10.4544544  22.6506925  19.2265081  11.2949979
  14.3475747   7.7100104  60.6901646  14.8226678   7.7881938  59.8628759
  13.6840713   8.3988416  60.6513500  82.8141022  66.2184238  65.1796961
  82.0177078  66.2027597  65.7104921  83.0244160  65.2957201  65.0360918
  49.5941496  16.9678807  43.3024168  49.4342232  16.0456669  43.1019735
  48.8018417  17.2552490  43.7561798  65.6810331  11.8937898  23.4621620
  66.2615442  11.1875045  23.1786108  65.9664679  12.6555324  22.9576778
  77.1294165  44.2273617  51.2049723  77.9200411  43.8602781  51.6004419
  76.4309883  43.6259604  51.4633226  66.2954617   1.8814659  37.9606247
  66.1544752   2.7517933  38.3332968  65.6318855   1.3319641  38.3776951
  80.1535225  22.6600313  56.0379791  79.6652412  23.0455494  56.7654324
  80.8420086  23.2971120  55.8473253  57.3569107  16.1632991  28.4403372
  58.0611801  16.4270461  29.0325165  57.2810602  16.8886209  27.8203487
  71.8684626  35.5351853  38.3875942  71.0891342  35.3323913  37.8701425
  71.7208767  35.0958467  39.2251086   7.1666658  36.6926789  52.2162819
   6.8893450  35.7776594  52.2617149   6.6521704  37.0635629  51.4993620
  10.4406798  78.2214928  60.1430511  10.8001196  77.4790859  59.6573877
   9.7096413  77.8522444  60.6385040  11.5073264  30.2036142  47.3289824
  11.7595708  30.3040910  46.4110994  11.2521482  29.2844439  47.4080086
   4.3236315  62.1218061  44.7599173   4.2442569  63.0685949  44.8762035
   5.1379991  61.8929148  45.2078533  17.1602607  14.7213852  40.2902985
  17.3674309  15.4985940  39.7713971  17.9893327  14.4819272  40.7044601
  82.8349876   5.9354210  36.1580229  82.2531319   5.6497347  35.4537106
  83.3543301   5.1595819  36.3691831  77.7482843  11.5796614  60.9177208
  78.1522560  11.8506086  60.0933266  78.2468081  10.8079958  61.1864853
  16.9252980  69.4437218  34.2891431  16.0188484  69.4460773  33.9816141
  16.8555641  69.5198298  35.2407622  75.9159851  50.6113100  64.7159815
  76.1137486  50.8911991  63.8222361  75.2405596  49.9409008  64.6130991
  50.7989359  69.7468758  55.6089497  49.8429251  69.7627878  55.6539154
  50.9947920  69.7540712  54.6720266  52.8485727  26.4018416  47.4379873
  53.2457304  26.9218969  48.1365824  51.9460011  26.7167163  47.3885298
  70.3253365  29.3116021  60.4097939  71.1684036  29.3584847  59.9589396
  70.4364586  29.8640585  61.1835384  31.9056749  33.9037561  59.3297243
  32.3855376  34.7193933  59.4736004  32.0250964  33.4093761  60.1406240
  42.3280859  24.6691275  41.8854380  43.0013323  25.2704573  42.2038269
  42.8183365  23.9487123  41.4893436   1.0272337  75.3224087  35.3637171
   0.0753176  75.4058695  35.4195881   1.1684720  74.4981718  34.8979735
   4.5347089  53.5468292  52.5450468   5.4833335  53.4858370  52.4326944
   4.2028785  53.7539434  51.6714191  16.9032633  54.5355511  10.2527809
  16.6905189  55.4522705  10.4276836  17.8319895  54.5451689  10.0212479
  73.7750244  27.2777534  13.1015456  74.1210079  26.8160486  13.8653231
  73.6184263  26.5887451  12.4558091  72.7252054  76.0411930  33.5196233
  71.7714500  76.1015749  33.4654331  72.9543734  76.5576220  34.2922902
  50.5543470  74.8030615  39.5683455  51.1540604  75.5490255  39.5792985
  50.7562447  74.3216276  40.3706503  74.5286751  17.7462173  29.3425035
  73.8077974  17.2352409  28.9744401  74.1106606  18.5337377  29.6907949
   7.8146225  21.1887622  13.2560909   7.6352680  20.2526903  13.3445966
   6.9594330  21.5808511  13.0795956  54.6131563   5.2969593  27.4852061
  55.3969860   4.7611189  27.3638654  54.0094662   4.7324106  27.9679823
  25.2126884  61.9901657  57.3317051  26.1116242  61.9238472  57.6538038
  24.6699524  61.8868542  58.1133699  78.8539743  29.2380404  29.4384480
  79.7121334  29.0449929  29.0609169  78.4397411  28.3813715  29.5421720
  18.2620573  60.0028658  32.3368788  17.8714168  59.5400524  33.0781198
  18.6130178  59.3086481  31.7790961  83.9324856  13.5667765  40.8853340
  84.7262383  14.0499210  41.1150265  83.3297539  14.2363012  40.5617809
  26.7910695  23.4604597  21.6708159  27.7098417  23.2122350  21.5684891
  26.4685774  22.8995895  22.3762608  21.6509652  23.5159516   5.5739677
  22.1546030  23.7496305   4.7942400  20.7518768  23.4222603   5.2591801
  32.0715022  31.0783863  21.0032749  31.7827582  31.6577339  20.2981400
  31.2666297  30.6708384  21.3231444  67.1582890  76.6118193  41.9515753
  66.4386749  76.9517756  42.4833870  66.7732906  76.4771223  41.0856295
  39.7483993  13.6953378  39.0548229  39.6692133  13.6595714  38.1015730
  40.2106094  12.8899705  39.2871499  50.4639769  24.1326261  37.7042770
  49.7199869  24.7282600  37.7933407  50.2055836  23.3517623  38.1938815
  51.7346716  49.1397476   5.3186101  51.8506145  48.3542204   4.7840685
  51.5027094  48.8073015   6.1857337  77.1085691   9.9015105  34.5894861
  76.2489939   9.4916624  34.4926119  77.0786047  10.6611979  34.0079284
  26.6747046  34.4457459  31.7734480  25.7620215  34.7123909  31.6632581
  26.8039465  33.7583065  31.1200285  33.2219005  48.3338976   3.8134265
  34.1262913  48.1532240   4.0696844  32.8926969  48.9206457   4.4942933
   2.6176324  28.4211326  58.5397434   2.8033751  28.5809755  59.4650412
   3.1784523  27.6810980  58.3072329  33.1271052  54.5113897  19.0333951
  33.3294320  55.1017046  18.3075666  33.9470172  54.4435787  19.5226574
  15.6276989  11.4830613  47.3065615  15.6813204  11.7812467  48.2145500
  15.7896900  12.2698998  46.7861032  79.8955965  15.2147913   9.5525306
  79.9500895  15.7685554  10.3313816  80.6958961  15.4085183   9.0644425
   4.8205552  60.8806372  55.7577372   4.0027326  61.0537577  56.2240314
   5.3802806  60.4536486  56.4062881  35.2777863  25.5282521  48.2146645
  34.3839788  25.5357671  47.8722000  35.6363535  24.6876979  47.9298306
  42.9822826  33.6640549  55.1414347  42.3790646  32.9417396  55.3164291
  43.4019613  33.8352275  55.9845257   2.3177250  24.4589353  54.8036957
   2.8853357  24.1623569  55.5150938   2.5785109  23.9272308  54.0516901
  74.6692705  68.8820076  63.0541182  75.5531406  69.1527653  62.8057241
  74.2745018  68.5751486  62.2378922   2.3295559  21.0524631  15.7881427
   1.9113380  20.6933069  15.0056255   3.1714803  20.5998898  15.8388722
  17.5961983  11.8099904  56.2767792  17.5906086  11.0410726  55.7067204
  17.5691760  11.4508486  57.1636391   5.9355217  31.3917398  28.5455871
   5.4401147  32.0217443  28.0222344   5.5732387  31.4756513  29.4275975
   8.5366744  47.7751112  31.5879893   8.4458810  47.9045582  30.6439376
   9.2895299  47.1909237  31.6783285  73.5396290  25.2815986  27.2135830
  74.2249918  24.9214840  26.6507101  73.8057137  26.1885810  27.3646116
  51.4621639  75.5374336  62.8351688  52.0321512  76.1206198  63.3364058
  52.0640516  74.9769306  62.3454762  73.0379534  17.0087636  54.3595171
  73.0180979  17.1968865  53.4211969  73.9682913  16.9196498  54.5662975
  83.7568378  46.8965673  35.0605130  84.0012646  47.6499796  34.5230532
  83.5016727  46.2243223  34.4286823  62.2128201  46.5489769  28.0711007
  62.1226168  46.5161324  29.0234733  61.6852283  45.8154726  27.7551079
  49.7254944  73.5364819  63.1150150  50.2475882  74.3344402  63.1981373
  49.6718359  73.3825350  62.1718025  77.2510767  64.8591232  51.2752295
  78.0771494  64.7824001  50.7977915  77.3794842  64.3301678  52.0625973
  67.8949547   9.2449951  41.1498070  67.1447706   8.7686121  40.7941151
  67.6128149  10.1595509  41.1645269  27.1595621  79.5996618  38.5412383
  27.6276207  79.2356634  37.7898026  26.5138888  78.9304972  38.7683010
  16.3828528  55.3326130  20.7050228  16.0661709  54.4825935  20.3993845
  15.5901814  55.8573484  20.8170867  79.8207378  44.3389893   6.8231487
  80.6988049  44.0720844   6.5511411  79.3731689  44.5583391   6.0059595
  29.4811058  60.5618811   5.0877029  30.2846670  60.5642509   5.6078166
  28.9971614  61.3299847   5.3910953  60.3594542  16.9173920  12.8473663
  59.8525953  16.4086437  13.4802198  60.9191608  16.2724566  12.4149156
  50.4714775   2.9426810  40.8592796  49.6404028   2.5778538  40.5552292
  50.9158993   2.2072376  41.2809992   7.6350409  28.0193114  44.4427109
   8.0768132  27.3939991  43.8682079   7.5852102  27.5737500  45.2884197
  16.6643369  41.3164854  63.0869722  16.9692850  42.2217178  63.0253744
  17.4349642  40.8226871  63.3672047  19.2409980  29.4174361  67.8553820
  19.5229876  30.2354360  67.4460030  18.4794009  29.1438603  67.3441505
  75.7573128  33.8933110  57.7767611  75.4634571  33.4635186  58.5799789
  76.0705328  34.7507477  58.0647326  84.0102291  32.9568911  62.3318911
  84.2639351  33.8720560  62.2121572  84.1480160  32.7901745  63.2643366
   0.9200985  41.4501953  36.0469222   1.6316453  41.1243248  35.4957938
   1.3571668  41.7807865  36.8317246  80.2499771  36.5308881  36.6514540
  80.0187778  37.4502802  36.7837191  80.5969715  36.4970326  35.7600021
  38.4176254  16.0807621  39.5152020  38.9633703  15.2954721  39.4737864
  37.5510550  15.7851982  39.2360425  65.0664139  53.6683178  45.1694536
  65.8848763  54.0976238  45.4185343  64.6503735  54.2799330  44.5619440
  42.5821114  24.2926860  27.8785181  42.6015615  23.3584285  28.0859280
  43.4754324  24.4949579  27.6005006  81.1480999  40.2663851  29.7711802
  80.4045296  40.8581734  29.8856902  81.9122124  40.7942057  30.0030589
  58.3963585  36.4227557  14.9134421  57.9296494  36.5956426  15.7310760
  59.0167761  35.7280374  15.1340830   6.6995180   9.4744551  34.5698571
   6.8657178   9.1952568  35.4702234   7.3689520   9.0264827  34.0527391
  74.4929504  18.9822638  56.6269398  73.9179087  18.2362020  56.4567947
  75.1636171  18.6380959  57.2168398   0.3589062  50.8198547  42.1299171
  -0.3396720  50.2491140  41.8097973   0.7098864  50.3631496  42.8944206
  55.2133322  54.6820974  17.1587515  54.9723530  55.0268316  16.2989163
  55.7545710  53.9163256  16.9666731  82.9270458  22.8279901  31.6305327
  82.6994514  23.3750176  30.8787417  83.6468887  23.2935596  32.0563245
  70.2763128  52.3534632  63.8666058  70.9247351  52.5209999  63.1827116
  70.7775021  51.9591331  64.5804310   0.4511227  18.9494562  32.8125215
   0.7849057  18.1183112  33.1501889  -0.4846638  18.7963629  32.6817608
  19.4143283   7.6761657  55.8804989  19.2063999   7.0508653  56.5747595
  18.8983095   7.3813051  55.1301575  17.0081508  46.9106054  10.4534447
  17.3271334  46.0344028  10.6696761  17.5241828  47.4967241  11.0069859
  17.3768806  34.1683006  61.6765881  18.1050539  34.7711158  61.5262270
  17.5141025  33.4641576  61.0428810  30.1712775  59.8494768  15.5011523
  29.8831916  59.3377638  14.7452486  29.8712301  60.7394457  15.3163314
  52.4526024  45.1197004  63.7035513  51.9828367  45.5378008  62.9819298
  52.9847240  45.8202696  64.0807533  13.0376828  30.2742672  29.2121911
  12.4083829  30.9944463  29.1727352  13.8610721  30.6589532  28.9117289
   5.3882879  25.3013086  44.2281914   4.5018286  24.9943566  44.0379238
   5.3013736  26.2514329  44.3052673  46.6421556  34.6960115  63.6786461
  46.2852859  34.6692157  62.7908611  45.8895636  34.9016762  64.2332029
  22.1707916  38.3689737   4.0131691  21.4561987  38.6306357   4.5937920
  22.6999593  39.1602850   3.9129719  12.1991122  63.0568361  39.6816707
  11.9375944  62.9812813  40.5993509  13.0587506  62.6376629  39.6423101
   8.0410582  19.7620106  38.2157612   7.7233738  19.1430962  38.8732195
   7.4173439  19.6855569  37.4937034  19.0768814  41.7186069  48.9087486
  19.6531165  42.4657345  48.7475443  18.3660412  41.8235493  48.2763529
  66.4837980  24.1551304   5.6380671  66.6920662  24.9153852   5.0950480
  67.3225451  23.7099504   5.7586783  37.1917725  10.5089986  24.8787832
  37.9375505  11.0776436  24.6872354  36.5305710  11.0963380  25.2449441
   4.0906873  46.0415936  41.5255404   3.4026718  45.8456564  40.8895540
   4.6345302  45.2540350  41.5403223  23.4627295  39.9977255  17.1951127
  24.0050459  39.2095518  17.2252095  22.6656651  39.7228599  16.7419338
  22.7536750  11.3868475  52.2191620  23.2134771  10.9958875  51.4762211
  23.1894684  12.2282445  52.3546886  84.5312119  14.5659864  49.9326277
  84.1712666  13.8300133  50.4276228  84.2034054  14.4390202  49.0423203
  78.3498526  25.0550485  64.0916300  79.1636562  25.5280280  63.9176989
  78.5302782  24.1573334  63.8127279  43.0366325  56.1753702   1.3764347
  43.5914993  55.5707169   1.8691279  43.2646608  57.0406818   1.7162511
  13.0863774  67.2000742   9.1877723  12.2309613  66.8243265   9.3958741
  13.4258425  66.6475010   8.4837455  82.9247475  15.7144463  36.1324573
  82.0685101  15.4317927  36.4537024  82.8723240  15.6052017  35.1829576
  39.2527866  22.5306129  65.6248426  39.4343901  23.3337379  66.1129427
  38.7487960  21.9896436  66.2327719  36.6589499  70.7414246  64.5277882
  37.0881653  71.1132050  63.7572145  37.3364019  70.7442474  65.2040148
  62.1211576  14.8949504  36.4829469  62.6528835  15.0337338  37.2666788
  62.1125889  15.7462907  36.0454798   2.4087204  60.4254103  44.2442799
   3.0770743  61.0654688  44.4889402   2.8600705  59.8212576  43.6547756
  63.3759117  52.4300575  36.0573339  63.2166815  52.8516388  35.2128530
  63.4025669  51.4944935  35.8567381  70.3611898   7.4809659  55.9581900
  71.2155867   7.5340581  56.3864708  70.3128624   6.5828568  55.6306267
  70.9676075  39.2136884  41.9789648  70.4958725  39.9499154  41.5895176
  70.6594658  39.1839743  42.8847218  59.5397615  78.6973286  27.9226327
  59.3038177  78.3841372  28.7958288  58.8077831  79.2568064  27.6629639
  24.1778398  36.4729548  49.3149281  24.3142295  35.8842850  48.5725689
  23.7711906  37.2505093  48.9324665  80.1140976  30.0787711  39.7743034
  80.5825996  30.8813643  39.5450044  80.8045483  29.4333577  39.9257970
  71.3691473  12.2096670  45.5315399  70.6671143  12.3635042  44.8993111
  71.5571451  13.0746245  45.8958721  42.4369287  78.6163855  23.6066842
  43.1257772  78.2465982  24.1589284  42.5035286  78.1317282  22.7839398
  70.1884842  42.4948311  37.9574752  69.6867037  41.6861773  37.8548646
  69.5326185  43.1907177  37.9148531  12.1645486  41.0844469  45.9441233
  12.8353691  41.3320208  46.5804720  12.6531339  40.8909369  45.1440811
  52.2384214  45.2572680  52.2597837  52.7405500  45.8011627  52.8666401
  52.6945305  44.4157267  52.2588301   6.3933283   9.1580051  18.3969760
   6.4037913   8.6736786  17.5714147   5.5442953   9.5999515  18.4046447
  13.2729328  19.3954623  49.0168905  13.8317418  19.2641068  49.7828627
  12.5890779  18.7312078  49.1025734  20.0268459  18.0753851  15.5629885
  20.6663346  17.4929440  15.1530528  20.1887727  17.9858041  16.5021300
  40.3244638  74.0149021  46.7873430  40.5550909  74.1637754  47.7043343
  39.5818949  73.4118891  46.8219900   6.3152969  35.9657788  20.8896041
   7.1958143  35.6155396  20.7545018   6.0919166  36.3802505  20.0562096
  42.1508408  78.1034470  64.5521450  41.7544127  78.6007929  63.8367987
  41.7209005  77.2489691  64.5168161  52.3184538  29.6215725  59.8292542
  51.5258360  29.5717144  60.3635788  52.0783281  29.1991377  59.0045595
  49.4966459  65.0637722  51.9154692  49.2171144  65.7063198  51.2633753
  48.7497139  64.9841309  52.5087547   2.1575418  79.1548634  48.7963295
   1.8384287  78.3400249  49.1841888   1.9103748  79.0938091  47.8736115
  28.3801413  53.2322931  16.6446984  28.5597229  53.9169359  16.0003042
  27.9098654  53.6817122  17.3469067  70.7666683  40.2048111  52.8754091
  70.1595163  39.6426296  52.3942137  71.1981487  40.7260942  52.1984196
  54.6966934  43.3852482  25.2417612  54.1679144  42.5915194  25.3231311
  54.3275261  43.9863539  25.8887649  69.0380335  39.8368406  37.7567482
  69.3659306  38.9542484  37.5842738  68.3851242  39.9876094  37.0732212
  10.9088969  48.3541441  19.3183494  11.8355250  48.5127687  19.4984365
  10.7867861  48.6473322  18.4153748  71.7976904  33.8944244  41.4365959
  71.0494423  33.6435056  40.8949327  71.5710258  34.7622085  41.7709684
  55.4727697  34.2090774  20.5247259  56.2684917  34.3306756  20.0067830
  54.8870945  33.7145114  19.9514699  35.7832313  20.3027105  48.3991241
  35.0365400  19.7072327  48.3351612  36.2911987  19.9712145  49.1396046
  23.3220482   2.8033087   1.7662193  22.5456429   3.2284436   2.1304810
  23.1291389   1.8671918   1.8182167  60.1827526  70.4536295  60.5861807
  60.1911974  69.5904064  60.1726580  59.9706697  71.0579300  59.8747921
  78.4764862  46.1596966  53.7488079  77.6062012  46.2954330  53.3740902
  79.0761709  46.2854099  53.0134153  62.1432829  55.5266666  47.8096247
  62.9187202  56.0612726  47.6389456  62.3292494  54.6912432  47.3810005
  83.9500141  45.6464291  27.8529596  83.1090260  45.5406046  27.4082398
  84.4585514  44.8795605  27.5892806  43.1969833   0.7879005  15.8281696
  43.7695360   1.3663884  15.3244185  43.7073040  -0.0137796  15.9426808
  58.7795734  75.9769440  20.6447768  57.9079103  76.3303089  20.4670811
  58.7574244  75.0912762  20.2823734  18.6484098  24.8543572  36.8587136
  19.1206598  24.0313029  36.7330384  17.9758632  24.6479058  37.5077820
  55.8747673  55.0631189  44.8760891  56.3901854  55.2334023  44.0876865
  55.0316763  54.7502708  44.5481396  20.9969544  66.2673140  38.4377384
  20.9479499  65.7879734  37.6106572  21.5072560  67.0502901  38.2309151
  25.7620478  50.2872086  32.7904272  25.4911709  50.1014185  33.6895037
  25.0784230  49.8937273  32.2481561  20.8101535  39.3972015  60.1153135
  20.0343394  38.9237618  60.4156446  20.6125617  40.3170490  60.2915716
  65.7265067   0.2928729   0.9740148  65.4343533  -0.5980544   1.1666988
  65.5525517   0.4051251   0.0394715  44.4326353  14.6361554  20.6831789
  44.9212933  13.9466214  20.2337503  43.9645147  15.0925756  19.9840546
  24.5698285  40.1534605  37.3369074  25.2309108  39.8473954  36.7159986
  24.4683290  41.0844946  37.1391416  45.0629330  73.8431787  55.3203249
  45.0351477  74.7669554  55.5695057  45.8982420  73.5272121  55.6647873
   0.9452709  45.1637793  55.0835037   1.1315084  46.1017752  55.1248455
   0.6574714  44.9375248  55.9679317  79.1894960   7.9530019  23.8022757
  79.9732542   8.5017598  23.7736058  78.7984324   8.0483812  22.9338264
  30.5513859  69.6871328  38.0953526  30.5370474  69.0769386  37.3580027
  30.8783150  70.5058289  37.7224088  54.9483442  77.9981375  23.5411072
  55.0275755  78.2953978  22.6346898  55.8423615  77.7726603  23.7982440
  26.7034435  70.0592804  37.9000783  25.8031487  69.7442722  37.9805040
  26.6145229  70.9672308  37.6103282   2.6510257  68.4007788  60.4959154
   2.5495443  68.8279057  61.3464975   1.7711470  68.0957174  60.2745962
  69.2505550  70.1573658  56.9082737  68.5765791  69.4863176  56.8001652
  69.8948336  69.7577810  57.4926281  77.2447252  13.5627544  36.0014963
  76.6064453  13.2913733  36.6611767  77.3644543  12.7886486  35.4513526
  32.3786426  12.0520139  44.2714024  32.3333693  11.2612116  44.8088169
  32.6662874  12.7362227  44.8758459   9.8365104  65.6186199  22.5183630
   9.1350698  66.1891460  22.8325486   9.4240010  64.7596598  22.4274850
   9.2933047  61.6649103  28.1822324   8.4745473  62.1141720  27.9723907
   9.0571433  61.0476112  28.8746214  68.1459618  10.7259595  49.5400667
  67.6920843  10.0287414  49.0666628  67.5997066  10.8881736  50.3091717
  21.5229392  77.9738855   3.9263970  20.7701182  77.5649595   3.4994617
  21.4062452  78.9112091   3.7713727  21.2532806   9.7644693  34.3235373
  21.1517787   9.1304243  33.6136651  20.5114865  10.3605294  34.2201757
  72.7201414   7.5464946  12.0477951  71.9145823   7.5391060  12.5647581
  73.4093809   7.7465117  12.6811826  67.3890495   6.0404557  54.8185492
  67.4441147   6.9748741  55.0187063  68.1321573   5.8756346  54.2381573
  23.9348650   7.8919631  58.0849791  24.7769380   8.1758201  57.7292156
  23.3212805   7.9923755  57.3572016  76.1762476  44.8960209  62.9923677
  76.4937019  45.4389191  62.2707605  75.9968996  45.5170059  63.6983728
   4.2063624   9.3376476  23.4328127   3.2993686   9.0538669  23.5471058
   4.6797621   8.9229625  24.1540337  82.5853443  23.6082959  34.8462129
  83.3254051  23.8997030  35.3787827  82.8199959  23.8587213  33.9526463
  80.4986763  13.2054102  67.3350477  79.7365856  13.4399545  67.8646135
  80.8511543  12.4216032  67.7565193  54.5581961  48.4100771   7.8094131
  53.6875677  48.0744696   7.5958526  54.3953657  49.2724705   8.1915063
   3.8406518  34.6061850  32.5773716   4.4941020  34.3636703  33.2334375
   4.0021333  35.5347610  32.4103332  75.2560425  45.8414412  37.2266316
  74.6929550  45.2810478  37.7606010  75.8820105  45.2388716  36.8249989
  20.7073450  19.4384515  28.6168575  20.5878663  18.8391769  29.3536234
  20.7318830  20.3077698  29.0167522  76.4754534  13.0798268  45.8106613
  76.2862682  12.3665273  46.4202881  77.4193668  13.2179904  45.8891726
  67.4334717  12.7765810  32.5647831  68.0977869  13.3934724  32.8719640
  67.1411753  13.1366634  31.7274451  72.4725246  18.9746797  42.2163391
  72.9563236  19.3138182  41.4632368  71.5775824  18.8631344  41.8956089
  84.3168640  28.0096555  50.2136803  83.6351395  27.4144959  49.9017906
  84.1744518  28.8169599  49.7195053  43.4476328  51.8621206   7.8882444
  43.9772558  51.7107296   8.6710668  43.3423901  52.8127670   7.8504312
  73.3584642  68.2567596  52.1269751  73.9661455  68.7332296  51.5613461
  73.7134981  67.3686790  52.1656275  20.0211239  77.8842497  11.9066155
  19.8933983  78.4717560  11.1618006  20.9710550  77.7899837  11.9771671
  19.9065804  21.2948203  55.0686836  20.8126903  21.2050891  55.3638840
  19.6431649  22.1659184  55.3653860  10.4495037  19.8498344  19.4082642
   9.7583789  19.1907227  19.3438423  10.7545471  19.9657595  18.5084081
  70.7565880  48.4634876  42.1940136  70.6862259  47.5554180  41.8995810
  69.9414492  48.8730907  41.9041824   3.2730299  23.2831979  46.5924644
   4.1229641  22.8469539  46.5330076   2.6776236  22.6051688  46.9118404
  16.6110313  60.3752661  19.2972445  16.2146950  61.1181164  18.8419199
  15.8853710  59.9710178  19.7728837   8.6608988   6.5557909  68.7693453
   9.4739759   6.1179006  69.0211201   8.9012927   7.4786973  68.6875772
  74.3485641  35.9657049  21.9541860  73.9280415  35.5694938  22.7173424
  75.1161098  36.4139318  22.3094249  68.6005068  47.9574251  46.5579939
  68.1524229  48.5306549  47.1799755  67.9973030  47.2253990  46.4294863
   9.3629599  11.0085320  28.2823205   9.6260905  10.9264112  27.3656702
  10.1805305  11.1721921  28.7524557  14.7873187  74.2429781   7.6746863
  15.6834996  74.2612553   7.3388910  14.5250893  73.3248472   7.6076096
  52.9449892  30.5883527  15.5348337  53.5785866  30.1900434  16.1316061
  52.4234533  31.1672783  16.0907805  15.7258582  77.2807550  25.5937362
  15.2110326  78.0756378  25.4546356  15.1449227  76.5690470  25.3250003
  79.2218447  54.0759230  14.8470759  78.6365938  53.8029861  14.1405189
  79.5363235  54.9389219  14.5776975   7.0455456   2.4953839  47.2085857
   7.8435808   2.8590918  46.8250656   7.3470521   1.7478289  47.7248096
  55.3737450  62.2583055  57.6655340  55.5420256  63.1839609  57.4892616
  55.8035564  61.7955256  56.9462824  42.4390125  29.8671436   4.5371461
  41.7556763  29.7551417   5.1980114  43.0295944  30.5207300   4.9116695
   9.6038800  23.4709024  17.4467552   9.1736484  23.4321404  18.3009398
  10.4079270  23.9653254  17.6057732  58.0277538  16.4132690  66.1834669
  57.7292299  17.2384572  66.5657997  58.9518547  16.5624404  65.9834146
  13.6382937   9.0729082  35.0739336  13.0878413   9.5472664  35.6970072
  13.7412858   9.6760190  34.3378091  32.8503799  17.8140044  17.3746920
  33.2859850  17.4426007  16.6075301  31.9499063  17.4945712  17.3168802
  77.8657913  22.3229122  43.7184381  78.8075686  22.3767447  43.8808727
  77.6859283  23.0411625  43.1118107  84.2889881  49.3524551  37.7800035
  84.0009022  49.8825169  38.5231543  83.5655689  49.4027233  37.1552134
  66.5031815  40.8555174  14.6210670  67.2760725  41.3545084  14.8854148
  66.7830420  40.3755045  13.8416445  79.4991636  48.6328411  31.8858290
  78.7805223  48.6876631  31.2559223  79.8182487  47.7337980  31.8075109
  32.7434301  30.0575900  61.9869852  32.4714184  29.3658209  61.3839102
  32.6548934  29.6662116  62.8560162  64.7337008  56.0844183  31.4940882
  65.3588724  55.4048681  31.7462802  64.6573305  55.9988594  30.5437851
  84.4935124  68.1413078  27.1664238  84.6016961  68.5708570  26.3178873
  83.5790590  68.3001804  27.4004436  70.8273554  71.0418940  16.2550294
  69.9351120  70.7009220  16.3172305  70.7800388  71.9108152  16.6537380
  19.5396292  58.8700771   6.6334873  18.8825357  58.5582495   7.2557598
  20.0169373  58.0819464   6.3741404  78.0322933  10.6178713  55.5651379
  78.3548117  10.3297353  54.7112083  77.0861816  10.7031286  55.4475117
  67.4937344  46.6644096  59.8477173  67.4095440  46.8540049  60.7821655
  67.7919197  45.7554770  59.8136568  16.9160271  48.2217360  60.5585527
  17.5814021  47.5471640  60.4226828  16.0968232  47.7351427  60.6500053
  10.7762027  38.8264632  55.1729298  11.3769650  38.2433963  54.7088718
   9.9107254  38.5975695  54.8341274  82.9566193  38.9304781  27.2547293
  82.1051407  38.8669419  27.6873803  83.0359077  38.1142664  26.7610264
  69.9783754  46.6626930  14.6032703  69.7502899  46.2457418  13.7723911
  69.2267179  46.4924717  15.1709545   4.8637623   9.5878839  49.7728348
   5.6553000   9.8236465  50.2566910   4.6908912  10.3448045  49.2129946
  68.9523077  58.2647943  14.1253126  68.1473017  58.3267260  14.6394730
  69.2182541  57.3488426  14.2061341  77.8878880  31.6701508  53.8771152
  78.2015800  32.1167779  54.6634722  77.1165943  31.1843228  54.1691923
  40.8302450  10.9648550  49.7773314  41.4916563  10.3660476  49.4306421
  39.9948764  10.5548990  49.5529842  16.5019631   1.2150604  21.7174006
  16.1405265   1.2304620  20.8311963  16.9067538   2.0756364  21.8259621
  50.1401234  50.0422907  27.5558901  49.7147894  50.5379629  26.8561506
  50.9777403  49.7697067  27.1812916  23.2894802  41.7414856  27.6983476
  22.4585533  42.1406555  27.9561448  23.1903958  40.8161688  27.9224205
  63.4192896   8.9520133   2.1129811  64.0693331   8.4742302   2.6281518
  62.9672527   8.2745528   1.6100460  15.8257091  55.1719236   5.2558696
  16.5778220  55.5818462   5.6830931  15.1873708  55.8792877   5.1642889
  72.5366354  49.5375824  17.0641768  71.8905640  48.9896059  17.5097597
  72.0525455  50.3253412  16.8165374   8.3187866  68.2182932  35.0213671
   7.7844161  69.0008163  34.8859429   8.7795234  68.3823442  35.8441925
   7.3817730  37.5675654  39.3501449   7.9985309  38.2887578  39.4755411
   6.6868353  37.7332115  39.9872136  67.9759598   8.0205262  35.8147907
  68.3589172   8.8965410  35.7682061  68.5405827   7.5443602  36.4236379
  48.3320332   3.7176251   4.4650757  47.6414490   3.8224864   5.1195467
  48.1560183   4.4019896   3.8194004  47.3018074  14.9253058  11.5197659
  46.5602493  14.9652040  12.1236932  47.2547245  15.7452726  11.0281658
  43.3555126  73.7764740  62.3040867  44.1268682  74.3363953  62.2161818
  43.5511112  73.0124092  61.7617035  22.0997167   1.5776122  61.1036777
  21.6039443   0.9426483  61.6206503  22.0550823   1.2439707  60.2076197
  26.1826229  27.5810242  31.1120844  26.8777657  28.1273770  31.4788365
  26.4977193  26.6843247  31.2255597  28.0056858  21.9790626  29.2989159
  28.9565301  21.8724942  29.3266654  27.6659155  21.0856247  29.2483330
  26.6572857   0.7249735  41.8478060  25.9344077   0.1980691  42.1884632
  26.3363361   1.0587846  41.0100746  65.2321768  22.4538445  28.5062575
  64.8267651  23.0146933  27.8449559  64.5205116  22.2435141  29.1108465
   0.5032508  29.5064330  11.9908667   1.3349175  29.0336251  11.9590378
  -0.0989468  28.9665294  11.4789164  61.6243458   1.8630838  52.6615667
  62.0219707   2.4059168  53.3423424  62.1641254   1.0729040  52.6395941
  81.4521313  17.5440776  44.5714140  82.2270203  17.0240629  44.3584108
  81.6693687  18.4288871  44.2778969  63.0411720  37.1536803   0.4176531
  63.2407570  36.2762761   0.7440868  63.7493896  37.3476219  -0.1963874
  23.6834931  78.1770992  34.4759321  24.5466995  78.5201454  34.7070765
  23.3214879  77.8617382  35.3040218  79.8112392  38.0229807  31.4925337
  80.3464699  38.7699533  31.2246037  80.1981258  37.2753906  31.0368347
  79.5261145  31.8356514  66.5340376  79.1672611  31.1832356  65.9325314
  78.7636757  32.1726727  67.0044994   9.0598178  10.3099597  18.9098024
   8.1797791  10.2207255  19.2755890   9.3968928   9.4147259  18.8756096
  53.5115671  75.5317783  14.9696767  54.4308424  75.2670622  15.0026953
  53.5218000  76.4616728  15.1964319  41.0426283   2.9473767  40.4928732
  40.7017040   2.1498418  40.8977699  41.6620016   2.6351786  39.8332238
  56.0695696  72.7737665  32.0803142  55.5260038  73.5482597  32.2249866
  55.6621838  72.3308849  31.3359165  58.6715841   1.2652671  51.3861036
  58.5953236   0.3786513  51.0335016  59.5651340   1.5325989  51.1708450
  70.5483723  18.7399566  36.9678235  70.6761646  19.6843886  37.0569730
  69.6369743  18.6467040  36.6905379  67.4304438  16.4250898  11.0163653
  67.9288530  17.2139287  11.2298036  67.4388218  16.3879526  10.0599217
  67.3799753  72.4140596  13.9613986  66.6009283  72.9623699  14.0545070
  68.1048965  73.0361938  13.9008558  60.1353550  57.7526474  49.2385483
  60.9556913  57.7487707  49.7317696  60.0471306  56.8566847  48.9134264
  15.8103812  11.3966906  67.9506969  16.7126834  11.1949539  67.7029371
  15.6671286  12.2869253  67.6294613   0.7606657  22.5721550  60.6469059
   0.3161588  22.5364256  61.4938784   0.7609215  21.6661239  60.3381348
   7.9609621  27.6051259   6.2433469   7.9530126  27.7493763   7.1895814
   7.6394981  28.4271765   5.8730400  71.1593390  26.7721987   3.9426997
  72.0808220  26.9799805   4.0973896  70.9802055  26.0317755   4.5222810
  56.0751009  35.2521873   1.6247380  56.8809366  34.8559284   1.9561529
  55.3733301  34.7477961   2.0362525   0.8601982  42.6162624   3.6917847
   0.1996015  42.3015213   3.0747101   1.6939858  42.3388577   3.3122113
  75.0411558   7.8013748  54.3901968  74.8903942   8.5743046  54.9343300
  74.5088482   7.9509866  53.6088562  66.2099171  75.9302330  50.6561375
  65.3187752  75.7534695  50.3547192  66.7284203  75.9823418  49.8532248
  62.1677065  17.3399270  45.6052160  62.0746851  17.2341204  46.5519953
  61.9457150  16.4812052  45.2452898  21.3839316  24.9059534  20.0520325
  20.8213067  24.8336911  19.2810178  21.4907265  24.0045810  20.3559303
  16.0626388  39.5022631  68.8682461  16.1001396  40.3478575  68.4212589
  16.9667816  39.1880536  68.8625956  60.2795029  23.9433074   0.4602894
  59.6585083  23.4023666   0.9481223  61.0734367  23.9378786   0.9949598
  58.7753725   5.9865576  50.2073669  59.6066427   5.6324148  49.8914528
  58.8496971   5.9574687  51.1612368  29.7627759   7.5305372  41.7117548
  30.6686926   7.3272187  41.4789295  29.8353672   8.1568658  42.4319458
  25.3068900  63.9360666  45.0452137  25.6847310  64.7709179  45.3217793
  24.7712040  63.6578083  45.7880783  50.9181881  29.7719383  12.8333879
  50.6149387  30.5176735  13.3512199  50.8578205  30.0701571  11.9258344
   8.0177015  64.8165274  38.1333375   7.7789164  64.8462248  37.2068763
   8.8178027  64.2916679  38.1577539  11.0736263  30.6765938  67.8804302
  10.8762264  31.4656830  68.3850145  11.2918448  30.0185895  68.5404634
  56.5932989  10.4200149  15.5036938  56.6827488  11.0990942  14.8350513
  56.6039038  10.8976912  16.3331187  75.1979494   1.9935283   5.0389099
  75.3824711   1.0787315   5.2518183  75.7912588   2.1954307   4.3154091
  11.6465533  66.7346621  37.2080183  12.1024489  66.5853691  36.3797045
  12.0885170  67.4921751  37.5915194  36.1759996  77.5228691   2.2248222
  35.4790950  77.1972942   2.7945209  36.5927267  76.7328405   1.8806881
  28.8269496  65.1067162  24.9860477  29.4771051  65.4797316  25.5813527
  27.9948449  65.2032804  25.4491997  17.2438443  58.2127190  16.8437076
  16.8710697  59.0688705  17.0541418  18.1366849  58.2493544  17.1868169
   2.2601831  18.1873548  19.1909528   2.7984807  18.9387321  18.9421582
   1.7741030  18.4850895  19.9599218  16.8704104  20.1342201   9.9006712
  16.6534257  20.4712176   9.0314293  16.7299521  19.1897798   9.8333287
  15.4224598  24.5183635  10.4372525  15.5236626  25.3615332   9.9956012
  15.2127397  23.9034367   9.7343212  15.0247133  11.6043317  23.1218791
  15.6935382  11.3261020  22.4961853  14.1952193  11.4538872  22.6685166
  13.6640549  13.6930716  11.7006242  13.7521052  13.7994528  12.6478112
  13.3429813  12.7982712  11.5889251  27.8659940   1.4477205  45.4106474
  28.3112907   2.2948778  45.4269981  28.5428452   0.8165990  45.6551647
  43.9588118  12.2619355  59.4464493  43.6926079  11.9572413  60.3139353
  44.5665121  12.9805732  59.6210670  47.6495934  67.9951286  21.7882848
  47.4022579  68.6438179  21.1293006  47.4103689  67.1543360  21.3983202
  74.7211552  30.8051634   9.8336476  75.3740501  31.2878942  10.3405285
  75.2068377  30.4599357   9.0845394   8.0396932  16.1660230   3.4389845
   8.6708939  15.9710956   4.1316751   8.5430604  16.0911965   2.6282725
  55.9078407   3.3532041  43.3994055  55.6083775   2.5854757  42.9124260
  55.1041746   3.7594667  43.7239122  81.2513161  31.4588332  42.0207500
  80.3967953  31.2039971  41.6727829  81.1231518  32.3519897  42.3402452
  58.2042074  55.2508163  20.8607864  57.2984982  55.5577087  20.8190656
  58.2460022  54.5401382  20.2209282  57.5337458  11.9062328   7.8602517
  57.7848768  12.4614143   7.1220517  57.6361752  11.0124028   7.5334364
  23.6148858  65.7711267  41.2780809  22.7062941  66.0618973  41.3564777
  24.1337824  66.5508842  41.4754581  77.8218317  13.9854431  19.2647374
  78.3687735  14.7418427  19.0527344  78.4435701  13.3055770  19.5244634
  24.7499585  29.0310287  34.2667866  25.1175523  28.9506507  33.3866453
  25.5026555  28.9355183  34.8503566  81.7934608  60.6964874  33.2361174
  81.2206173  60.6192446  33.9990854  82.0963860  59.8033237  33.0726480
   3.5336259  67.2032213  57.9453182   3.2528323  68.0812120  57.6874018
   3.0112407  67.0032120  58.7220669  34.0491080  64.4451189  20.9458852
  33.7586331  65.1903868  20.4201198  33.3065772  64.2518282  21.5181780
  55.9035063  71.0314178   6.8934786  55.1305628  71.4400625   6.5038592
  56.0037422  70.2066994   6.4180577  67.3857260  35.6164336  20.4573488
  68.0881548  35.4376268  21.0825324  67.7684116  36.2384367  19.8385632
  53.9005518  31.9454455  19.5918941  53.2086039  32.0860386  18.9456141
  54.7072268  31.9193506  19.0772831  20.8623934  11.2282443  65.1691580
  21.5911508  11.5347791  64.6295452  20.6293535  10.3780067  64.7963047
  73.3619833  19.7343004  39.6939921  74.3041372  19.8658729  39.5878386
  73.0059052  19.8288119  38.8105273  52.7564192  15.9975564  43.6114359
  53.5997868  16.3210845  43.2947350  52.2934151  15.7215726  42.8204298
  68.8881922  11.7015231  29.2641401  68.8570595  11.1057186  30.0126576
  68.1849575  11.4003098  28.6888433   0.6531633  32.5147104  64.7028017
  -0.0470081  32.9246712  65.2106619   1.0702190  31.9088864  65.3153944
  40.9892487  61.7863133   0.4186643  41.7167425  62.0710399  -0.1344287
  40.7026958  60.9595348   0.0306476  56.7020130   6.5029997   4.1511002
  57.0539618   6.8394160   4.9752298  57.3365784   5.8432764   3.8712278
  22.2791171  18.7118471  36.9271588  22.6961660  19.4869709  37.3033023
  22.4818850  18.0079675  37.5433326  74.6424913  46.9853401   5.7049537
  74.8912096  47.3133945   6.5690994  75.0507927  46.1213255   5.6501395
  11.6862893  77.1354532  19.4597781  10.8688700  76.9352913  19.9158430
  12.3704422  76.9570875  20.1050329   7.7653790  32.7585840  54.7369576
   8.0565506  33.1839085  55.5435276   8.4827691  32.1689987  54.5046377
  40.2845812  68.0271244  27.5382113  40.3091526  68.9445543  27.2662783
  41.0088444  67.9415894  28.1581759  72.2635508  16.8258655   3.5782519
  72.3141909  17.3828447   4.3550667  71.5752459  17.2220480   3.0439276
  51.6951990   6.0141730  30.0776219  51.5345907   5.6714046  30.9567976
  52.2390127   5.3483957  29.6566272  82.4059677  29.5291972  19.4406724
  81.8126011  29.4780612  20.1900244  83.2722473  29.3552113  19.8088098
  56.4357519  62.4170971  65.2714777  56.2606144  63.2568979  64.8468637
  56.5464211  61.8010283  64.5473003  78.6020708  27.4842739  66.4342356
  79.0811968  26.8356562  66.9499540  77.7687025  27.0598960  66.2301874
   8.5109639  64.0739536  68.1602383   8.6551404  63.1289148  68.1117725
   7.9035211  64.1863775  68.8914061  24.5504403  29.4802833  56.7888308
  24.6178246  29.7844791  55.8837605  23.6419463  29.1922355  56.8776846
   0.0479364  71.9892836  15.4042983   0.6490791  72.7042341  15.1952255
   0.3173222  71.2737131  14.8284364  18.9775598  47.8751659  46.0574055
  18.8281620  47.6545191  46.9767714  19.7255421  48.4722567  46.0728884
   0.4609154  28.3496952  21.3173556   0.6119764  29.2935491  21.3678598
  -0.1551126  28.1674194  22.0269442  69.7297716  59.1552210  53.2384253
  70.4663897  59.1500854  53.8496542  70.1306009  59.0238142  52.3791790
  71.6806555   6.6106093  49.3922901  71.4909935   6.7359823  48.4624815
  71.6074800   5.6656754  49.5263720  75.4521132  39.8731184  62.6467466
  76.1357594  40.1282930  62.0272779  75.3251505  40.6470442  63.1955194
  79.8763371   4.3973711  43.7804222  79.7338533   4.6781528  44.6843529
  79.3310213   4.9856314  43.2581091  11.2069356  78.8177013  48.3174372
  11.2269747  79.4441319  47.5939655  10.4846680  79.1143036  48.8711405
  14.4698012  51.9879723  44.2892122  14.2436111  51.8268299  43.3731890
  15.1228631  51.3193607  44.4958544  73.5898876  15.4296470  67.0236158
  73.2068014  14.6215475  66.6823626  72.8717899  16.0622346  67.0035744
  13.5953319  55.8876085  57.6436567  12.7251422  55.5471134  57.4361324
  14.1830969  55.1456976  57.5010729  10.8306885  46.9281912  45.9970665
  11.7372131  47.1641016  46.1940241  10.8525884  46.6318893  45.0871468
  18.4214091  26.4103198   6.2445009  19.3243980  26.6911578   6.0962617
  18.4684062  25.8528256   7.0211762  26.9019175  67.6886082  16.3550639
  26.3059282  67.9966116  17.0378244  27.2609282  66.8715906  16.7012322
  42.8065062   1.2590188  56.1525822  42.5447798   0.3561247  55.9722614
  43.7527084   1.2675062  56.0081339  81.0536385   6.6071206  11.3420618
  81.3350964   7.0327067  10.5321920  80.4423523   5.9283447  11.0560071
   1.7520176  51.3061953  24.8853374   1.4959252  51.9639444  24.2387962
   1.1170274  51.4073944  25.5944037  10.9454906  31.9272757   7.1586376
  11.7431664  31.5450025   7.5244439  10.3667784  32.0408845   7.9125720
  24.1479707  47.7897072  68.4689331  23.8831425  47.0652437  67.9021454
  23.5874128  48.5187721  68.2034636  75.9772539  14.2646289  10.4897559
  76.0277653  13.3590591  10.1837754  75.0406742  14.4279552  10.6010258
  22.6413798  24.7178674  60.6553650  23.4843993  24.3166327  60.8664656
  22.7808809  25.6547880  60.7930279  71.6897440   9.7562522  32.9644012
  71.9505358   9.9102795  33.8724160  71.4613104  10.6237066  32.6303768
  40.5288982  74.3800926  44.1990423  41.3960981  74.6809053  43.9275408
  40.6172323  74.2096710  45.1367950  77.1197033  22.0519114   2.6157588
  77.7179050  22.0986223   1.8699642  76.2802410  21.7957377   2.2337870
  74.6866655  17.6804924  13.6304772  74.9005938  16.7481768  13.6658704
  74.6509171  17.9530025  14.5473695  52.2506380  72.4998331  36.2295246
  52.2483253  71.8033314  35.5729342  51.7838907  72.1259689  36.9769239
  20.7447219  56.0879135   7.8981817  21.2197995  56.4705133   8.6358458
  20.3775930  55.2749920   8.2454664  28.1033421   3.6234128   2.0202512
  28.3216548   4.3212992   2.6379281  27.2075367   3.8185981   1.7451710
  33.7382889  71.5024948  23.4030437  33.3897543  72.3654222  23.1791902
  34.2309093  71.2345505  22.6273108  15.9535313  64.0841246  61.7573547
  16.7623389  64.5955276  61.7342997  16.1713719  63.2707787  61.3021183
  71.1537743  23.6634302  15.1224566  70.6814241  23.4116840  14.3288934
  70.7733727  23.1178689  15.8108521  18.7030196  38.9815426  68.1684828
  18.9968014  38.0836844  68.3226776  19.2363572  39.5129108  68.7596083
  49.9199057  49.9676561  14.6358061  49.9043560  49.0194702  14.7659230
  50.8258533  50.1615715  14.3952107  26.4818501  72.1523142   1.8396245
  26.3835740  71.9331169   0.9130578  25.6052661  72.4185133   2.1170563
  72.5497913  27.9136252  25.9744310  73.3776426  27.9719543  26.4513922
  71.8776989  27.9643035  26.6541052  80.8664703  51.2601089  41.9401836
  81.4348984  51.8672085  41.4663124  80.3294754  51.8216419  42.4992514
  67.9011059  25.4235458  13.9973485  67.7288628  25.7802296  14.8687506
  67.0903206  25.5755067  13.5117924  62.1550179  67.0301962   7.3644346
  61.6947937  67.0973349   8.2010478  62.3063755  67.9378510   7.1008265
  35.5612803   7.1716934  26.7667913  35.1500440   8.0360377  26.7718911
  36.1888123   7.2092760  26.0449719  22.7180672  78.0803013  11.7679918
  22.7702570  78.7633610  12.4365270  23.2569790  78.4081316  11.0480380
   6.8420106  18.9293575   8.4622622   7.3255217  18.2489991   7.9936880
   5.9512174  18.5858715   8.5310805  36.9991946   9.5081627  48.4779119
  37.8620124   9.3394643  48.8564825  36.4495778   9.7376585  49.2272377
  62.7208471  17.1498859  25.5658507  63.3899593  17.4848020  24.9688959
  63.0748558  16.3178456  25.8798885   5.8054477  10.9761298   1.6750786
   5.9831226  11.8442309   2.0371068   4.8633915  10.9755719   1.5054862
  32.0767808   5.9726638  40.6652927  31.6397595   5.8661026  39.8203731
  31.6383147   5.3473228  41.2422895  40.0632143  74.6488810  29.0870547
  40.6020451  74.8014450  29.8633385  40.5126524  75.1220083  28.3867788
  72.7482700   9.6575713  15.7216287  72.5173903  10.4556072  15.2461660
  73.3062649   9.1704839  15.1153111  60.3656197  78.9851284  23.6929131
  60.4292250  79.3477345  22.8093386  60.3860664  78.0367804  23.5646677
  21.6168761  56.6147566  63.8251686  20.9764028  56.1913633  63.2535315
  21.6830182  56.0333967  64.5827150  40.6734943  78.2893848   2.4905793
  39.8285317  78.5718060   2.8405941  40.8775997  77.4889421   2.9741687
  10.5886519  17.3070049   9.3604571  10.5688059  16.6956592   8.6241865
  11.4807415  17.6540005   9.3596721  41.1474371  69.9008226   4.9409422
  40.8496809  69.1360331   4.4483206  41.6550684  69.5360279   5.6658334
  60.5326653   9.6137136   5.7424951  60.3767824  10.4177892   5.2471215
  61.0549784   9.8930854   6.4944071  56.2253666  29.8870468   0.1035402
  56.9642830  30.4584455   0.3126777  56.5138578  29.0146208   0.3716435
  63.3693266  28.3126760  47.4809647  63.5723877  29.0418291  48.0669117
  63.8489532  28.5109997  46.6766930  17.5597978  22.8356385  61.9103527
  17.6430452  23.6825752  61.4721727  17.6108932  22.1935797  61.2022686
  16.3746965  37.9347205  63.8123560  15.4380369  38.1266165  63.8579416
  16.4615536  37.0691228  64.2116451  78.8409567   3.7340829  15.7592511
  78.4547710   4.0100765  16.5904665  78.4302092   4.2992419  15.1049471
   7.2197807  67.0223475  13.2235229   8.1493747  66.7961216  13.1933868
   7.1435785  67.6239824  13.9641047  71.3155365  63.0686331   8.1208104
  70.3828335  63.1764364   7.9345804  71.3405800  62.5935698   8.9514256
   8.7981975  11.5333855  11.0796082   8.7417650  11.7258453  12.0155597
   8.0977392  10.9001815  10.9226310  75.1011038  30.4344583  62.8009558
  74.3702364  30.5277109  62.1899128  74.7163630  30.0195789  63.5730219
  30.7981515  15.5671871  14.0754700  30.6044936  14.7071171  14.4483066
  30.4485226  15.5266011  13.1853318  56.6450357  64.5861530   1.9407219
  56.1417150  63.8986111   1.5046155  56.0023212  65.2695465   2.1307871
  78.8793087  43.6010838  61.9887972  79.1326380  42.7285910  61.6874456
  78.5359669  43.4594536  62.8710032  67.9483986  10.3229392  31.3678551
  68.4562254   9.9267286  32.0759249  67.7776146  11.2162101  31.6664028
  71.7943239  19.7871292  16.7527735  71.5408754  18.9225292  16.4295697
  71.2281513  20.3957057  16.2781012  31.9173288  62.5711775  68.5344124
  31.5942812  62.5546885  67.6335239  31.5793610  61.7652130  68.9248371
  80.3341579  15.0700939   3.0492589  79.4307756  14.8777080   3.3004946
  80.8612156  14.7327590   3.7735838  47.0259142  35.2115703   9.7829849
  47.7598953  34.6645379  10.0627303  46.7795706  34.8621726   8.9265579
  15.1935863  29.0982056  69.0362787  14.7480142  28.2714796  68.8512850
  15.3730237  29.4718695  68.1734848  13.5525751  20.9238148  -0.1394631
  12.9569829  20.3301954   0.3178301  13.0853045  21.7588091  -0.1654714
  67.7349091  22.2517776   9.1769284  67.5036907  22.2650647  10.1056874
  66.9033766  22.1080637   8.7251240  79.8783398  74.5377922  67.6361752
  79.7067976  75.2575159  67.0288849  79.1865921  74.6093464  68.2938957
  32.4332929  59.1359282  16.4582360  31.5903282  59.4021130  16.0911059
  32.6787519  59.8549652  17.0404434  68.2578754  29.8458457  53.0557919
  67.3978043  29.6674466  53.4361649  68.0681562  30.3222394  52.2475290
  15.5900633  52.9109526  19.4890642  15.7477510  53.0905008  18.5621727
  14.9042809  52.2431707  19.4903815  14.4734502  59.0426302  48.0189466
  14.0143788  59.7263098  47.5310278  13.8032508  58.3818913  48.1935596
  22.3132229  16.6557825  14.6534061  22.9512453  16.1481178  15.1548409
  22.7017832  17.5278687  14.5847178  23.3259320  70.9854174  53.8234234
  23.6622071  71.8631983  54.0041208  23.2939148  70.5600977  54.6803427
  19.3199241  68.6005354  59.1443682  20.0179005  69.2502689  59.2274618
  18.5576522  69.0148354  59.5487595  18.9680862  22.1617842  25.0296235
  19.3238699  22.9795742  25.3772855  18.0720007  22.3801565  24.7735453
  70.5451965  54.4965076  66.1706734  69.8871422  55.0757790  66.5549231
  70.4337120  54.6008921  65.2257347  72.8725958  24.3332243   8.3725405
  72.1815968  23.7999725   8.7654698  73.6760426  23.8367796   8.5282731
  65.3056335  19.7520530   6.8707305  65.6255293  20.6279802   7.0867151
  65.3664351  19.7033560   5.9167057  10.3943479  67.5425673  57.8338718
  10.7265747  68.3748817  57.4975538  10.9468532  67.3529959  58.5921812
  14.4352210  68.7233877  53.5615063  14.2311203  68.3098269  52.7227354
  14.8224354  69.5662308  53.3250475   7.8682196  65.8965683   0.9863961
   7.4290735  66.5089369   0.3961515   7.1989805  65.2455044   1.1972634
  15.4935694  36.8041039   0.3470355  15.5016077  37.5573182  -0.2435859
  16.4011729  36.7189765   0.6389940   4.7777370  40.6924105  60.2664471
   5.1111442  40.5990458  59.3740606   5.5546808  40.6215858  60.8210421
  82.6246166  47.8655291   0.7387797  82.8038406  48.7137985   0.3331319
  83.4369183  47.3711872   0.6290886  63.9773369   6.8964982  18.7921894
  63.4246635   6.1439258  19.0029526  63.3865452   7.5144207  18.3616459
  64.7659969  39.5765328  10.7465470  64.1864920  40.3304005  10.6365740
  65.2107096  39.4912529   9.9032265  22.3674488  49.6057844  67.8806067
  22.8173995  50.4286575  67.6891613  21.4431524  49.7949886  67.7190256
   4.9614555  20.3799486  18.1609452   5.2557904  20.1015306  19.0281725
   5.2174705  19.6637630  17.5797677  25.0306559  57.1743917  68.3690834
  25.9751225  57.2930622  68.4697533  24.8804784  57.2378683  67.4258709
   7.7700865  66.6577864  67.3868608   7.0725507  66.5815592  66.7358112
   8.2306206  65.8197641  67.3437023  82.2414017  36.6873884  17.7163243
  81.4330959  37.1839976  17.8437805  82.2554588  36.4889169  16.7800331
  42.2271156  71.4024782  12.2919154  42.2027445  72.3110914  12.5920165
  43.1487751  71.1528397  12.3586500  52.2034121  16.0556531  23.4604645
  51.5316010  15.3770518  23.3941054  52.3296213  16.3565457  22.5605941
   9.2425597  24.8484015  25.7334232   9.0367585  24.1948724  26.4018369
   9.0531790  24.4102526  24.9037290  21.1543655  12.3808241  13.0807483
  21.4096999  12.7526474  12.2364843  20.6638479  13.0805111  13.5121000
  72.2656918  40.7426739  30.4320741  73.1457376  40.9570599  30.7415676
  71.9608116  40.0607395  31.0306120  17.6158321  45.6788921  31.5445900
  17.7451742  45.9412336  30.6331754  18.4593594  45.8475828  31.9643974
   2.8501621  31.9317889  59.0190935   2.6589260  31.2683225  58.3561611
   2.7853149  32.7640390  58.5507059  20.6653404  17.4767029  26.5717196
  21.2781310  17.7427149  25.8861852  20.7067633  18.1824577  27.2170305
  77.8793955  26.0437155  44.4645166  78.3710480  26.7972636  44.1379070
  77.5663519  25.6016612  43.6753225  16.8978834  35.3830624  55.2885580
  17.3006260  35.2176452  56.1410046  17.2387171  34.6893072  54.7239637
  26.8634725  72.7759552  68.6596012  26.7549396  71.9165516  69.0668774
  27.3175836  72.5953341  67.8365660  41.5010452  68.2347918  53.0671120
  42.1207952  67.7489138  53.6112261  41.9235897  69.0810108  52.9201317
  45.3795958  74.2786884   8.9423239  44.4892454  74.5744562   9.1321254
  45.2627039  73.5092974   8.3850038  70.1304960  50.7937860  48.8917589
  70.6996107  50.0289392  48.8060284  70.6881142  51.5349674  48.6552238
  31.4613700   1.8655521  38.9486527  31.2196064   1.7294483  38.0325437
  30.8144951   2.4901213  39.2768288  69.6876907   3.2314822  22.4024320
  68.9951515   3.8442150  22.1550798  70.2805758   3.7478328  22.9484177
  38.7433434  70.1447964  66.5789413  39.4114733  70.7637501  66.8734455
  39.2254996  69.3361664  66.4061069  16.4367819  43.0560875   0.7027420
  16.3176203  43.9980030   0.8245324  16.0064399  42.8660345  -0.1308744
   1.0437304  65.9277630  49.6029758   1.4593259  66.3417673  50.3593588
   1.3181619  66.4612293  48.8570976  25.6175828  42.6389265  26.6519952
  24.7972798  42.3486328  27.0508218  25.7291746  42.0685005  25.8914757
  45.7585001  71.7859745  42.7867985  44.9221945  72.1892834  43.0195379
  46.1220217  71.4897728  43.6212730  76.0726786  19.9549568  39.8575568
  76.5027046  20.3804278  39.1157460  76.7642021  19.4382453  40.2711248
  60.2924109  38.2192779  62.8451204  60.6541681  38.9837027  62.3967695
  60.6196547  38.2904315  63.7418222  19.7553217  20.5955410  50.0661802
  19.5356631  19.7260690  49.7315121  20.6774879  20.7138824  49.8385000
  66.2257290  57.6005077  26.2240148  66.3252926  57.0903444  25.4202414
  65.5480576  58.2440042  26.0168672  24.6413374  62.6383686  12.4816096
  25.0248623  63.4467697  12.1415639  24.3803358  62.8550959  13.3766735
  41.2900972  72.7293730  32.9516602  41.2571287  72.8419113  33.9016485
  41.7284393  73.5180283  32.6321149  77.4904251  31.1640024   6.4231783
  78.4017420  31.1095572   6.7108780  77.1337795  30.2917099   6.5909296
  71.0555267  14.2143893  14.3139541  70.6979275  14.3320632  15.1940155
  70.2862740  14.0966129  13.7566257  10.1359725  16.0825396  56.0096693
   9.3752348  15.5292952  56.1869526  10.8171201  15.7471061  56.5925550
  70.4452658  25.0996375  23.7420130  70.5349207  26.0194683  23.4928131
  69.6036816  24.8323250  23.3725333  41.6772413  11.6864157   5.0922990
  42.4164200  11.3047826   5.5657959  41.2115049  10.9335148   4.7283471
  25.1801276  26.3830566  60.6971025  25.2265739  26.1564279  59.7682810
  25.4991150  25.6026173  61.1503077  22.5837684  73.8038635   1.6479121
  22.4022317  73.0481958   2.2066997  23.4447765  74.1106081   1.9321683
  56.5309525  20.3411031  22.6697159  57.1742535  19.6392381  22.7686191
  56.7986917  21.0029864  23.3072543  47.4701548  29.9688864  10.1550281
  48.3663368  30.2416825  10.3516960  47.0086575  30.0423193  10.9904075
  73.3570385  25.6945825  59.3832397  73.2968092  24.8900056  58.8682032
  72.5568724  25.7031918  59.9084949   9.8570585  63.0217934  38.2224464
  10.6893849  63.1766224  38.6690927  10.0383484  62.2987604  37.6219535
  65.3538609  60.8855534   6.2822706  65.6981421  61.0929108   7.1510094
  65.7002211  60.0143862   6.0890460   9.5201713  33.1367993   9.0701610
   9.9688560  32.5350428   9.6641344   9.4896615  33.9660263   9.5473206
  54.5777559   3.5036597   6.9438046  55.2736807   3.3509618   7.5830257
  54.1266823   2.6621956   6.8752253  17.7091336  50.9675455   4.6306008
  17.3697150  51.3019419   3.8004160  18.6574614  51.0792303   4.5640227
  39.3398643  23.2912254  44.9698782  38.9001346  22.4918056  45.2593517
  39.4597220  23.1709695  44.0278578  25.2321172  18.9523137  31.2687325
  26.0433817  18.6675274  30.8480453  24.9669719  18.2066476  31.8071675
  53.2354975  57.0661211  45.1033974  54.1332579  57.3980331  45.0935507
  53.0668545  56.8046904  44.1981649   9.4650012  51.2543726  17.9432976
   8.5828048  50.8829451  17.9448462  10.0110090  50.5731297  17.5508487
  10.7728958  16.3293660  53.2384491  10.6042182  16.3245964  54.1806602
  11.6951799  16.5736973  53.1614733  32.6348233  22.3201871  42.1622896
  32.9944348  21.9184446  41.3713932  32.5267148  23.2434630  41.9340181
  31.1533380  62.0217609  59.7738934  30.7287455  62.7541685  59.3272018
  32.0446682  62.3277521  59.9416113  23.5893106  22.0163846  31.0694146
  24.1202879  21.4047146  31.5794730  24.2275238  22.5683045  30.6174183
  19.1477585  74.4037867   3.9855105  19.8537171  74.4905853   4.6260715
  19.1985321  75.2042913   3.4631696  50.3833723  70.6565762  16.8895781
  50.4610443  69.9169970  16.2869012  49.6032381  71.1257219  16.5937269
  33.1806135  19.4009686  46.2726545  33.4003091  18.7631810  46.9517660
  32.2505236  19.2555594  46.0993910  19.0023386  78.5323715  45.3983116
  19.1610670  77.6457357  45.7222176  19.0902877  79.0892792  46.1718416
  32.5779772  60.2491188  54.6469307  33.0136037  59.6478224  55.2510023
  31.7615080  59.8063517  54.4154787  70.2944756  58.5605812  47.0858574
  69.5702314  58.1531668  46.6107607  70.9904957  57.9036474  47.0707369
  62.4248791  74.2321825  28.3430004  63.2535887  73.7619448  28.2516360
  62.3792505  74.7901678  27.5665975  49.4333267  60.6434345  45.7403612
  49.6642637  61.0513973  44.9058151  50.1067114  59.9767065  45.8754873
  31.2636447  74.7335386  53.0863094  30.6380653  75.4411173  53.2419395
  32.0567775  75.0097466  53.5455322  56.4215422  77.4173307  19.7263789
  56.0031557  77.8472948  20.4722452  56.2845850  78.0195141  18.9950442
  68.7907648  43.4796715  15.8749139  69.2499065  43.2007074  15.0827050
  68.5464573  44.3889713  15.7025158  79.7209549  21.2250209  19.1222215
  79.7031307  21.9866157  19.7017801  80.3719997  21.4460254  18.4562409
  76.0555887  38.9011550  23.3673835  76.4325380  38.1349993  23.7999868
  76.7438173  39.5648432  23.4131622   0.2975341  28.9362836  26.6798139
   0.2646226  28.1297398  26.1653876   1.1657584  29.2981958  26.5025043
  77.4193096  19.9740648  18.1879032  77.0817232  19.2359221  18.6952615
  78.2074547  20.2470016  18.6575425   1.8170866  56.9735622  49.9528360
   1.1739714  57.6042414  49.6289873   1.3530383  56.4865017  50.6337643
  60.9607887  33.9785194   8.2719779  61.4827204  34.5239496   7.6834869
  60.1088953  34.4134188   8.3090836  77.0288992  22.6664448  16.9699883
  76.8009090  21.7593622  17.1735966  76.2702417  23.1744051  17.2574794
  56.0780334  79.1891432  46.6232967  55.7173729  79.2996883  45.7435608
  56.7546272  79.8628235  46.6911697  73.4743834  73.3103180  22.9316807
  72.8716850  72.5911522  22.7425241  73.8777971  73.5130262  22.0876431
  74.8258114  41.4050865  31.4001727  74.7971630  41.6538143  32.3240471
  75.4234409  42.0369720  31.0004330   4.7007149  40.3318024   9.0085387
   4.4156897  39.4820476   8.6725187   4.2595533  40.9708738   8.4488988
  49.0814638  51.8621302   6.8793380  48.4601498  52.4106503   6.4004582
  48.7996674  50.9657192   6.6969222  63.3931398  37.1837258  19.1560292
  63.7575054  37.1804571  20.0411630  63.4128284  38.1036711  18.8923109
  69.8247290  35.9913421  11.9371629  70.7071686  35.8897328  11.5805066
  69.5871353  36.8961358  11.7343509  33.9835405  20.7001638  16.9623899
  34.2402506  19.7780728  16.9535887  33.2777452  20.7461476  17.6073480
  11.1744320  71.1026239  18.7949038  10.8699405  70.5894756  18.0464411
  11.7516327  71.7638731  18.4130406  67.5301075  11.8939447  35.2415514
  66.6990805  12.2108865  35.5953550  67.4433231  12.0005071  34.2942667
  31.1146569   4.8024443  66.4106989  30.1900315   4.5897362  66.2839842
  31.3575721   4.3448514  67.2155809  68.0588198  26.2545490  29.5763731
  68.5572720  26.8279290  28.9941263  67.3393679  26.8011022  29.8924446
  15.0562167  19.7202575  20.9876108  14.9690342  19.9087739  21.9220042
  14.8307824  20.5438519  20.5550575  26.8134713  59.8633337  52.0734215
  26.0810375  59.8647022  51.4571714  26.4117861  60.0440311  52.9232645
  82.6683617   9.4994962  12.2273076  82.0157146   9.6011269  12.9200923
  82.1739292   9.1630042  11.4799523   8.9929736  23.7184644  12.0153046
   9.9003065  23.5250378  12.2510266   8.6200899  22.8686738  11.7806911
  14.6036303  77.6018238  63.6303473  14.1275394  76.8377686  63.9555931
  14.6218479  78.2063532  64.3722677  22.9354405  13.3114851  21.9445896
  22.8381610  12.6926839  21.2208128  23.8802123  13.3647943  22.0887876
  66.0698986  19.6537364  28.4138680  67.0254993  19.6455276  28.4685922
  65.8524942  20.5493021  28.1551623  17.2880912  64.9521923  56.4665079
  16.3911700  64.6386814  56.3504267  17.2849488  65.3743696  57.3255730
  13.1835735  66.0785627  53.1932640  13.0886877  65.5731535  52.3859310
  12.3106432  66.0689306  53.5858631  63.2656574   3.0949923  54.3263769
  63.3725166   2.6724559  55.1785946  64.1128111   3.5063720  54.1551018
  71.6155624   3.7678835  50.8738470  71.2129307   3.4522435  50.0648403
  72.4979544   3.3970892  50.8627462  58.2660580  10.1072001  59.4901371
  58.8411951  10.8525765  59.3173218  58.5376549   9.7897309  60.3513479
  29.9890924  73.0045271  20.1108265  30.0036883  72.9678726  21.0672140
  30.8338785  73.3865499  19.8728597  51.9312382  22.0283914   9.1811484
  52.0914936  21.9890285   8.2382804  50.9881639  21.8905592   9.2697620
  52.5836658  21.8478775  42.8036118  51.7931843  22.2008657  42.3952389
  52.2858143  21.5072179  43.6470985   2.0131792  27.2659206  44.2331219
   1.9147190  26.9617128  45.1353407   2.9586744  27.3520088  44.1112280
  35.4520631   5.8788729   0.9761075  35.5774498   5.5683047   1.8728000
  34.7914481   6.5674704   1.0513039  65.9758806  70.5661058   5.7404828
  65.2124882  71.1435080   5.7318026  66.0504961  70.2813911   6.6513079
   1.3100788  49.3621588  10.9328306   1.1715244  48.5829163  11.4711726
   1.7420012  49.0345621  10.1439357  46.9001913   1.3781355  28.3185911
  46.2188244   2.0490235  28.3619809  47.7067184   1.8408291  28.5458827
  10.0140524  20.4802942  16.6924715  10.3522992  20.7293200  15.8323514
   9.6193278  21.2818575  17.0358610  39.7677064  60.4970026  62.3597670
  39.3263769  60.7909060  63.1566858  40.2225733  59.6958208  62.6194620
  36.0892439   9.9021494  64.8330402  35.9598017   9.6301085  63.9244890
  35.9415293  10.8478332  64.8232651  82.9470921  43.7241268  68.7080908
  83.2427788  42.8409052  68.9288092  82.0903015  43.5951900  68.3012581
  67.4963760   1.8340771  16.7938125  68.3056116   1.4544092  16.4514387
  66.8859386   1.8010207  16.0572612  74.4592524  13.5018349  32.9168057
  75.1956224  12.8960359  32.8331256  73.6846876  12.9591560  32.7692151
   5.7137841  63.9736748  23.1476188   4.9407285  64.0068531  22.5841331
   5.4077065  63.5498524  23.9494419  71.1248398  74.3653011   0.4247175
  71.1636639  74.4887877  -0.5236893  70.4710245  74.9980259   0.7220697
  35.7960415  54.7685337   6.4535135  35.3604674  54.7979832   7.3053581
  36.5973806  54.2693710   6.6113865  73.2351971  14.7240949  18.7161314
  72.8767967  13.8610864  18.9234996  73.9947128  14.8126805  19.2919087
  76.6525412  36.1984968  23.4855342  77.4345636  35.8126426  23.0908346
  76.0951471  35.4489779  23.6947346  19.9086714  28.0050969  14.2450070
  19.6116424  28.7531281  14.7631359  20.3416705  27.4321866  14.8778725
  62.3808670  59.9892044  15.9306633  62.9644537  60.4704428  16.5172350
  62.7204370  59.0942764  15.9361887  75.0392151  46.3654184  25.9000587
  75.5667067  45.6140709  25.6290197  74.9273682  46.8803072  25.1009274
  29.2613435  62.0023441  67.5994921  29.2067289  62.8427744  68.0543804
  29.3997335  62.2354269  66.6814756  15.1833069  72.8361559  42.6997375
  14.3197036  73.2229280  42.8440571  15.7389450  73.5757875  42.4538898
  73.0576277  27.1198106  23.0677271  72.5565577  26.8774319  23.8464546
  72.6591158  26.6140389  22.3594809  66.2850952  21.6474342  11.9558775
  66.8859482  22.1054626  12.5435972  65.5252552  22.2260141  11.8917072
  47.5132704  17.9143453  50.8610773  47.7211237  18.4790051  50.1166391
  46.6118002  17.6333332  50.7041931  26.9655490  70.8354521  55.3370667
  26.5340495  69.9851370  55.4207277  27.4670005  70.9302807  56.1468697
  64.0791798  28.3646989   5.4003745  64.7647715  27.8061891   5.7667893
  63.2611465  27.9356050   5.6512487   7.8211200  10.2074492  30.5464554
   8.5245675  10.2748299  31.1920977   8.1574464  10.6668329  29.7769856
  38.3664370  74.9151897   4.0154734  37.8912759  75.7385921   4.1271213
  38.6014414  74.8981714   3.0877262   9.7902101  31.9060540  15.4515445
  10.5115438  32.0497918  16.0641205   9.0088981  31.8783116  16.0038257
  63.5123158  73.7454844  49.4301891  64.1858101  73.8887787  48.7652826
  62.7111006  73.5902977  48.9299870  24.6928716  56.1550999  53.2286692
  24.9594879  55.4432201  52.6469707  23.7568974  56.0119486  53.3689880
  50.1369095  54.0409899   0.4684214  49.2612982  53.6863279   0.6225272
  50.5601358  53.3962011  -0.0984650  24.4422650  39.0211630   0.0873961
  24.0683246  39.2607927  -0.7605299  23.9638281  39.5568395   0.7201530
  22.8321815   4.2173240   6.5512341  22.7963805   3.3500850   6.1476904
  22.1600628   4.7223687   6.0936123  36.7903638  58.9430571   5.4025453
  37.2824597  59.3471146   6.1172557  37.0912552  59.3992615   4.6166870
  22.2042847  49.3206978   9.6678960  21.2474036  49.3070555   9.6473563
  22.4671435  48.6722183   9.0147412  83.1262779  14.7094083  20.4744697
  82.8893948  13.8559628  20.8374405  83.3499050  14.5277500  19.5616603
  46.3479328   5.0694543   2.9728049  45.8488083   5.0148398   3.7877429
  46.7217064   5.9506357   2.9794610  39.0329337   4.6304286  15.8263505
  38.9680314   4.2877716  16.7177570  39.8975587   4.3515337  15.5249035
  82.4331570  75.0748158  64.6118355  81.7654991  75.7386446  64.7844219
  83.2084560  75.5753279  64.3576002   0.1029290  22.6639318   9.2618376
   0.0958648  23.5487056   8.8966513   0.7619072  22.1977425   8.7473994
  59.7310352   7.1920747   3.3777320  59.7727060   7.4026668   4.3105486
  60.5978251   7.4201703   3.0417472  57.1291256  14.5046127  12.0401931
  57.4495077  13.8180876  11.4551556  57.2718191  15.3178406  11.5559113
   0.7846083  37.8690720   9.5114982   1.1543446  37.2117734  10.1009762
   0.1791114  37.3786640   8.9555269  58.7259245  25.8095312  20.7826209
  58.2433224  26.6315603  20.6954813  58.3236980  25.3741670  21.5342212
  44.0513182  12.8349745   7.3741060  44.0582991  11.9263625   7.0730984
  44.2365217  12.7781749   8.3114994  30.7871175  68.9951372  68.6068010
  30.9229684  68.0518961  68.5169888  31.6653109  69.3520308  68.7396049
  16.0918689  59.8094988  63.5466337  16.5699291  60.4448891  64.0795183
  16.7636156  59.2004251  63.2400131  60.1476097  11.4085996  34.6381140
  59.3105793  11.8607998  34.5326281  60.7997847  12.1092403  34.6400166
  10.3496361  12.2056162  17.5879490   9.8470694  11.6603243  18.1931877
  11.2457383  12.1717644  17.9227436  49.1058874  61.6351032   5.1292032
  48.3594036  62.2342491   5.1257867  49.4613314  61.7003632   6.0155630
  63.1112051  23.0032420   8.2031429  63.4458065  23.2890725   9.0531868
  62.4352694  22.3597503   8.4158826  83.4361744  11.5157092  30.3487873
  83.5106373  10.5855036  30.5618715  83.0220222  11.9053984  31.1187577
  76.2301636  69.5458508  19.9945664  76.4543486  69.7116041  19.0788710
  76.3335800  68.6000061  20.0990415  11.1742187  42.5375414  49.9426985
  10.5932915  43.2411623  50.2319717  11.5325129  42.8492069  49.1115999
   2.0729126  16.6785884  43.8501835   2.1930201  16.9237018  44.7676420
   1.1358057  16.7932534  43.6923409  26.1970711  60.5382109  54.5154524
  26.1663914  59.7643614  55.0779915  25.3241444  60.9236813  54.5905638
  72.3072195   0.9514442  67.4166918  72.1478367   0.0255670  67.2334433
  73.0935717   1.1632491  66.9136810  80.8394051  14.5804906   0.3800362
  81.0696983  15.4339898   0.0129716  80.7260513  14.7450554   1.3161463
  72.7362299  15.9826612  21.8687940  73.5985470  15.6200361  21.6659498
  72.1247292  15.2753055  21.6639924  67.2250366  18.1744969  30.7102060
  67.5790691  18.7305760  30.0161839  67.9881382  17.7171087  31.0633373
  72.6114416  18.5003984  59.2450571  73.5623980  18.4256566  59.1655207
  72.2678232  17.8804266  58.6017895  66.8888760   4.0348414  10.6302989
  66.8633223   4.6759695   9.9199939  66.3007832   4.3914086  11.2960601
  72.5751114  68.9045095  24.6340847  72.5360250  68.1739521  24.0168428
  73.3801651  69.3688536  24.4049406  74.1996098  20.7924628   4.3919060
  74.2797089  21.7382932   4.5152941  73.6055946  20.5096745   5.0871789
  42.6257992   2.6853806  45.6003237  42.8542185   3.5142779  45.1796293
  41.8735647   2.3638502  45.1033449  75.0186396  74.1292810  34.3125057
  75.8452034  73.8037252  33.9560723  74.6975565  74.7423077  33.6511946
  35.4863024  -0.3001837   4.7552621  34.6429420   0.1225386   4.5931497
  36.1298609   0.4001739   4.6477225  53.9103651  30.3575706   4.5055017
  53.1909657  30.9366465   4.2537695  54.7017097  30.8503985   4.2884192
  24.7279477  42.4628067  16.8632424  24.3880510  41.6102123  17.1348691
  25.2326560  42.2781467  16.0711539  40.1682854  70.7572842  59.0583849
  40.4126930  71.5724468  58.6202049  40.6813765  70.7565641  59.8664522
  68.3675909  32.2664714   5.3232497  68.0841160  31.4815640   5.7920730
  69.2504597  32.4360228   5.6519252  50.6407833  72.6522112  33.1950784
  50.0069237  72.0398569  32.8216124  51.4706612  72.4225712  32.7769947
  42.2775888   1.5220733  38.4804916  41.3937426   1.6454478  38.1343341
  42.8469229   1.9520462  37.8423572  43.8577461  77.7999353  66.9650459
  43.2338524  77.9640102  66.2578917  44.6425200  77.4773121  66.5220165
  71.9021749   7.7186936  17.5627863  71.8917227   6.7974746  17.3030210
  72.2464705   8.1794071  16.7976511  79.2244530  17.8386450  63.7250662
  78.4450817  18.3646905  63.9041948  79.2473173  17.1954393  64.4335842
  70.2567339  72.4086523   6.3825399  69.4605827  72.2191715   5.8860773
  69.9487591  72.5816870   7.2721702  15.3636944  66.6866302  16.3769400
  16.1679220  66.1681890  16.3510156  15.2835226  67.0486069  15.4944563
  14.3229318  43.6090851  33.4829974  14.5024788  42.7537060  33.0927229
  14.4346476  44.2292833  32.7625060  49.5719337  18.0340040  65.0112724
  49.0721130  17.8261030  64.2218494  49.2885160  17.3825002  65.6527138
  67.7531433  39.4595766   9.0379924  67.3852587  39.7737622   8.2120502
  68.1871128  38.6375499   8.8095766  50.6381083  61.6137075  43.4021568
  51.2725306  61.5794039  42.6862240  49.8046112  61.8099594  42.9743767
  76.8168116  61.0448265  15.7979691  76.8170881  60.8981705  16.7438674
  77.7427292  61.0443926  15.5552602  18.1889522  47.9817390   2.4327092
  18.3419454  48.5961294   3.1505904  18.7075830  48.3279753   1.7065029
  55.5572844  18.4988761  56.3266087  55.3181076  18.2874882  55.4241991
  55.2540636  17.7479684  56.8369293  49.2799997  59.6658421  67.7926636
  48.9200783  60.0994635  67.0189285  50.2287340  59.7177124  67.6767111
  30.9038854   7.6749128  68.8633299  30.9155750   8.4902585  68.3620214
  30.0206876   7.3283690  68.7364244  68.3659649  37.2364426   2.4767499
  67.6923561  37.2498107   1.7968178  67.9593134  37.6728249   3.2253754
  61.2553883  37.8230000  24.1338253  61.7621517  38.5471702  23.7664032
  61.2251949  38.0041766  25.0732374   5.6937486  77.6066542  11.7038918
   5.0751233  78.0600548  11.1312091   5.9848094  78.2778263  12.3211801
   2.7905339  66.9572926   9.8109657   3.2467917  66.1441040   9.5946598
   2.5474104  67.3284197   8.9627993  50.3129435  61.9050074  64.6068287
  50.9721422  62.4768782  65.0000858  49.5712328  61.9438601  65.2106380
  79.4900656  69.2581844  48.9318705  78.9726925  69.9676943  49.3128633
  80.2046204  69.7016096  48.4746838   5.7298303  32.5720358  12.5235724
   6.4448029  33.1561971  12.7761662   6.0946500  31.6921568  12.6181662
  23.9835048  19.5658112  28.7296128  23.8502598  20.4543519  29.0597248
  24.3441010  19.0850663  29.4746542  77.1502352  38.6751890   1.8760665
  78.1053448  38.6236930   1.8394780  76.8522453  38.1022882   1.1695130
  21.1789322  46.5940666  26.8007016  21.5369797  45.7073545  26.7585373
  21.8698215  47.1119499  27.2138596   1.2744428  32.0053840   9.1441751
   0.7240133  31.3407516   8.7300253   1.9907619  31.5097928   9.5410472
  77.3944950   0.5317371  48.5551167  77.8322983  -0.1849441  48.0958509
  76.9526434   0.1095884  49.2918587  60.1515341  63.6970520  56.1526346
  60.6324625  63.8724518  55.3438234  59.8555517  64.5584631  56.4469051
  57.8177500  76.1409330  39.7486639  58.5351896  75.5112553  39.8194718
  57.1276093  75.6665659  39.2850733  82.5544262  12.2815681  47.9620028
  82.2916412  11.6212225  47.3208189  83.4905910  12.1300554  48.0919123
  24.1191435  52.8865719  12.2974825  24.8582840  52.6645470  12.8637064
  23.9656186  52.0945024  11.7824197  27.1401811  16.2139130  27.8374839
  27.4542212  16.2326646  28.7415051  26.9840956  15.2868664  27.6573324
   9.1145921  38.4280491  12.7903390   8.6891091  37.8954673  12.1183634
   9.0687340  37.8942966  13.5835826  47.2479105  57.3741436  51.8140507
  46.3589096  57.7268124  51.7749310  47.8129578  58.1314611  51.6609907
  11.7012751  22.5036883   2.1449681  11.0664940  22.5679779   2.8585172
  12.0084798  23.4010482   2.0161143  14.1268218   8.8681793  47.3426294
  13.6364973   8.9178270  48.1632090  14.8709679   9.4561064  47.4723244
  29.7916412  46.1820316  30.4426837  29.3764353  45.7868147  31.2092590
  30.7036400  46.3101006  30.7036138  54.2071247  68.6662865  53.5667896
  54.2825174  69.6085358  53.7175131  54.5528412  68.5365772  52.6836777
  33.5027242  79.0001488  41.2588692  33.5647964  78.5073233  40.4406404
  32.6073050  78.8495731  41.5618277   1.8636747  28.0610275  39.8729992
   2.8189230  28.0965781  39.9226856   1.5832105  27.8913593  40.7723236
  24.9351597  78.2327557   1.6618219  24.4757628  77.9942989   0.8566357
  24.8352885  79.1828156   1.7221723  36.0980844  50.1819849  13.7006032
  35.7639360  49.7393036  12.9204679  36.1110997  51.1090899  13.4628248
  57.6213408   1.4706351  15.2257729  56.9684649   2.0082244  14.7774649
  57.2491837   1.3162839  16.0940504  61.1994696  24.6027589  52.6528835
  61.0505009  23.6628270  52.5500727  62.1426010  24.6815228  52.7961588
  37.1828341  27.4634767  48.1171417  37.3378730  27.8447580  47.2529554
  36.7670226  26.6205668  47.9359388  -0.1522203  19.4425917  62.1033955
  -0.4201265  19.7877336  62.9550600   0.7706122  19.6848083  62.0263290
  21.8111968  24.5723248  31.4422774  22.3424911  23.7967420  31.6223645
  22.4274635  25.3027248  31.4967370  26.9091415  59.9220753  13.7779057
  27.3582339  59.0886259  13.9189959  27.4720669  60.3969765  13.1664991
  24.5044518  10.5915248  39.1219354  23.9100647  10.5060244  39.8673368
  25.3045750  10.1466012  39.4013572  78.3855629  78.0967855  53.0946064
  77.7170467  77.4119329  53.0772829  78.5049105  78.3382797  52.1760941
  22.0571923  30.7600284  35.8209205  21.9298482  30.5536509  34.8949504
  22.1374154  29.9069548  36.2476087  32.1759105  33.6446261   9.3737113
  32.3896003  33.2183003   8.5437632  31.2845159  33.3555818   9.5689112
  42.0572424  20.7907677   6.6261798  42.3207760  20.0347733   6.1015356
  41.1030912  20.7296634   6.6719311  62.0358133   7.1238732  51.5024471
  61.4820814   6.3492417  51.6002178  62.4167442   7.2570866  52.3704195
  40.2711630  36.5100312   2.5687200  41.0988951  36.1498022   2.2504064
  39.6675730  35.7671762   2.5600761  83.7976837  70.4954863  50.7828331
  83.4672737  71.1423445  51.4062357  84.3416119  69.9105549  51.3103104
   0.4558066  37.9060912  23.2319856   1.0541542  38.3195448  22.6096773
  -0.3574051  37.7891779  22.7408147  81.6512585  60.5356264  59.3180799
  82.2416401  61.2702703  59.4853258  81.5896130  60.4903078  58.3639431
   9.5748633  11.8064666  38.7856221   9.1816473  11.0457218  39.2132688
   8.8367820  12.2612166  38.3798265  31.4739513  59.1181660  63.1869793
  32.4087000  59.2928934  63.0776691  31.1733150  58.8678408  62.3133707
  23.0725098  68.3119678  29.5812964  23.0010533  68.6711502  28.6969256
  23.4857249  67.4571228  29.4599533  76.8658733   5.3912461  62.2366667
  77.7701902   5.4760933  62.5387383  76.9026470   4.7187191  61.5565300
  44.3096304  56.9174099  13.3652353  45.0593376  56.5557194  12.8926373
  43.6888170  56.1910057  13.4214544  21.5884280  20.8473611  63.9736080
  21.3869667  20.1987696  64.6481276  21.2963867  20.4422903  63.1569958
  82.0279694  50.4695988  31.9811010  81.3658333  49.7821522  32.0533657
  82.3990440  50.3537369  31.1063933  58.8495541  39.0702438  66.1807489
  59.1035461  39.6675968  66.8842316  59.6657610  38.8875842  65.7152653
  54.6722364  61.5008068  15.3590965  55.0555754  61.8383598  16.1686265
  53.9986944  60.8864975  15.6509888  34.4443560  11.7481172  21.5339780
  34.9752378  11.1259735  22.0313048  34.8194957  12.6036334  21.7427731
  69.2285919  10.5355632  68.1932211  68.6510277  10.8085048  68.9060736
  69.4554138   9.6294409  68.4023237   6.6540647  52.2471809  54.9471188
   6.7070508  51.3279819  55.2088356   6.8411934  52.2401142  54.0084124
  78.3028841  32.2797894  26.7370892  79.1313314  32.6393843  26.4199233
  77.7421808  32.2502542  25.9618664  36.7527103  62.8468418  12.5948298
  36.0010958  63.1233406  13.1190944  36.5550327  63.1563568  11.7108870
  61.8277264  13.1003582   2.0414519  62.7394438  13.3783698   1.9536118
  61.8743801  12.1475267   2.1199812  18.3392930  10.0382006  58.3529997
  17.9285884   9.2100978  58.6015987  19.2791593   9.8634040  58.4012604
  65.6206560  38.3551621  30.5071282  66.2230968  37.6123238  30.4685426
  64.8233318  38.0392385  30.0820446   8.3531541  39.2235088   9.1436207
   7.9852217  39.9337387   9.6693891   9.1957122  39.0322113   9.5556068
  31.6555238  56.9734526  29.0240479  32.4403858  57.4009848  29.3667412
  31.1247420  56.7902470  29.7992516  22.5488377  35.5603433  51.0581970
  22.9370117  35.8412170  50.2295446  23.2428360  35.6912112  51.7043161
  72.3072958  39.1011429  59.1844273  72.4692345  38.8527513  60.0945425
  72.8345013  39.8893237  59.0538311  11.1943758  46.2176895  43.5136509
  10.4789770  45.6937933  43.1531334  11.3342130  46.9093800  42.8669357
  31.0140061  72.5891256   8.5347998  31.9101429  72.6605797   8.2060659
  30.4807591  72.4598789   7.7504694  68.1424665  54.6046877  28.5553360
  69.0912962  54.6936512  28.4656477  67.9811382  53.6648273  28.4724998
  51.4343596  43.8164806   5.2831781  52.2402048  44.1762209   4.9124640
  51.6796255  42.9423761   5.5865306  39.6805191  75.0898695   1.6591156
  39.4845438  75.7892990   1.0357172  40.5348206  74.7567081   1.3845170
  11.3336194  68.5172319  47.7402782  10.6655121  67.8379345  47.6485491
  11.7297947  68.3496141  48.5953712  13.6024010  69.4953346  17.9759753
  12.7482963  69.4388819  17.5475478  14.2057192  69.7437620  17.2756004
  59.9453402  78.5609293  60.6982327  60.8300924  78.9249563  60.6676769
  59.6144962  78.8077307  61.5618658  65.2385378  21.1533976   0.1214338
  64.5269442  20.6915832  -0.3219561  64.9527264  21.2151480   1.0328780
  55.9770012   1.0403733  17.6206517  55.8252287   0.1808874  18.0136919
  55.8089352   1.6610414  18.3297050  34.3561506  63.1135130  13.9157796
  34.0324211  62.2169924  14.0034187  33.6462307  63.6587334  14.2548680
  14.1002274  26.8638563  68.1282854  13.1783724  27.1200776  68.1559563
  14.1520143  26.2329507  67.4102974  10.1980174  36.5673614  41.6337013
  10.3955126  36.5343475  40.6976795   9.6577543  37.3507357  41.7370081
  28.9900684  26.6739511  61.8474007  28.3946109  27.4181819  61.9356203
  29.8282003  26.9973183  62.1778584  26.9891834  14.9268162  62.8870487
  27.1508098  14.8249161  61.9491100  27.7350736  15.4356968  63.2047272
  55.1778889  66.9402504   8.6667359  55.1219845  67.4393225   9.4816190
  56.0210752  66.4901924   8.7188745  56.2712860  72.5438213   2.2479595
  55.5657768  71.9065428   2.3591569  56.0192442  73.2798958   2.8055423
  77.3143291  45.8240366  29.6621418  77.2079992  45.0536537  30.2202034
  78.1608152  45.6949043  29.2343426  13.6290264   5.1607972  60.2979088
  13.5866845   6.0922289  60.5144167  14.4780433   4.8748904  60.6350422
  66.6539383   6.1718380  19.1554248  66.8130779   5.2482927  18.9605665
  65.7047892   6.2719232  19.0824449  12.8351259  11.8111598  65.6249619
  12.9114413  11.2659276  66.4079857  12.4020362  11.2487745  64.9827862
  28.5473084  55.1598787   7.9358357  28.0672979  55.3582621   7.1318036
  27.8661180  54.9671125   8.5800838  65.2355480   6.1804748  16.4784145
  64.8157358   6.4021283  17.3095953  65.4115438   7.0261359  16.0659647
  65.9576225  14.6479046  55.1106167  66.5967274  14.5641100  55.8182621
  65.9051180  15.5892992  54.9455357  74.0305138   9.4081646   1.4020362
  74.2065382  10.2225041   1.8733075  73.3085823   9.0040827   1.8834554
  60.7294655  67.1580029  20.8491778  61.0479832  67.5080633  20.0171709
  61.1442041  66.2983799  20.9218240  54.7882652  67.2134352  20.3257298
  55.6803799  67.5337029  20.4591155  54.2377090  67.8303671  20.8079290
  51.5815639  69.0915442   8.1215572  52.0210600  69.2830992   8.9500397
  51.9667339  68.2645845   7.8317100  21.0019326  19.5210421  46.4688492
  21.3120866  20.4254508  46.4232016  20.5892968  19.3661726  45.6191540
  56.4610147   1.7193122  35.5884314  56.3608313   2.5523636  36.0491037
  57.1022415   1.2340829  36.1076689  17.9645360  31.7692304  38.2784367
  17.2798860  31.1787772  38.5928464  18.4035218  31.2785220  37.5836492
  55.0516319  29.2560863  65.5792761  55.2106571  29.6500206  66.4370394
  55.4858303  29.8442364  64.9613905  36.1146855  14.1469312  51.0199833
  35.7353330  13.5839856  50.3451395  35.3873539  14.3321693  51.6140413
   7.7638006  16.6694844  48.7107325   8.4538668  16.0893846  48.3889818
   6.9945759  16.1054230  48.7904739  37.3363709  33.0547237  57.4680185
  36.6118240  33.3460975  58.0215168  36.9873762  32.2996116  56.9944763
  13.0510175  54.9122381  61.2391233  12.5371134  55.6031895  60.8211327
  13.6910117  55.3806496  61.7750597  64.3646431  50.1112986   4.2477280
  64.0537834  50.9566641   3.9237541  65.2769423  50.2687788   4.4909221
  20.5894589  65.0937319  16.3366163  21.3457060  65.6802750  16.3535845
  20.8456683  64.3564939  16.8907571   1.1734149  55.7423449  45.6381845
   1.6804257  55.5781984  44.8430586   0.6073525  54.9752378  45.7239294
  57.8711176  28.7796831  56.5772247  57.2585487  28.1440806  56.9473600
  58.7364578  28.4203577  56.7729187   9.5831376   2.9463142  52.6389170
  10.1411104   3.2736287  51.9333935   8.7890089   3.4777203  52.5823593
  58.2997751  57.7437830  23.1182432  58.4931421  58.4256744  22.4749184
  59.1325474  57.5934553  23.5655880  70.7983017  26.9189525  63.8220406
  70.8590126  27.8676319  63.9340878  70.0306082  26.6658688  64.3347073
  50.4776430  62.8022003   7.0557088  50.2402878  62.8017426   7.9830134
  51.1783314  63.4508133   6.9881439  35.0344586  60.4542208  19.3243134
  34.1181183  60.5909061  19.5648789  35.3130078  61.2926483  18.9559555
  81.1750793  77.4807167  66.5976095  81.1353874  77.7560282  65.6817150
  80.4778194  77.9762888  67.0271063  18.2038665  56.8777800  65.0096464
  18.7198722  56.1830997  64.6005154  18.8102591  57.2997665  65.6182909
   0.2214783   4.3006402  55.2093220   0.5833475   5.1867396  55.1987886
   0.9361747   3.7539184  55.5357218  50.5986071  74.8843241  20.2390075
  50.9068537  75.7147408  19.8762131  50.5116892  74.3085909  19.4792640
  83.1038284  33.7541986  30.8341289  83.6580658  33.7894225  31.6137505
  83.7203979  33.7486696  30.1019859  34.3321800  26.5751910  62.4384117
  35.0525951  27.0299864  62.0020676  34.2000937  25.7820535  61.9190693
  57.5253534  17.6524043   2.4162175  57.9049397  16.9599795   2.9572296
  58.2532501  18.2506526   2.2474240  17.1217608  76.4651394   7.5105816
  16.7266595  77.2643280   7.1621245  18.0605733  76.5773249   7.3613244
   8.4504366   5.0084490  35.4232287   8.2141614   4.3098259  34.8130393
   9.3312305   5.2716845  35.1565051  75.6941843  34.0591931  43.6846018
  75.1604319  34.8415756  43.8232279  76.2407541  34.0002060  44.4681931
  71.3395214  41.0006475  48.3830976  70.9082365  41.5078449  47.6953697
  70.9307098  40.1364517  48.3354855  69.5819330  62.0215607  21.2283206
  69.1534376  61.8001986  22.0551372  69.2734909  61.3562965  20.6130815
   7.3500919  25.4560685  56.1979008   7.9921675  25.5801105  55.4989100
   7.4382758  26.2362933  56.7453527  39.6517825  58.6191130  12.3811996
  39.3874192  58.0455112  13.1004536  40.6075048  58.5667419  12.3719633
  21.6957378  28.0399251  63.3714342  21.1798787  28.6921024  62.8973198
  21.7923403  28.4043956  64.2512417  55.5773497  56.0343599  21.1020255
  55.5887604  56.8002701  21.6760325  55.1369905  56.3368320  20.3077793
  58.5402775  20.4183269   6.4203691  57.9185152  20.9062791   5.8804208
  58.8908958  19.7472370   5.8347589  82.3807335  32.5963521  50.4987764
  82.1208286  33.4616017  50.1825142  81.7213345  32.3734856  51.1558580
  16.9691312  38.9964700  38.9102340  16.9531798  38.6688161  38.0110025
  17.3905742  39.8534536  38.8454509  59.5765591  69.8717499   5.6163603
  59.1880417  69.1673565   6.1351335  58.8270760  70.3365088   5.2441949
  40.3441811  24.8447466  38.8459730  40.9308481  24.5491958  38.1497693
  39.7208667  25.4220057  38.4049726   9.5093465  11.8208051  65.0792360
   8.8320160  11.2213480  64.7660160   9.7158074  12.3664725  64.3203831
  23.8175941  73.5199881  43.1827068  24.1109180  72.8868151  42.5275087
  24.4221163  73.4036493  43.9156771   5.2107882  46.4064693   0.9679234
   5.3439367  45.4745483   0.7946289   5.9308565  46.6469431   1.5509367
   9.1717553   0.8295230  44.3684721   8.9791858   1.7292267  44.1044998
  10.1274657   0.7896931  44.4040251  72.6793480  66.6276979  58.4658670
  71.9256687  66.7903948  57.8986502  73.3051491  66.1675358  57.9065323
  17.5764787  33.7550688  11.7393935  18.2843673  34.2123318  12.1933043
  17.4486732  34.2530441  10.9319794  47.9912806  37.4364233  50.6244278
  48.4860659  38.0268860  51.1925650  47.0819044  37.5408053  50.9043789
  64.2963266  55.4003000  65.3394747  63.5050821  55.6842899  64.8817492
  64.7246981  56.2141418  65.6047821  16.0755599   4.3799213  61.2098408
  16.4015007   5.1975667  61.5859413  16.8251848   4.0181059  60.7372046
   3.0429953  64.0525436  21.7514181   2.3603281  64.3564892  21.1532402
   3.2960966  63.1948566  21.4100266  14.9129939  70.4428482   1.4844276
  14.8408008  70.0213146   0.6280816  14.2537117  70.0053358   2.0230930
   2.1281210  72.2537994   5.6217641   1.8067059  72.5133705   4.7583136
   1.6122350  72.7758217   6.2362468  64.4436121  34.3241596  54.8925161
  64.8315382  35.1762652  55.0916672  64.7362566  33.7554383  55.6046581
  13.5541594   9.7675532  44.0496302  13.7365210   9.5701003  43.1309414
  14.4148874   9.7754580  44.4683409  44.9885988  60.3770924   5.3110301
  45.1129961  59.4472885   5.5013329  45.0550270  60.8070517   6.1636460
  68.1639528  25.4310560  18.9019346  68.0740595  25.8535910  18.0477595
  68.1826878  24.4945049  18.7050784  83.7465382  36.7972398  25.6573939
  82.8896332  36.4213109  25.4558182  84.1135597  37.0280743  24.8040247
  67.3698092  76.5790701  58.7039614  67.3764753  77.0516348  57.8715706
  66.7934322  75.8305645  58.5498238  56.8036079  22.9995060  16.4707232
  57.3260784  22.6548457  15.7465231  57.4421549  23.1871080  17.1586871
  27.6462436  25.2481055   2.7416489  27.0681572  25.2956128   3.5030892
  28.1678891  24.4585991   2.8858525  69.1317081  72.1301651   2.3785917
  69.6256399  72.7615929   1.8555601  69.4273853  71.2756586   2.0645471
  10.9176862   4.0482324  63.4440231  11.5822899   3.3818597  63.6186123
  10.0936484   3.6400172  63.7096453   3.2295892   4.3407503  63.1125021
   3.4703979   3.8374770  63.8902950   2.4642316   3.8862023  62.7605867
   5.1053023  32.7895188  50.9489059   5.2414459  33.2012343  50.0955677
   5.5557799  33.3649802  51.5670872  73.1993008  30.5776358  60.8480597
  73.3735418  30.2556896  59.9636269  73.2664299  31.5296006  60.7739735
  26.6529465  59.1942787   0.8259861  26.8115759  58.4190226   0.2874216
  26.0857487  58.8836813   1.5317112  25.5868483  23.3428240  58.6965227
  25.0846601  22.5518990  58.8926744  26.0495973  23.5407925  59.5107126
  48.5165024  63.2435560  60.0116634  49.4725037  63.2648802  60.0546217
  48.2331610  63.3712292  60.9170055  52.4484968  17.4870789  20.7913995
  52.6767874  17.3245823  19.8761368  52.9523516  18.2653630  21.0293865
  62.3797655  60.7232666   5.9392136  62.9422379  60.1677084   6.4788485
  61.5768528  60.2143097   5.8272821  41.4088678  27.5751376  50.9795475
  40.6939459  27.3541474  50.3826523  42.0830536  27.9543710  50.4157352
  10.8121133  68.3593607  28.4107256  10.4611588  67.8604698  29.1484046
  11.2292564  67.7020216  27.8538370  56.9943523  18.9402664  16.2907767
  57.6862431  18.8139403  15.6414974  57.4610424  19.1389537  17.1025372
  44.5561171  31.9314265   8.5128969  44.3593359  32.1287084   9.4286430
  45.3272057  32.4624872   8.3138287  36.1222553  22.9393196  59.9288321
  36.9174480  23.4216857  60.1551533  36.3620138  22.0187807  60.0354052
  38.3190727  61.7388391  56.7945004  37.4249244  61.6866493  56.4568520
  38.3119082  61.1883688  57.5775480  37.9396987  36.6888261  46.1290836
  37.1935034  36.6905880  46.7286015  37.8854322  35.8444023  45.6816101
   2.7710700  10.8780849  57.8746128   2.5010958  10.6552613  58.7655067
   2.9007441  10.0325501  57.4450922  44.3826246  12.8043401  15.7066095
  44.7107887  13.7034976  15.7140267  44.8115540  12.3990357  14.9529672
  33.3606100  76.0121822  14.0719283  32.7911520  75.6821966  13.3769035
  34.0180111  75.3263235  14.1887891  51.8687725  66.7919064  17.6901126
  51.3182211  67.2426081  17.0498049  51.2506104  66.4308071  18.3254981
   0.9293488   5.5348164   9.9990934   1.5517613   5.5881226   9.2738402
   1.0336265   4.6462446  10.3393853  21.4037585  16.6300881  59.5140409
  20.6540442  16.2280273  59.0752840  21.4316344  16.2101436  60.3737545
  33.5290360  31.9614434  51.4955091  32.8766394  32.2254324  50.8467245
  33.7486339  32.7706099  51.9573116  26.2450051  16.8077707  56.3650370
  26.7509460  17.5190318  56.7579269  25.7371831  17.2295523  55.6718922
   8.2442451  35.8821821  63.0542660   9.0364826  35.4623461  62.7191114
   7.6251775  35.1624370  63.1765556  24.0462542  52.6275110  28.7554479
  23.7473202  52.2502899  29.5828390  24.9588680  52.3485613  28.6809087
  72.0614433  17.8518665   6.2354511  72.6308870  17.1669471   6.5859509
  72.3835278  18.6593592   6.6360122  31.8744540  24.0789533  63.1931782
  32.6996779  24.1214824  63.6763191  31.9234514  24.8047781  62.5710773
  68.5087824  32.7484584  56.0721064  69.1514111  32.3569751  55.4804993
  68.1667089  33.5012555  55.5899096  82.0304108  33.9611340  55.1351118
  82.3958206  33.9115882  54.2517948  82.2824574  34.8291206  55.4502392
  61.2706852  55.0228119   8.3166718  61.5009642  55.5576086   9.0764087
  60.9204531  55.6473541   7.6814413  18.8466215  31.1053824  57.3392439
  18.8317740  30.3198051  56.7925453  18.3001637  31.7349219  56.8688250
  15.1355779  11.2230396  52.3061323  15.6190407  11.6624677  53.0057049
  14.3664622  10.8549798  52.7411366  63.1334019  52.7669430   3.8271716
  62.7222061  52.7497339   4.6913767  63.4366131  53.6689854   3.7241194
  62.2049952  19.0808117   2.8748092  63.0580950  19.5146692   2.8896710
  61.8071842  19.3057930   3.7158585  59.2243814  63.4738636  43.6972046
  60.0292921  63.1175089  43.3212185  58.9766073  62.8437138  44.3737698
  29.6314359  28.6319113  48.9478350  29.7910595  28.6976242  48.0063295
  30.4013276  28.1776977  49.2901659  26.9286156   7.6881289  57.6512432
  27.5068641   7.7940053  58.4066582  27.3805857   8.1397247  56.9384909
  36.1294007  34.7186899  66.1873293  36.0421133  35.2626848  66.9700670
  35.2389765  34.4197679  66.0028839  58.0596018   7.3624939  63.3870173
  58.8584709   7.8398412  63.6110210  57.4826860   7.4946958  64.1392946
  22.1119070  60.3118277  49.0041876  22.1619558  60.4596376  48.0597925
  21.6204357  61.0621786  49.3383408  33.9377069  24.5012903  60.3501272
  34.6764612  23.8935471  60.3166533  33.2492828  24.0695572  59.8442459
  29.4234324  33.8783574  32.4465632  30.0040579  34.4614506  32.9355502
  28.7264180  34.4496799  32.1240783  31.4562273  39.1888523  14.5449960
  32.1877503  39.2087269  15.1620150  30.8006644  39.7691321  14.9319613
  77.3944426  67.8851986  22.6291180  77.1552420  67.2018957  22.0029306
  76.8317938  67.7236462  23.3864570  56.9028902  72.6186323  66.8621778
  57.5562382  72.0935822  66.3999081  57.3449326  73.4488344  67.0399332
  36.8771124  61.7295742  22.3383403  37.2563958  61.3593626  21.5412712
  35.9957170  61.3584614  22.3789334  44.8893499  75.4778433  23.5306525
  44.2382240  75.2793550  22.8576970  45.4795408  76.1063766  23.1149006
  24.2857599  57.7812624   7.1023774  24.3635535  58.6011124   6.6145015
  23.7370753  58.0016279   7.8551161  50.4216957  75.1735497  22.9125500
  50.3309250  74.9161339  21.9950914  51.3358116  75.4450130  22.9958272
  56.9715834  22.6164961  58.8441563  56.8667364  22.3892713  59.7680664
  56.8540239  23.5660386  58.8161993  14.9643826   5.6611782  64.8663425
  14.7952020   6.4585996  64.3646145  15.9188712   5.5987149  64.9021578
  39.7772479  18.7301171  54.0589857  40.7247210  18.6566460  54.1735601
  39.4656110  17.8250778  54.0547419  17.6348734  31.9016480  60.1701069
  16.9472408  31.2960744  59.8932076  18.4144163  31.6116953  59.6963167
  30.5685139  34.4914794  52.4024010  30.3682804  34.2953539  53.3176422
  31.5134883  34.6435547  52.3912334  76.6650534  35.4473519  61.4325666
  75.7629776  35.5158305  61.1198378  77.0374918  36.3161039  61.2815905
  48.5998392  46.4088154  10.7292414  47.8432703  46.1621952  11.2612283
  49.3226385  45.8934832  11.0873246   6.1331141  60.2071381   7.1830654
   5.4853195  59.6608353   7.6282024   5.6812537  60.5260181   6.4018047
  82.4221230  23.8032722  12.2454381  82.3382759  24.7463346  12.1046066
  83.1778145  23.7140751  12.8261328   7.7970189   3.6525521  57.7441835
   8.0954623   2.9575831  58.3308506   8.1831002   3.4325486  56.8963766
   8.9493138  54.2790508  68.5018826   9.0074700  55.2200413  68.3363867
   8.3419955  53.9558983  67.8363228  62.4090385  76.2917042  50.7476330
  62.7216768  75.4457045  50.4270506  61.4990044  76.3374996  50.4544258
  26.7536879  29.7385311  49.1998339  26.2603307  29.0148163  49.5859289
  27.6598620  29.4304633  49.1865063  20.5774474  54.4637537  58.8089228
  21.4585781  54.1062689  58.6991787  20.0721836  53.7437773  59.1865158
  18.9559960  31.6538477  63.1226587  18.3652508  32.0174456  62.4630785
  18.4393895  30.9768677  63.5597467  77.2677851  17.9408896  45.0005436
  76.6284084  18.2918739  44.3806744  78.0818844  18.3979869  44.7895002
  46.3814974  69.8568916  48.0176449  46.6854620  68.9606237  47.8743362
  45.4370117  69.8163700  47.8675365  22.3865223  28.6119270  28.5045528
  22.8711581  27.8500938  28.1867957  22.7754021  29.3536067  28.0409646
  41.6228294   3.4024957   7.9344302  42.2437286   3.9166287   8.4505570
  41.0384893   3.0106947   8.5834819   3.8328087  22.1023703  63.4555340
   4.3246731  22.2588325  62.6494217   3.9957631  21.1817217  63.6606741
  13.5368240  26.7598939  51.7655659  14.3162715  26.6660905  51.2179422
  13.2681429  27.6707673  51.6457653  25.5283475  60.6086874  34.4750905
  25.0402069  61.3723946  34.7828364  26.2016296  60.4703903  35.1412725
  81.8773556  73.1524277   3.9951465  82.3213768  72.6643467   4.6885869
  81.0648060  73.4569740   4.3991765  66.8605709  44.8053360   0.9272838
  66.8312502  44.5384598   0.0085080  67.7816248  45.0105667   1.0878073
   8.0180818  40.5072832  50.5099964   7.2355908  40.3450155  51.0368824
   8.7177742  40.6295252  51.1516476  32.3406100  30.0147653  56.0004711
  31.6658235  30.0951338  55.3263521  31.8591046  29.7847176  56.7951155
  64.1733456  40.3966999  21.6522431  63.4291935  40.7920122  22.1063304
  64.7948456  40.1861811  22.3491311  73.5178185   5.2656925   6.5838480
  74.1127300   5.2366060   5.8345407  73.8744402   5.9532523   7.1462649
  11.0895264  47.2098398  52.4649286  11.9909286  47.5249338  52.3984289
  10.9281492  47.1425200  53.4060240  54.4417477  64.6319723  11.5191936
  54.0808487  63.7724638  11.3018537  55.3896475  64.5181322  11.4502394
  12.9651701  60.6483603  46.2975216  12.0994902  61.0232353  46.4596844
  13.2488310  61.0475922  45.4750967   9.9477679  23.1943464  54.8552179
   9.9368399  23.5053134  53.9500046   9.4334298  22.3872685  54.8374414
  10.0510907  47.0362473   3.6583647  10.5715573  46.2396193   3.7619722
  10.2832603  47.5741673   4.4153124  40.8436060  70.3645420  36.8570590
  41.7167950  70.6004524  36.5438271  40.7342434  69.4502783  36.5955329
  16.9328046  17.1305287  64.9233389  16.4973068  17.1362710  65.7757092
  17.7287257  17.6450443  65.0575590  54.3341303  48.1384230  11.1677349
  54.9727345  48.1128073  10.4551589  54.5182848  47.3528767  11.6827464
  19.8233867  60.5972147  13.7181842  18.8997161  60.3989744  13.5640252
  19.8601806  61.5529633  13.7558687   4.4312617  35.2556157  43.1687593
   4.2618260  34.4355512  42.7050638   4.2106995  35.0651979  44.0805292
  60.6788301   3.7512532  27.5163388  61.2648964   4.1145214  28.1802630
  60.2345800   4.5139080  27.1458912  69.4145966   7.7231902   3.9872336
  69.6857595   7.5252998   4.8836377  70.1373482   8.2365006   3.6261609
  25.7806969  26.3991213  65.4226351  26.2891912  27.1016049  65.8278275
  26.2048793  25.5942082  65.7199812  82.5154591   4.8199221   1.3314462
  82.8506947   4.7545519   2.2256377  82.8066921   4.0129745   0.9068839
  12.2725761   1.5208483  37.4192500  11.4995039   1.6447334  36.8685746
  12.9960144   1.4287814  36.7992568  18.4295428  34.8614836  19.8252952
  18.6067295  34.2719078  19.0923309  19.2436922  34.8692894  20.3286147
  67.2746944   8.4454793   2.5113085  67.9192352   8.2557577   3.1930754
  67.7285910   9.0362704   1.9103286  28.1967974  14.5669365  39.2051578
  27.9511666  14.3153429  40.0954390  27.6485991  14.0205455  38.6419821
  15.4806900  30.0947905  54.5546484  15.8397305  30.2089000  53.6747026
  15.4552341  29.1464162  54.6818161  32.3276210  49.9358463   1.3747133
  33.1334805  49.4566965   1.5676814  31.8367100  49.9195528   2.1962807
  43.1207943  66.3195562  54.7132921  43.6165667  66.9419432  55.2453375
  42.8339386  65.6493950  55.3336430  39.2456722  16.0031319  53.1735134
  40.2003384  15.9944069  53.1044388  38.9394021  15.9090686  52.2715235
  17.5473750  29.7123694  64.1492176  16.7566478  30.2497649  64.1960192
  17.5226021  29.1800523  64.9443579  47.5194025  72.8250313  25.0103951
  47.4636269  72.1673965  24.3171191  48.4576607  72.9232359  25.1724410
  82.4293232   0.2053367  13.3407307  83.1702900   0.8106026  13.3113754
  81.7356110   0.6522724  12.8557110  52.5405264  18.5453808  47.6930285
  52.2193861  18.1538332  46.8807507  51.9869232  18.1674230  48.3763313
   1.0401036  25.4352689  25.1530766   1.5282467  25.8665872  24.4517112
   1.5446097  24.6447706  25.3449535  30.0912213  78.6901569  14.1194248
  29.7443032  79.5137119  14.4624126  29.5281768  78.0160904  14.5000160
  19.7882831  29.2912960  37.2727728  19.8362041  28.6625218  36.5526509
  20.3388405  28.9128160  37.9582453  23.1806540   8.9556944  21.8801188
  23.7642384   9.5678657  22.3283434  22.4339724   9.4904590  21.6104412
  31.1797619   4.0322128  42.0844936  30.5458736   3.3528051  41.8546581
  31.1438537   4.0799841  43.0398226  16.6296935  25.0602603  66.7232752
  17.1958053  24.9497151  67.4871635  17.2325301  25.0867414  65.9802294
  82.2453403   0.1500219  18.7035978  81.8631458   0.8980835  18.2447255
  82.4048710  -0.4966435  18.0161357  14.0868509   0.9059122  23.1125689
  13.9107108   0.0081545  23.3940601  14.9750721   0.8755507  22.7570820
  10.6094527  24.2673755  41.7908621   9.8791796  23.6485791  41.7860603
  10.9919429  24.1932559  40.9165382  42.3514748  68.9377832   7.0337069
  42.4284410  69.4729042   7.8236139  41.8642426  68.1635380   7.3154533
  14.3432128  68.9195156  48.4653473  13.9464390  69.0870619  47.6105213
  13.6867690  68.4076595  48.9379120  31.6039538  79.3102932   2.9467219
  32.3574233  79.7959661   3.2823387  31.7414069  78.4137154   3.2524747
  78.5801554  19.5967388   1.1172125  79.2005539  19.2428577   1.7544803
  79.0493155  20.3209233   0.7028687  20.4929733  14.0265334  64.1981363
  20.2882719  13.1383944  64.4906044  20.5372834  14.5400655  65.0047016
  48.0817938  51.1779976  18.5729849  48.3653831  51.8935108  18.0039060
  48.2630968  50.3847694  18.0688548   7.5644535  43.9992809  38.6972260
   7.3830611  44.9240351  38.8650155   7.8739846  43.6597204  39.5369434
  24.1346359  70.7130384  19.1556585  24.8697948  70.1002264  19.1402745
  24.5393944  71.5751266  19.0597391  81.2282276  35.1499891  49.7309446
  82.0297432  35.3268361  49.2384672  80.6949806  35.9357619  49.6107769
   4.1907221  14.9959791   7.7563965   3.7177902  15.6993532   7.3116118
   3.5668465  14.2707253   7.7882928   8.4740251  35.8392835  69.0267181
   9.2042196  36.1904860  68.5171080   7.7094233  35.9587860  68.4633923
   7.2895736  35.1824355  35.4986262   6.5667182  34.7003722  35.0969696
   6.8709815  35.7374430  36.1566353  64.2613316  75.6736231   6.0560107
  64.9320555  74.9944639   6.1274600  63.6414194  75.3312254   5.4120356
  26.1641788  79.1641235  35.1561785  26.4388680  79.9867773  35.5611706
  26.7757726  78.5124588  35.4989839  16.5467131  71.0423899  47.6355982
  16.0601687  70.5050898  47.0104504  15.9075403  71.2575531  48.3148623
  64.7754240  56.2138653  62.2137403  64.7929287  57.0445967  61.7385435
  64.7387028  56.4663839  63.1362963  16.0417616  19.8627818   0.8071884
  15.3791320  20.3839278   0.3538007  16.7623937  19.7942853   0.1809060
  21.8890166  28.6039472  43.8714123  22.1269464  29.4684696  43.5364199
  21.5043950  28.1532955  43.1196070  58.7810898  22.4167013  14.6753156
  58.7724972  22.1955776  13.7440467  59.6900034  22.6562214  14.8562396
  37.0396852  74.6667719  48.6034536  37.4422669  73.9916611  48.0572081
  37.0439887  74.2951870  49.4855738  18.1756306  10.8416045  66.7308092
  19.0092015  10.8350205  67.2012854  18.2216251  11.6180348  66.1728907
  57.4497938  56.7913008  16.4822710  56.7114258  56.6908646  15.8814752
  57.0990515  56.5404940  17.3368514   9.4919854  45.6894970  64.9679279
  10.2658665  46.0490656  64.5342827   9.8167771  45.3665113  65.8084202
  44.5327568  18.8469577  68.0082035  45.1832628  19.3959641  67.5704098
  45.0178289  18.4155500  68.7116385  52.6024055  55.0217295  25.8131981
  53.3389711  54.4436646  25.6143379  51.8690348  54.4282293  25.9749365
  72.6036406   1.2619151  10.1057148  72.6373339   1.9644812  10.7549429
  72.7333784   1.7044711   9.2669392  16.8848193  42.1392441  56.8467283
  17.1165812  43.0659103  56.9084263  17.6493430  41.7274427  56.4440489
   7.0016700  18.0150080  60.2683640   7.1153635  18.7222314  60.9033012
   7.0920825  18.4413970  59.4161654   7.9459029  69.4878912  61.6020775
   7.4649298  69.2909718  60.7982588   7.6765406  70.3775501  61.8305206
   7.4444801  44.6500349  31.1611843   8.2577306  45.1437187  31.2666774
   7.3641318  44.1450930  31.9703865  22.3926830  61.4982557  56.8681717
  23.0059838  60.8253288  56.5727568  22.2661471  62.0594645  56.1031437
  11.7129719  68.6493301  52.7169514  11.5086734  67.8838682  53.2541370
  11.8380117  69.3582296  53.3478689  55.7645845  63.5521507   7.1164203
  56.1266470  62.6986980   6.8781757  55.7613850  63.5522175   8.0736148
  10.1073456   2.0797239   6.2482780   9.3024677   2.5817984   6.1205089
  10.7564270   2.5250462   5.7036567   8.1770837  74.5936680  58.5518503
   9.0545619  74.2480421  58.7155724   7.9311526  74.2297411  57.7013731
  52.2208786  73.5951948   3.0877802  52.4778318  74.5151711   3.1498080
  51.5798235  73.5729408   2.3772979  20.4425025  66.8692255  33.8348055
  20.2485800  67.8062677  33.8107872  20.0768113  66.5279627  33.0186915
  28.6059403  19.2313039  62.6079321  28.5384989  18.4274352  63.1231785
  28.7180614  19.9242210  63.2587194  72.0278406  25.0881505  37.5727987
  72.5727606  25.7959247  37.9168200  72.6459551  24.4977283  37.1420169
  10.4390001  57.3119307  23.1487107  10.5059087  57.5469589  24.0741944
   9.4979542  57.2513771  22.9844022  61.1278677  65.5097485  68.1387997
  61.1590528  66.1324215  67.4124813  60.5021334  64.8429203  67.8559113
  28.6184692  19.5661545  55.2576399  28.0613256  19.3762946  56.0124779
  28.6220694  18.7533343  54.7521305  84.0184021  41.3211775  64.5439482
  84.9284840  41.0248327  64.5565414  83.8914013  41.6672564  63.6605835
  20.4678535  33.2464218  65.0885010  20.8344913  32.5121498  65.5810976
  19.9583495  32.8356457  64.3900013  16.4861703  48.4575129  40.0004292
  16.5140855  49.3829441  40.2433920  15.6843305  48.3692408  39.4851661
  56.4537764  47.9462433  56.9928455  57.3375559  47.6612616  56.7605686
  56.1454248  48.4227133  56.2220478  76.8397141  41.5939903   0.9329383
  76.7158318  40.6998301   1.2513122  75.9620285  41.9758129   0.9436928
   2.6261312  27.1477294  49.2302418   1.7911816  27.2320533  49.6906567
   2.6821014  27.9355764  48.6895037  10.4234397  64.0819263  15.7130432
  11.1014247  64.7094154  15.9636974  10.4745817  64.0427971  14.7580123
  52.5909090  72.0533419   9.0410972  51.7894077  71.9857168   9.5599955
  53.0265093  71.2096405   9.1621608  38.7940979  71.6816473   2.1386498
  38.5611820  72.0999813   1.3098086  39.7483039  71.6110611   2.1114820
   1.0598703   3.5918683  25.3732204   1.7975396   3.1474286  24.9554276
   0.2943151   3.0771658  25.1178002   9.1973734  36.7817473  14.9150789
  10.0523424  36.4780545  15.2200878   8.5774320  36.1407232  15.2629197
  33.4426403  73.7487841  58.0222893  33.9432740  73.0894470  58.5027790
  32.5597858  73.6925554  58.3878565  76.4747572  74.2396402  18.4981537
  77.4222851  74.1151953  18.4439635  76.1466980  73.4215212  18.8713706
  69.2579317  64.5880747   1.8062408  69.2682362  63.6574316   1.5825821
  68.4087610  64.7240067   2.2265556  12.8292596  73.0577326   0.7036176
  13.6912239  73.1543684   0.2987583  12.9841614  73.2095528   1.6359201
  27.5628781  29.5123315  56.6703653  27.1304202  28.7635231  57.0808458
  27.0020032  29.7351360  55.9273911  59.7047043  29.4871712  17.2918355
  60.4786348  29.2091203  17.7816808  59.1957569  28.6852860  17.1727443
  73.1455374  20.0270724  51.0218096  73.4550953  20.4550099  51.8201065
  73.4610510  20.5867410  50.3122616  36.3565660  70.0667143   0.7893775
  35.5552983  70.5641937   0.6259193  37.0183754  70.4928684   0.2447371
  78.6352587   7.5397360  38.9668107  79.4213772   7.5615317  38.4211254
  78.7895250   8.2067156  39.6358204  80.2792549   6.8731791  13.9424717
  79.4276810   6.5200514  13.6848962  80.8589840   6.6571450  13.2120728
  76.9530678  14.2493868  57.1013260  77.5076675  14.5862150  57.8050280
  76.0610342  14.4582903  57.3785734  72.2599173  51.1885023  65.2820587
  72.8680563  50.6870317  64.7389841  72.3733950  50.8300114  66.1623049
  32.3316002  53.1044340  31.2820387  33.1785440  52.7903605  31.5987015
  31.9777679  52.3718071  30.7777643  51.8371677  28.3763123   3.8478166
  51.5594435  28.6107421   2.9622975  52.4486065  29.0688682   4.0982980
  83.1686306  13.7972915  11.8531060  82.2900295  13.5719919  12.1589339
  83.6114025  14.1412592  12.6289046  15.4945362  62.6269007  46.8282175
  15.8656561  62.2801018  46.0169029  15.0569785  61.8769789  47.2312021
  40.5293465  46.1192179  66.2075567  41.1255217  45.3905773  66.3804388
  39.6770334  45.7046938  66.0735226  48.0595016  61.8869734  66.4413738
  47.2891426  61.8819523  65.8732605  47.7061081  61.7845106  67.3250294
  58.5618210  70.5242109  12.3963797  57.7583218  70.7334900  11.9201231
  58.5159254  71.0578585  13.1896937  69.6955538   1.1137576  47.8797722
  69.0671730   0.5436991  47.4365950  70.1809835   1.5331425  47.1693468
  51.8784237  61.3943195  56.0865498  52.1523380  61.6505957  56.9671917
  51.6277075  62.2163057  55.6649876  27.3821378  63.1329060  55.0266027
  27.4363589  62.9934883  55.9720421  27.3818016  62.2511625  54.6541023
  16.8691993  49.3796158  67.5092936  16.2449718  48.6578798  67.5845766
  17.3389161  49.3780041  68.3433151  50.6666708  54.9756908  42.0328951
  51.0373259  55.7584763  41.6253471  49.7391176  55.1820469  42.1481991
  11.7460871  69.8015261  57.3981285  12.3645878  70.2054644  58.0068350
  12.2966397  69.4280958  56.7098904   2.1563859  23.6513925   2.4149430
   3.0414104  23.9537954   2.6186982   2.0701542  23.7819099   1.4706120
  34.4043303  48.7809420  20.4719305  34.6648884  49.3591976  21.1888433
  33.6925530  48.2543087  20.8356118  12.6679409  34.8906302   4.0601620
  13.0353260  35.6593871   4.4963625  11.8438780  34.7261429   4.5185262
  14.4428551  66.6334105   5.8622795  15.3809869  66.8226624   5.8442426
  14.3262684  66.0730505   6.6295040  51.6933060  46.2177896  47.9994059
  51.7224026  46.8381643  47.2710323  50.8223820  46.3346958  48.3789444
  46.5302849  46.0753775  66.5089464  45.7910061  46.2473774  65.9257555
  47.0327950  45.3930426  66.0638237  82.6457405  11.5366256   5.4532272
  82.4666405  11.6491640   6.3867640  82.4167347  10.6247401   5.2736390
  18.9525414   2.5291285  19.4291353  19.6082020   2.8487858  18.8093281
  18.5736740   3.3225805  19.8074543  54.0656662  67.9133797   4.1457558
  54.1485453  66.9709110   4.0004468  53.4074640  68.1966019   3.5110986
  61.5905285   9.5284480  50.6105471  62.4823713   9.8632765  50.7040215
  61.6491842   8.6120600  50.8807755  63.3118725  53.1052113  33.0625081
  63.1623363  52.1615601  33.0042124  64.2448473  53.1881332  33.2597756
  68.6041880  17.2926342   5.5848187  68.8669014  16.3983715   5.8027816
  68.8021278  17.3798859   4.6523818  77.1029472   3.1607163  41.5501022
  77.4661541   3.8248914  40.9642792  76.6134834   3.6598882  42.2039223
  57.7691555   9.0301281   6.9411117  57.7278185   8.0881989   6.7759079
  58.4889936   9.3384749   6.3906711  71.0950375   7.5174558  25.9570718
  70.2716541   7.0296162  25.9738135  71.7725801   6.8424773  25.9173799
  18.3042002  32.9270077   5.8457547  17.6690185  33.5646272   6.1716652
  19.1093481  33.1250572   6.3240266  13.4480441  30.9766674   7.4163693
  14.2955589  30.5517030   7.2846276  13.4105492  31.6514969   6.7385572
   2.4051535  21.6388583   7.8031820   2.5892290  21.5207219   8.7350577
   3.0264619  22.3094559   7.5194460  44.0738201  25.6335354  37.8570199
  43.2608414  25.2151251  37.5737715  44.3565512  25.1199079  38.6136460
   8.3810812  53.1275177  22.8720689   8.3977383  52.1717978  22.8214860
   8.4391558  53.3188677  23.8081455  49.9939775  69.4689798   2.9825062
  49.5108128  68.8074827   2.4873255  49.5614672  69.4924879   3.8360974
  15.3706491  14.4935429   1.8091436  15.6568050  15.3674841   1.5434842
  14.6965635  14.2581391   1.1716289   4.2380801   1.3041703  33.1116104
   4.9215478   1.4626394  32.4604654   4.0908223   2.1586508  33.5170865
  15.9507588   0.2728982  53.7199163  15.8775882  -0.3094869  52.9638052
  16.6569928   0.8766312  53.4897614  33.6430025  67.7095127  57.9889345
  33.6480188  67.5507069  58.9328575  34.5681214  67.7757454  57.7522802
  37.4085045  16.9321644   4.5365721  37.6302147  16.3918531   3.7781921
  36.5118957  17.2228062   4.3696862  21.0699201  26.3989902  16.0172379
  21.8623304  26.1902499  15.5225217  20.9441161  25.6472850  16.5963268
   5.8173496  66.1009693  10.1451552   5.5161333  66.9547462  10.4559040
   6.3244832  65.7456875  10.8751023  33.4356948  79.0545753  68.9454815
  32.8833892  78.4187105  68.4906555  32.8892493  79.8370007  69.0192437
  22.0488524  66.7744446  63.9763689  21.1446500  66.7394972  64.2885017
  22.2869110  67.6997089  64.0350866  23.1372166  64.4644403  63.5455561
  22.9127479  65.3889751  63.4402847  22.9348636  64.2715788  64.4610262
  75.0916195  66.1246538   6.2339306  74.6829748  65.9142065   7.0735443
  76.0050106  65.8582354   6.3386524  18.3128607  53.2531881  43.1413031
  17.8955412  52.8077984  42.4039412  18.7252903  54.0246773  42.7527952
  36.0409379  27.3213601  30.5916572  36.4545274  27.2050905  29.7362876
  36.1024570  28.2613301  30.7616615  75.6777620  62.4192095  28.5676241
  76.6128159  62.5894260  28.4539175  75.2815008  63.2885408  28.6266160
  12.2481978   1.9280967  44.3378353  12.6025641   2.2777981  45.1553679
  11.8411815   2.6821643  43.9112759  23.0498505  22.8547430  15.3958285
  22.8768182  23.0531478  14.4755423  22.2836137  22.3574138  15.6817961
  44.1509819  32.4796605  63.9361000  44.0686560  31.5524220  64.1590023
  43.8835239  32.9416561  64.7306156  56.2135315  39.8829746  12.9452109
  56.2032127  40.8109856  13.1795728  57.1203661  39.6105790  13.0855072
  54.3790817  76.7323732  30.1666451  55.2186918  76.8901682  30.5983710
  54.0736198  75.9024858  30.5329943  47.9701138  57.0305347  37.3105693
  48.0513048  56.6878128  36.4205265  48.7251711  57.6096916  37.4140191
   1.0710054  11.0799968   6.7401439   1.5220417  11.3638961   5.9450340
   0.7549523  10.2000737   6.5350151   5.6802702   3.0226210  42.2940874
   4.7590715   2.8783578  42.0777225   6.0490614   2.1426094  42.3702717
  50.0940228   1.3570881  67.5324869  49.4139957   1.7219092  68.0987883
  50.9068537   1.4843987  68.0217028   0.9381568  12.3760760  18.8666141
   1.6541347  12.6635540  19.4331515   0.6260008  13.1788576  18.4490848
  82.7641010  25.6996036  50.1748276  83.6015987  25.4131126  50.5391693
  82.2935581  24.8871684  49.9883556  17.0390129  62.4482393  40.2733517
  17.9015946  62.0368576  40.2190304  16.8953252  62.5805092  41.2104177
  28.5400772  57.8484631  51.8818140  27.9850006  58.6272001  51.9228983
  28.1224918  57.2250557  52.4761343  69.5699835  31.1812520  62.4202156
  69.0602827  31.0156059  63.2133055  68.9182329  31.4266062  61.7635155
  56.3225889  31.5026641   3.2674620  57.1235514  31.3701439   2.7603826
  55.9389544  32.3011732   2.9049203  51.1976385  45.7308102  61.3253593
  51.6736078  46.2561750  60.6821823  50.4644489  46.2853241  61.5921640
  27.4023652  64.1370249  59.6493578  26.6896892  63.6513424  60.0646114
  27.7414656  64.7038174  60.3421688  33.4268713   1.0437782  52.9897261
  33.0532861   0.5664463  52.2489023  33.0062485   0.6594963  53.7589073
  43.1772900  61.0319614  62.1615362  43.7550402  60.5769634  62.7742481
  42.4335098  61.3107061  62.6956987  36.2092328  73.2954311  55.0171471
  35.6032228  72.5584698  55.0937796  36.7186332  73.1057072  54.2292690
  42.9691792  11.5211570  62.2180319  43.0754805  10.6587350  62.6194859
  43.4883356  12.1072817  62.7686405   7.4928987  48.9250135   7.3624581
   7.6968884  49.7431278   7.8155637   6.6202533  48.6883593   7.6766497
  57.2991562  42.8836060  51.0510969  57.3985815  43.1992579  50.1529264
  56.9834709  41.9850206  50.9556055  60.6270838  77.0396471   6.8461114
  60.2715302  76.3689423   6.2630403  60.1990461  77.8495979   6.5686327
  82.4155712  49.4749165   3.6908931  82.6571083  49.5053959   2.7651715
  81.6389656  50.0308847   3.7542206   2.4541432   9.2041355   4.4001603
   3.2130072   8.7020862   4.1030002   1.7990926   9.0768415   3.7139121
  69.3109846  13.5522878   4.2949796  69.4240236  13.8583159   3.3950907
  70.0659704  13.9063025   4.7649747  14.8730671  13.7302220   4.3805036
  15.4553521  14.0610051   5.0644326  15.2005470  14.1282976   3.5739523
  55.4564238  69.0003204  63.4605694  54.8868465  68.6272192  64.1333294
  56.3433218  68.8544321  63.7897539  14.6388876   3.8749894   4.2311704
  14.5999444   3.4219670   3.3888605  15.4786217   4.3342200   4.2175382
  73.2214499   8.9136034   9.6326447  72.9793262   8.6699969  10.5261004
  73.8653088   8.2553864   9.3710631  75.0670576  38.1743169   8.0990505
  75.2053833  37.2626972   7.8420460  74.3746042  38.1347561   8.7587297
  50.2595854   4.6472973  63.3613253  51.2149763   4.6551415  63.4195662
  50.0521040   5.3408080  62.7350426  26.7928076  53.2528782  62.4877882
  26.6864371  52.3129892  62.3410845  25.9029150  53.5752058  62.6307106
  72.1623087   8.8752240  65.7608509  72.1607924   8.3082181  64.9896622
  73.0651665   9.1860145  65.8278513  71.3594961  59.1400671  55.5634928
  70.6033516  58.7842369  56.0302496  71.7765713  59.7262764  56.1948681
  15.8838451  67.6312876  63.7477446  16.1331832  68.3187151  64.3654060
  15.7779360  68.0866766  62.9124975  69.2165136  79.0866947   6.0993576
  69.8602915  79.7159815   5.7741171  69.6440029  78.6724710   6.8489605
   8.0991995  30.8511686  11.8825459   8.7490350  30.7160544  11.1928427
   7.9157549  29.9722362  12.2142947  40.6482887  45.3164291   7.6639742
  39.8771429  44.7502851   7.6316088  40.3048325  46.1750889   7.9108995
  56.5299988  48.4029961  46.7021990  56.9369507  47.9624462  47.4482155
  55.6578159  48.6450005  47.0135736  78.9116907  17.8153837  58.7871599
  78.5857725  18.7084067  58.6752605  79.3318701  17.8197742  59.6471977
  64.4689226  51.6185236  62.5149727  64.5037889  52.4638462  62.0672607
  63.6829042  51.1962128  62.1684790  18.6972570  16.3413095  28.0967641
  18.8293827  15.3936756  28.1244206  19.4393015  16.6719246  27.5905061
  79.2583275  72.3091555   0.7035768  78.7666464  71.6940928   0.1593569
  80.0670147  71.8446493   0.9191996  15.6133711  23.4382677   0.3471515
  15.4662681  24.3815446   0.4165676  15.1532447  23.0680299   1.1004378
  76.6965628  73.2777500  56.6171217  76.0361958  73.4979725  57.2741222
  76.2636328  72.6435900  56.0455942  66.0620451  67.2163105  54.4183826
  66.6422749  67.3427296  53.6676645  65.2426481  66.9006968  54.0373087
  28.5674143  33.7232804  40.9441423  27.7396774  34.0007496  40.5515909
  28.4199667  32.8112173  41.1944008  48.9849806  59.1297722   4.0131977
  48.8202715  58.3435917   4.5337957  49.1462612  59.8162270   4.6604979
  54.2785883  17.7422369  62.0686388  53.5150433  17.7694499  62.6452589
  53.9931726  17.2218513  61.3176584  45.2792454   1.3127163  67.4021673
  45.3637266   0.6900422  68.1242275  44.8871183   2.0897153  67.8005886
  15.0067174  12.8592038  57.0811796  15.8071780  12.7441573  57.5932932
  15.2595258  13.4488702  56.3708210  50.5620766  67.1264982  33.4954476
  50.4505682  67.0799541  32.5459051  49.6744776  67.0476389  33.8449907
  17.0973539   7.8981107  50.0212336  17.7111590   8.5857147  49.7630167
  16.5002620   8.3277100  50.6337309  64.7190571  53.4400272  22.8865242
  64.7672462  52.8984737  23.6743236  65.5957270  53.3875799  22.5058293
  69.5162296  49.8584414  44.7395420  70.2951431  49.5094347  44.3062782
  69.2492819  49.1672564  45.3455400  37.9811621  27.2988057  65.4237556
  37.6662660  26.4915180  65.8303976  38.0368662  27.0912242  64.4910002
   0.7850385  18.6020505   2.7802593   1.6132149  18.1700611   2.5711161
   1.0038308  19.5330703   2.8197938  62.8662157  45.5557489  55.6187963
  62.4650097  46.0311604  56.3462877  62.6283312  44.6410275  55.7702303
  32.7582574  29.1650248  32.9089022  32.1016192  29.8129988  32.6535869
  33.2005358  28.9371967  32.0911503  13.4755492  32.5079608   5.2568752
  13.0706668  33.2776046   4.8569399  14.2279994  32.3152423   4.6974918
  74.6835232  35.0077915   7.2930568  74.4801950  34.1254401   7.6034546
  74.1387844  35.1190495   6.5138841  57.9876661  39.9896336  56.5237617
  57.7160120  40.3307867  57.3758459  57.2381783  40.1517391  55.9508562
  49.7086096  50.4745102  11.3840723  49.6718979  51.1295033  12.0811164
  50.6124067  50.1595974  11.3986838  76.7231846  48.7568474  52.6588821
  76.3868999  47.8650951  52.7478886  76.4304352  49.0378046  51.7919397
  38.0011821  22.5255108  33.5834289  37.6878119  21.7847252  33.0645204
  38.4413838  22.1240044  34.3325925   5.6005049  48.0241632  60.6318712
   5.7916468  48.9328623  60.8641577   6.3554054  47.5309849  60.9530115
  60.2343559  76.0887480  12.8710151  59.9170446  76.9915628  12.8492761
  60.1020479  75.7668400  11.9793320  27.9311085  68.6734343  51.8516970
  27.3168468  68.8225222  51.1328888  27.3837471  68.6663532  52.6369238
  75.0435495   8.9631420  17.2721016  74.1460752   9.1780448  17.0179749
  74.9470282   8.4095275  18.0469739  39.5400453  76.3452101  64.8842859
  40.3556585  75.8737612  64.7147417  39.1883612  75.9383297  65.6761169
  78.6506701  51.6319704  33.2311487  79.5241213  51.9438219  33.4679270
  78.6997986  51.4752007  32.2881508  44.7924232  12.4570310  29.6451950
  44.4794178  12.3893154  30.5472350  44.1523409  11.9640040  29.1319203
   9.5114636  58.5284281  62.7715111   9.9283308  57.6808453  62.9266024
  10.2004302  59.0663958  62.3814487  15.5503094  37.8490233   7.6934254
  14.6336198  37.7596903   7.9540610  15.6760621  37.1753240   7.0251828
  62.2124720  48.3411169  42.5533009  61.8740940  48.6818552  43.3813286
  61.7299366  47.5261641  42.4145937  31.5534449  79.5620632  18.3385789
  31.4303160  79.8145771  19.2536235  31.3283563  78.6320162  18.3144009
  17.8828526  12.6731443  13.0084622  17.3889005  12.8008258  13.8183630
  18.6683273  13.2086980  13.1200135  76.8519783  19.7506404  13.0445766
  76.3537073  18.9585161  12.8433466  77.5064659  19.4662964  13.6825621
   9.2626935  70.6861877  23.4257388   9.7244418  70.6359529  22.5887823
   9.6431541  69.9827957  23.9517784   8.6610723  43.9842987  21.9791770
   9.0239155  43.6607599  21.1546183   8.0751771  44.6955919  21.7203021
  30.8576775  25.6400847   3.4381631  30.3319144  26.3995433   3.1871095
  31.5591359  25.6087708   2.7876183  81.6832066  48.6010981  21.5612340
  81.3551426  49.0362883  22.3481297  81.1869717  47.7838802  21.5149570
  69.4637537  51.1055756   5.6830865  69.5344543  52.0551920   5.7803726
  70.2677679  50.8506584   5.2305222  81.7400646  41.9802999  32.7856994
  82.2900867  42.2523212  32.0510507  82.2809887  41.3584900  33.2725120
  22.4209237  19.1220891  42.0771551  21.7993045  19.2932916  41.3696861
  23.2620478  19.4255221  41.7355871  64.9489641   6.2838387  52.3037863
  64.1904306   6.0045999  51.7910624  65.1075649   5.5604613  52.9102516
   3.4715542   5.7484561  57.8863573   2.5595549   5.7253957  58.1761074
   3.9609832   6.0328579  58.6582422  22.1552634  78.9957857  65.4768133
  21.2448144  79.0318680  65.1835346  22.1602082  79.4796419  66.3027000
  72.0356989  25.3420448   1.8506999  71.7082310  25.4537582   0.9582213
  71.5165615  25.9523058   2.3744479  36.4511299  67.9373312  57.1370792
  37.0236635  68.5229158  57.6325798  36.9557929  67.7142477  56.3549137
  60.7033157  15.9800255  10.0900602  60.6330633  15.4930925   9.2689675
  61.6405344  16.1468458  10.1901579   6.2397623  69.3307304  68.3241177
   6.3401598  68.4445047  67.9766273   6.3260210  69.8992443  67.5588846
  59.5708227  54.2085791  66.1741590  60.1781511  54.1254759  65.4389906
  59.8312426  53.5144329  66.7796087   6.1742836  17.3611331  65.4708338
   6.3400668  18.2762241  65.6974506   5.2326292  17.3226619  65.3033876
  61.4083433  65.6888628  14.8605943  60.9354830  65.7151842  14.0287638
  61.2628317  66.5527582  15.2462614  76.2211657  74.7371912  66.5424967
  76.1268902  75.5412912  66.0318422  75.4272985  74.6976995  67.0758295
  82.1372604  26.2960720  44.7412825  81.6824150  25.6486845  45.2800179
  83.0298042  26.3106322  45.0867939  34.2658591  37.9995418   8.5717410
  33.4873867  37.4570394   8.4456229  34.9737215  37.5013828   8.1630808
  64.1637230  68.3393717  52.0039320  63.7911701  67.7377415  52.6485109
  63.8289118  68.0271339  51.1633110   7.3550969  36.7132211   8.1762630
   6.4001942  36.7415810   8.2361615   7.6444137  37.5354719   8.5717797
  62.4039841  74.8252583  41.5778112  62.4123859  75.6424522  42.0761681
  62.4581861  75.1019907  40.6630898  52.9683924  73.3831692  12.5550282
  53.3760691  72.9693556  11.7942476  53.6590576  73.9304495  12.9287934
  31.5591884  65.3086996  31.8319774  30.6781816  65.6307364  32.0226336
  31.7142820  64.6313477  32.4902892  25.8854675  36.0105228  11.5451062
  26.0384417  36.2298965  12.4641860  24.9359632  36.0699201  11.4395213
  13.2622135   6.1642796  46.5185165  13.7912083   5.7845378  45.8169556
  13.5569441   7.0731860  46.5755653  75.9108257  52.6397800   1.8656519
  75.3558302  53.1869173   1.3099076  76.4594412  53.2621527   2.3430470
  18.8584232   1.8359731  57.5292110  19.0685534   1.1068261  56.9457531
  18.0050087   2.1464930  57.2267342  44.2432117  56.4672089  68.9880180
  43.4675550  56.6868639  68.4719372  44.9777699  56.6221714  68.3941841
  16.8230700  31.4522457  18.5040534  17.2735977  31.0070729  19.2217410
  17.5271690  31.7574859  17.9319477  20.4398870  60.5430269  52.4626160
  19.5344090  60.2342081  52.4937439  20.7079887  60.5918121  53.3802032
  39.4722128  23.6501145  31.6002035  38.8453412  23.4078479  32.2817993
  38.9392185  23.7602472  30.8127904   1.0819707  37.7971816  16.0937572
   0.2704855  37.3512340  15.8511615   1.4899433  38.0235672  15.2579701
  46.0616016  61.6481066  11.3326764  46.2250566  62.5905323  11.3694346
  45.1921463  61.5709591  10.9398341  62.3642588  53.0967140  57.2127581
  63.0857182  53.6002350  57.5898504  62.3243809  52.3010969  57.7434540
  53.2394886  45.6239557  17.6977181  52.6955223  44.8406553  17.7800226
  54.1377306  45.2932262  17.7012813  11.0642087   4.0641218  60.7089090
  11.1376143   4.0677446  61.6632795  11.9574082   4.2145953  60.3994131
  73.1767559  28.6961007  51.8012381  72.3877239  28.9109683  51.3037539
  73.0491352  27.7868390  52.0717669  84.1645718  15.0605214  17.7464116
  84.1070175  14.9078965  16.8032122  83.7031364  15.8878314  17.8837633
  78.8555145  36.2293696   9.0185511  78.1986427  35.6680822   8.6065918
  79.3481302  35.6412101   9.5909387  66.6642475  32.7573133  53.1077385
  66.9855595  33.4861398  53.6385870  65.7160473  32.7656031  53.2384062
  10.5171251  13.5230744  25.3067994  10.3065026  14.0808713  26.0556197
  10.8694947  14.1250789  24.6513152  46.5984440   1.2853031  49.0970325
  45.6942749   1.2002627  49.3994904  46.9429493   2.0364392  49.5800877
  67.4190521  58.9540958  63.9468622  66.6969109  58.4995556  64.3806171
  68.0756569  59.0705824  64.6335459  45.4309988  61.4097452  65.8401251
  44.7361994  62.0681334  65.8436966  45.2733040  60.8994293  65.0458050
  22.3322749  61.7844296  11.0245442  22.1740842  60.9007454  11.3566780
  23.0224800  62.1324921  11.5890801  36.0377264  62.8545618  62.9445791
  36.3410115  62.6455307  62.0610857  36.0533023  62.0169401  63.4075975
  12.8485322  61.6568613  33.7166095  12.7309442  61.0786581  32.9628944
  11.9718981  61.9961262  33.8972878  59.1864777   5.8665568  52.9558945
  58.5771275   5.1290584  52.9239559  59.9807787   5.5041414  53.3482838
  59.0323305  31.2087822  20.4618907  59.0573883  31.5125537  19.5545185
  59.9416828  30.9912825  20.6668544  14.5049310  21.5692353   2.6218304
  14.6755517  20.7523441   2.1529943  13.5506642  21.6179156   2.6787329
  45.3808832  63.8735580  26.5098929  46.1386395  63.8278246  27.0929432
  44.7884750  63.1948471  26.8333650   8.5876471  14.3116105  57.5049448
   9.3992072  13.8447928  57.7041483   8.0486345  14.1998172  58.2880116
  28.4567547  22.5685120   2.6173487  29.1818047  22.4779344   1.9990215
  27.7682257  22.0057154   2.2631994  84.1828632  41.6626644   1.3334011
  84.6650124  41.1161041   0.7128903  83.5301018  42.1139431   0.7981622
   6.0820055  63.1329918  14.5065343   6.0394889  63.3417702  15.4397190
   5.7381135  62.2418499  14.4445658  79.0675926  34.0456676  36.6486859
  79.1864157  34.3075490  35.7357073  79.1832399  34.8547482  37.1469283
  10.1306784   0.9071971  56.9256687   9.3109554   0.4230212  56.8263721
  10.4411614   0.6755313  57.8009748  30.6458092  61.9058990  50.5814362
  31.2950969  61.2027264  50.5670309  30.1068950  61.7185736  51.3500118
  27.9823899  56.3203001   1.8970457  28.8889050  56.0898161   2.1003607
  27.9993248  56.5655613   0.9719554  30.4090071  14.7901416   1.3427357
  29.7900319  15.4883122   1.5564209  30.9404945  14.6912014   2.1326505
  72.7797747  56.9290113  15.0326574  72.9343510  57.0227718  14.0926862
  72.6039696  57.8195286  15.3364730   2.6721269  19.6353340  12.2247005
   1.8576708  19.7315621  12.7182925   2.4914679  18.9339626  11.5988636
  42.3866653  57.8364372  11.6275930  43.1666708  57.8105974  12.1818066
  42.7082014  58.1297588  10.7750642  30.4616809  23.0766034   4.2607117
  30.5961084  23.8074803   3.6574027  29.5743060  22.7709246   4.0726835
  29.9945521  33.8314462  12.9460549  30.2599835  34.5873404  12.4222207
  29.0665150  33.7135649  12.7433670  13.9180803  58.5669708   7.8571069
  13.5783732  57.6759672   7.9404235  14.6927524  58.4770250   7.3021084
  78.6907673  10.8783281  64.3825865  79.5012236  10.3814495  64.2707539
  78.9253855  11.7756629  64.1459990  11.7316270  34.1563106  12.2407031
  11.8833148  34.7939396  12.9383087  11.6539609  33.3176494  12.6955092
  53.5355473  55.2469158  42.6188469  53.9682865  54.4119787  42.4403858
  52.8790140  55.3290653  41.9271469  60.5941010  67.9678154  59.6990585
  60.3323078  67.4514723  58.9367676  61.5208769  68.1575298  59.5530319
  71.8975830  38.5088062  12.8887069  71.0153198  38.4688616  13.2578254
  72.4472857  38.0631661  13.5332716  46.6789484  30.8076191   1.3288377
  45.9422636  30.2825832   1.6416731  46.3391113  31.2616467   0.5577324
  37.8014493  51.6754627   4.6681792  37.1457505  51.0052347   4.4756070
  38.0984664  51.9739342   3.8085699  66.1895609  37.0956254   4.6157417
  65.4654598  37.1584725   5.2386028  66.7518616  36.4071727   4.9708280
  27.0891237  39.0005255   1.2670307  27.2984958  38.9952159   2.2010365
  26.1468029  38.8361335   1.2318725  65.4785109  69.7097254  49.0929604
  66.2951088  69.2707348  48.8548708  65.6437922  70.0659943  49.9658775
  38.5195827  15.6920934  50.5646133  38.9458203  14.9570334  50.1238871
  37.6207972  15.3962028  50.7090616  12.7134538  17.7525830  64.2721033
  13.5168040  17.9060555  64.7694016  12.1675181  18.5167372  64.4571829
  31.3716245  20.9514976  18.3684063  30.5276608  20.5020165  18.3245385
  31.3563228  21.5622044  17.6314962  16.2303627  77.0108843  56.8123960
  15.5439651  77.4487209  56.3090181  15.8367348  76.1814308  57.0831299
   1.7666718  37.1406603  32.1577549   1.8062589  36.3556790  31.6114330
   1.9919415  36.8330336  33.0357361  58.4247351  56.0078430  63.9021301
  59.2674065  56.0306120  64.3555832  57.8445768  55.5344868  64.4984388
  71.0738659   6.9512475  58.9245510  71.4628744   6.4873379  59.6659660
  71.8195057   7.3404914  58.4676647  80.1551056   5.7588118   8.7457985
  80.1294041   6.6318965   8.3542699  80.9809494   5.3835148   8.4402472
   4.6129704  30.7129884   7.7843016   4.5105556  31.0441017   6.8920535
   3.7183660  30.5513597   8.0839545   4.5109865  10.0761414  33.0633759
   4.0317434   9.4128799  33.5600090   5.4328787   9.8847878  33.2358027
   5.3445768  66.9388485  44.1935492   5.6098604  67.8034258  43.8799286
   4.8844847  66.5458107  43.4518814  42.3382187  78.8013649  57.7035284
  41.3868856  78.7253284  57.6299667  42.6632929  78.5978699  56.8265152
   1.7611367  73.5370493  31.9612646   1.6338633  73.0076742  32.7485347
   2.5203967  73.1454754  31.5294957  10.1036918  28.6636233   8.7073475
  10.8964634  28.5332608   8.1870103   9.9762207  27.8311563   9.1622984
   8.8179111   9.0674865  14.0585029   9.4204742   8.7160426  13.4030366
   9.2176074   9.8927093  14.3332446  55.9159327  78.1724262  36.5922332
  55.2100801  77.6776791  37.0084381  55.9809732  77.8024006  35.7118464
  44.9526596  73.2292366  51.7178917  45.8792448  73.2838202  51.9517517
  44.8970509  72.4723625  51.1345577  19.9110746  58.3509731  30.7528186
  20.7827497  58.0553865  31.0155749  19.3778241  57.5560665  30.7550955
  36.9724131  24.9554682  22.6517558  37.1810937  24.1066933  23.0419683
  36.9382453  24.7844791  21.7105722  39.6437979  79.3226242  56.9492102
  38.9751482  79.8743916  57.3550367  39.4027448  78.4307814  57.1996880
  14.4071043  57.8814936  14.1975200  15.2788270  57.5458908  14.4065702
  14.3814063  58.7491560  14.6009254  33.9927125  59.1179991  58.3848095
  34.0219831  58.2131243  58.0740452  33.0614543  59.3392563  58.3905840
  15.8359087  30.9428930  58.3363104  15.5347562  31.8508315  58.3707619
  15.1318467  30.4412627  58.7472773  13.9864564  14.8029518  60.9392977
  14.3563831  15.5244100  61.4481068  14.0537989  14.0429807  61.5173483
  28.1705403  61.9411469  57.8943586  28.2450676  62.6996899  58.4734011
  29.0027404  61.9177294  57.4219990  65.7865763   4.0348259  53.6127806
  66.2130499   4.6732616  54.1844034  66.5090990   3.5472539  53.2172203
  33.0538678  76.7605400  49.3727970  33.5953546  76.5540314  48.6109734
  32.7043557  75.9151220  49.6544743   3.5109085  70.2976704  68.1043577
   4.4238639  70.3258371  68.3906269   3.4452903  69.4917679  67.5920630
  67.9420948  68.1046343  17.3560560  68.2056284  67.3249578  17.8448141
  67.7764559  67.7863932  16.4686334  12.5539196   8.3336890  17.2312355
  12.8806734   7.4352956  17.1827209  11.6959393   8.2543111  17.6481307
  24.3434238  44.1797590  29.2625856  23.7342787  43.8615274  28.5963249
  24.9366903  43.4443188  29.4155478  82.7377701  74.1566658  67.1440649
  82.6163769  74.3580866  66.2162018  81.9137478  74.4172525  67.5555277
  42.5173426  69.6834087  42.3141623  42.0378637  68.8554525  42.2854614
  43.4333563  69.4340754  42.1917582  33.0811620  62.8166342  57.0296955
  32.2549748  62.3713636  57.2177935  32.8766537  63.4034061  56.3016129
  37.7989984  63.6056089  50.1345110  37.0986700  63.2958984  49.5601797
  38.4765625  62.9325342  50.0704384  82.7021885  69.0278482  66.3466978
  82.7819729  68.3086872  65.7200623  81.8246269  68.9278078  66.7156363
  79.1382408  62.2336912   5.9269255  79.8935699  61.7426109   5.6035793
  78.4309673  61.5896606   5.9618884  32.2304130  13.7299836  18.8310313
  31.3641286  14.0817893  19.0360117  32.1302652  12.7818859  18.9165461
  61.8704271  59.1111994  43.4748077  61.9664812  59.2307568  42.5299740
  62.7530766  58.9025402  43.7807846  24.4656682  63.5178757  15.4701602
  25.2290225  63.6366749  16.0353243  23.8681555  62.9759598  15.9854674
  20.5407739  71.1637306  52.9942703  21.3455510  70.8397961  53.3987904
  20.5478597  70.7891273  52.1134472  10.9400737  27.8156900   0.9070964
  11.0237408  27.1175766   1.5566117  10.2036202  28.3433151   1.2160935
  36.8697882  78.6429119  68.8865042  36.4039350  78.0664158  68.2808113
  37.6418638  78.9293432  68.3985615   8.6281914  34.8218894  56.5047979
   9.3146431  34.9758744  55.8557177   8.1816119  35.6646585  56.5856504
  25.5836320  61.9558048  68.3799410  26.2696433  61.7415047  69.0121555
  25.9053349  61.6052008  67.5493908  74.9924231  22.4771786  38.3713675
  74.3555832  21.7714000  38.2593799  75.8373451  22.0699239  38.1803727
  39.6268034  61.8788576  47.8301048  39.4303775  61.5556335  48.7094069
  40.4815435  61.5017414  47.6216888   2.2987573  41.4533806  49.4358110
   1.8786819  41.3710213  48.5796642   2.1065471  42.3495817  49.7116899
  23.2050228  51.0110855  26.7214417  23.5230947  51.5336561  27.4576378
  22.2541380  51.1183596  26.7447138  63.5655308  66.0735130  65.0396156
  64.1545725  65.9392548  64.2971611  64.1480494  66.2450409  65.7795382
  23.8887358  26.9352841  10.1200843  24.7623515  26.5632963   9.9990499
  24.0304017  27.7049780  10.6712055  36.7348742   7.4964964   9.2377442
  35.8660412   7.8745681   9.1020030  37.0750070   7.9488981  10.0096738
  53.1637812  66.2287664  56.7787647  52.4018145  66.6732502  57.1503353
  52.8172207  65.7463503  56.0281610  25.5964327  45.8433199   2.4408022
  24.7223473  45.7842302   2.0551659  25.8292866  46.7687225   2.3657219
   2.3554952   6.8894839  63.2970095   2.5353926   5.9687304  63.4869576
   2.2074158   7.2866023  64.1552639  11.6325712  22.8742456  33.0450940
  12.3180985  22.5436854  32.4645638  11.2978065  22.0948005  33.4885216
  68.9431047  77.1119404  29.2079902  69.1572714  77.9357004  28.7700629
  69.7646761  76.6207647  29.2093730  16.8378627  31.2774467  13.8093460
  16.5217161  31.4887476  12.9309189  16.0544229  31.3039303  14.3586659
  67.9497147  17.6489639  51.8777084  68.1799030  17.4679422  52.7890158
  68.5010576  18.3927071  51.6346073   0.5767709  16.4875317  64.3825150
  -0.3683694  16.4109170  64.2518568   0.6799306  17.2603643  64.9377823
  44.8143244  63.2348537  51.4615250  44.5086098  64.1252995  51.2886572
  44.5156860  62.7282381  50.7062817  73.3370829  10.8776248   7.2884220
  72.9098415  10.5380452   8.0747956  72.9454756  10.3812325   6.5697622
  49.6220398  71.6232586  65.3360081  48.9907837  71.0803652  64.8637676
  49.6648836  72.4351692  64.8308372  67.3353624  77.6851511  35.2219605
  67.7100515  77.5848961  36.0970545  68.0466843  78.0529165  34.6975470
   0.1136493  67.1507788   4.2592931   0.5589629  67.9862642   4.4003290
   0.4843132  66.8167019   3.4424511  45.2446270  76.5475988  56.1070633
  46.0211754  77.0968390  55.9996605  45.2369308  76.3230133  57.0375109
  59.7394371  77.2150373  65.2927065  58.8083935  77.4078178  65.4032564
  60.1351213  77.4565363  66.1301708  35.6125736  28.9486408  34.9262381
  35.4491997  28.9277244  33.9833164  34.7404122  28.9428639  35.3206182
   6.6679639  60.0631952  67.6529837   5.9854335  59.4097376  67.5000906
   7.2035980  60.0401115  66.8600178  82.9309559  16.8298304   4.1780108
  82.1340466  17.1397591   3.7477627  83.6383724  17.0900333   3.5880220
   8.4232897   0.5163298  62.5555706   7.9354095  -0.0518015  63.1517506
   8.7803048   1.2035887  63.1181097  54.0997601  74.5225286  48.3861971
  53.6365652  74.7091484  49.2028093  53.4451342  74.6627998  47.7020788
  42.2900057  74.4811773  67.9381514  42.8727007  75.1268148  68.3379698
  41.5755558  74.3812799  68.5672903  14.3731189  71.6452503  68.3882523
  13.9609635  70.9605742  67.8613949  14.5954812  71.2120867  69.2123652
   8.7492275  53.1171751  33.0188632   9.6185714  53.2962704  33.3771896
   8.8599110  52.3122454  32.5128365  66.9288921  64.5721388  25.9905577
  65.9864330  64.4915056  26.1371899  67.3160791  64.4711637  26.8601131
  57.1533632  68.2480431  13.7972069  57.4726629  69.0744162  13.4347248
  56.2033749  68.2895756  13.6875486  62.1083307  56.6242218  52.8579807
  61.9442463  55.8682537  52.2942257  62.2057343  57.3584890  52.2516823
  24.2952228  58.3258200  65.8771706  24.7307062  59.1697598  65.7573414
  24.8365760  57.7054977  65.3889370  65.9819841  65.0412035  41.2336874
  65.6979752  64.7511435  42.1005392  66.4674377  65.8494854  41.3987255
  69.9801922  69.4980907   1.4829890  69.3713570  68.8749313   1.8795052
  70.7880068  69.3970919   1.9864446  65.3964901  35.1667404   9.6378094
  64.9470520  34.7677422  10.3828192  66.2940741  34.8393965   9.6962482
  11.2903547  26.3202977  20.0035620  11.1704755  27.1741700  19.5879126
  11.9097161  26.4848661  20.7145762  14.6982956  33.2239985  11.1688495
  15.5400229  33.2299781  11.6245818  14.0944815  33.6526513  11.7753959
   3.8320500  60.2122402  35.7437801   4.4270030  60.3405571  36.4825630
   4.4054225  59.9894285  35.0104117  68.4735394  77.7807093  31.9058633
  68.4350443  77.3683262  31.0429072  68.6254549  78.7076759  31.7217851
  50.3212070  59.9156952  53.6165524  50.7862282  59.1764069  53.2248354
  50.9886551  60.3761148  54.1252327  36.4374614  70.5245733  36.7929816
  37.3677373  70.7008076  36.9335532  36.0388541  70.6397438  37.6555824
  45.5636215  59.1479254  55.2736998  45.6950998  59.4336176  54.3696404
  46.4476252  59.0806293  55.6345844  66.6098261  56.1934471  45.1343441
  66.5364838  56.2856913  44.1844273  67.3884487  56.7002726  45.3647947
  39.0670037  40.8932590  10.4595590  38.2980537  41.4579344  10.3815103
  38.7562943  40.0275278  10.1946127  22.3753214  40.2419376  10.5716562
  22.4902415  41.0033464  10.0030780  23.2367134  39.8249531  10.5905771
  12.6770508  69.8694134   9.2833757  13.2461226  70.0210571  10.0379574
  12.7274001  68.9257240   9.1312283  23.6501169  59.9598551  62.0899534
  23.5507965  60.3493738  61.2212515  22.7597523  59.7228384  62.3493862
  12.4097824  33.3627200  23.6103153  12.4085987  33.0833864  22.6947808
  12.5210547  34.3126082  23.5707688   4.7148445  30.7252622  15.2218413
   5.0976735  31.5564108  14.9410105   4.0151539  30.9755635  15.8251774
  56.9863701  11.6643465  36.6505814  56.3316345  12.3203897  36.8896699
  57.4198961  12.0287752  35.8789110  31.0246992  34.2128611  15.3426254
  30.2659583  34.3185425  15.9165347  30.6508374  34.1150093  14.4669056
  42.6586008  36.4749718  54.0652847  41.8898344  36.8126798  54.5248318
  42.7725267  35.5886436  54.4083261  23.6286354  23.7468982  10.5531740
  24.4332767  23.2815385  10.3246474  23.4214783  24.2637110   9.7745717
   1.7353898  17.2662199  53.2780981   1.6804220  16.3283622  53.4614944
   2.0355172  17.6538455  54.1002321  45.9101582   6.2863344   7.7868384
  45.4175711   7.0135319   8.1673348  46.6304636   6.1383593   8.3996117
  57.0688868  43.7497425   1.0887029  57.1710062  43.2495880   1.8984240
  57.0358658  44.6629047   1.3737828  25.3055620  22.8111482   3.9320925
  26.2251139  22.5609016   4.0217271  24.8482728  22.2806263   4.5845228
  13.8551533  75.3493023  60.0776196  13.2702243  75.3054333  59.3212032
  13.9684403  76.2860107  60.2387762  37.3739958  27.2861648   5.4301113
  37.7246785  27.8312302   4.7257268  38.1226683  27.1264911   6.0047626
  41.5518570  57.7250242   7.2510421  41.6403246  56.7901897   7.4367678
  42.2006083  57.8960228   6.5683180  45.1100159  62.0232391  43.5165501
  46.0047960  61.7234850  43.3561039  45.1783752  62.5751114  44.2956495
  72.5166178  38.7138033  45.0622654  71.6963816  38.7396073  44.5695448
  72.3021984  38.2287169  45.8591032   0.4291729  18.4387410  36.1151838
   0.4391595  18.4212840  35.1581955   0.2948089  17.5259161  36.3699985
  65.7915163  76.9110346  32.2881603  65.7866573  75.9719181  32.4732637
  66.6932774  77.1838474  32.4573612   2.4755974  14.4419491  60.0812054
   1.5963654  14.0635955  60.0868273   2.9047987  14.0618885  60.8477354
  33.6478043  30.9575105   1.5169500  32.8015685  31.4044428   1.5361381
  33.4538674  30.0928783   1.1549677  24.1029882  71.1135101  35.7750225
  24.0699887  70.4454279  35.0903273  24.4304585  71.8956566  35.3309083
  24.6964025  47.2127533   5.4124171  24.6216321  47.1005964   4.4647560
  25.5003119  47.7186060   5.5310434  27.6881909  40.3458786   6.8769652
  27.1365952  41.1024809   6.6781616  28.4007287  40.3948832   6.2396884
  40.6758070  67.4395752  41.9713020  40.3228664  66.6820145  41.5046453
  41.6238976  67.3690224  41.8600607  68.8030100  55.2416515  50.3439856
  68.1419611  55.2837133  51.0349894  69.2820168  54.4317818  50.5197477
  28.1238723  68.9321232  67.4948883  27.5350142  69.6820593  67.5789881
  28.7763238  69.0615416  68.1832123  57.7173519  77.9310226  51.3535738
  57.7082348  78.8696957  51.1663675  57.0086908  77.5732374  50.8187675
  11.9181132  24.9496222  50.7250690  12.4543190  25.6471729  51.1020803
  12.5405848  24.3994403  50.2496099  66.3272524   1.0386795  58.9126730
  65.5636120   0.4886956  59.0876007  66.1355352   1.8636012  59.3587494
  73.5430765  17.4731493  51.5858650  73.2990074  18.3686423  51.3518715
  74.2354298  17.2438502  50.9659433  60.6085539  38.0478978   0.7027476
  61.4698982  37.6382709   0.6219699  60.0652170  37.5917983   0.0601073
  26.6327643  48.0267525  26.2856197  27.3017645  47.9186583  26.9616270
  26.3947058  47.1329880  26.0391545  81.1958122   4.2068666  33.9750814
  81.8676567   3.5391009  34.1126990  80.7298946   4.2534834  34.8099351
  69.0828657  70.5375481  46.3716888  68.2508612  70.4378891  45.9090137
  68.9606237  70.0571060  47.1905088   3.9886385  17.5945365  58.6897326
   4.2842430  17.0360374  57.9707575   3.0515894  17.4137378  58.7637854
  64.7011185  66.5739107  46.0740376  64.1395473  66.7741299  46.8228960
  65.0216627  65.6883383  46.2450409  44.9439526  21.8980718   6.6979629
  44.6280909  22.4635601   5.9932029  45.0562763  22.4861646   7.4447984
  66.9325972   2.6685679  49.9690342  67.3965406   2.7457199  49.1353464
  66.8688202   1.7257082  50.1212835  38.4716463   6.1802828  58.2851791
  39.3666196   6.3545954  57.9938555  38.0695128   5.7096070  57.5551176
  16.0097265  76.3146496  37.5815463  15.6369174  77.0283890  37.0640326
  16.2293184  76.7173147  38.4217072  13.2829475  68.9741468  29.8742890
  12.4093735  68.8717651  29.4966435  13.7948108  68.2622528  29.4903183
  76.2014675  30.4581141  41.2604094  76.6598320  30.4038787  40.4218435
  76.3659620  31.3501740  41.5660238  18.9271069  11.2125301  25.2247524
  18.9614892  11.9996345  25.7683659  18.4400547  11.4806724  24.4455767
  76.0326719  44.6614361   5.7609421  76.9413710  44.5555639   5.4793477
  76.0169601  44.3169975   6.6538846  26.5661836  21.6205859   0.9554573
  25.8147001  21.0780621   1.1945602  26.4908147  21.7297792   0.0074971
  34.6156240   1.2485635  58.4503698  34.1326928   0.8377711  59.1674900
  35.5015373   0.8936341  58.5239601   8.6454433  70.7053518  16.5687072
   8.5451168  70.9748888  17.4816787   9.4603407  70.2033615  16.5553439
  20.7090878  22.0672011  16.2767422  20.1065159  21.3825107  15.9863329
  20.3748560  22.8677583  15.8722317   8.3103329  14.9532831  24.4551063
   8.9704221  14.2782056  24.6125364   8.1076151  15.2975237  25.3249526
  69.1932297  62.5156546  52.8733397  68.9059401  61.8673086  53.5162592
  69.2283010  63.3380985  53.3618021  34.4246697   0.1999061  66.9630384
  33.6552620  -0.2474432  67.3153448  34.3314648   0.1247751  66.0133505
   9.7730237   6.5652293  63.9383030   9.5875823   6.7320371  63.0141735
  10.2792668   5.7528555  63.9381647  56.5704870  66.0478067  47.8502750
  57.3856401  65.9598684  47.3562860  55.8897257  65.7592392  47.2423887
  58.0783081  58.3892679  61.2327862  58.0338812  59.0667439  60.5580378
  58.9786959  58.4308004  61.5549755  19.6406090  34.3244696  29.9859238
  19.8839724  34.0419102  30.8674955  19.3413281  33.5253048  29.5523381
  54.0094471  11.4046955   7.8372931  54.9557590  11.2895203   7.7509403
  53.8577271  12.3213160   7.6070291  25.9854865  10.3080201  22.2322202
  26.1631393   9.8127884  21.4325857  26.0522723   9.6610141  22.9344702
  22.2673583  57.0199823  31.7137885  21.8062901  56.3084459  31.2695360
  23.1776977  56.9278097  31.4326835  81.5254307  47.2165251  28.9509416
  82.2344971  46.6534996  28.6403704  81.7271519  47.3684740  29.8742247
  20.0252819  36.3034678  51.6887283  19.5890474  35.9815311  52.4775791
  20.8747625  35.8623171  51.6878271  63.5915613  77.9802132  52.6878929
  63.3959627  78.9045715  52.5344896  63.1971884  77.5252485  51.9437790
   9.6429431  10.5124331  32.6292682   9.9682415  10.2359819  33.4859991
   8.9651918  11.1586356  32.8275275  36.8702388  31.0556555  10.6463802
  36.5288806  31.3073683   9.7882736  37.4638128  31.7672753  10.8861685
  21.1953688  23.6313248  65.5609703  21.8088746  24.2362714  65.1439810
  21.3644457  22.7893996  65.1381159  15.7930994   6.5616626  67.5552320
  16.3499784   7.1166658  67.0092583  15.2128673   6.1204606  66.9348288
  45.6826258  45.1124144   0.3948027  45.0833416  45.7808971   0.0627963
  46.3573456  45.6059217   0.8611009  10.2960086  44.6816730  67.3897982
   9.8015285  43.9941263  67.8358936  11.0185993  44.8815489  67.9849005
  28.6877084  60.3855228  18.4448421  29.5684218  60.7514143  18.3630013
  28.3848667  60.2860165  17.5422812  63.4547091  76.6614532  46.4500904
  63.9547300  77.0819807  47.1496344  62.5422001  76.8722439  46.6478872
  16.6847956   9.5217127  27.6946497  16.6036618   9.5987493  26.7440104
  16.3244522   8.6582303  27.8965950  28.9339185  16.9679177  36.6390252
  29.3372011  17.0465028  35.7744908  29.6437025  16.6706276  37.2082829
  58.0957842  40.4055834   5.0816768  57.7910519  41.2838554   5.3097326
  59.0428829  40.4381514   5.2164966  57.1529055  46.4203596   2.7420074
  57.7066946  45.6620646   2.9278573  56.5883970  46.4989090   3.5110289
  34.9406743  22.1179223  45.3419495  35.2815390  21.2261224  45.2731371
  34.1109967  22.0217991  45.8095264  62.7788115   3.0631876  33.3152533
  61.8347263   2.9350343  33.4075141  62.9738331   2.7737927  32.4239326
  31.4803147  33.4934139  42.3317766  30.8486700  34.0632081  41.8929243
  32.3319697  33.7834883  42.0050192  11.4766097  38.2911348  61.3512468
  11.6611850  38.8062930  62.1365976  11.4664793  38.9326453  60.6408978
  34.1060567  14.2740917  39.8934102  34.1026807  15.0487542  39.3311667
  34.6860528  13.6569357  39.4473672  17.4712694  40.6619024  35.3403854
  16.8615127  39.9509311  35.1430321  17.6963711  41.0286474  34.4853640
  62.3211908  72.9597425  35.4368186  61.5176868  72.5670433  35.0956345
  62.6400661  73.5115767  34.7226548  80.1730251  15.2040040  43.3832693
  80.7749939  15.8413827  43.7674761  79.9126959  15.5933785  42.5484943
   8.4235471  22.2948146  26.8960500   8.8190877  21.4776325  26.5927529
   7.5686568  22.3210835  26.4662790  10.3899133  26.2242937  49.0868092
  10.9534025  25.7500505  49.6982050   9.4997680  26.0104132  49.3663263
  20.2323651  13.5722065   3.8470253  19.9460423  13.7813115   2.9579097
  19.9525607  14.3224943   4.3714383  38.7211704  13.9153290  60.9215593
  39.5127153  13.3778727  60.9503841  38.5544825  14.0463436  59.9881363
   7.7164876  26.3325882  46.6743517   8.1026256  25.4756308  46.8553257
   7.1382236  26.4968610  47.4192381  38.0981541  14.4712412  26.1062717
  39.0428233  14.5106423  26.2555265  37.7559137  15.2592599  26.5283251
  66.0047388  26.9632721   6.7583162  66.1933565  26.6104317   7.6278901
  66.8607569  27.2130227   6.4103341  -0.2451649  65.5561686  35.7776737
   0.4007931  65.0905418  36.3088632  -0.0883074  66.4813900  35.9663486
  77.5534821  57.6892614  43.4771490  77.7812815  58.3583117  44.1226816
  78.3052492  57.6617050  42.8852749  13.1225145  16.2776184  54.9051666
  12.7476275  15.8436036  55.6715393  14.0368569  15.9946680  54.8930454
  37.4134731  20.8521366  66.8372440  36.8935895  20.2488589  67.3682880
  36.8923092  20.9841537  66.0452890  23.4645224  66.0447693   4.9103844
  22.5763345  66.1068487   4.5589590  23.5731339  65.1181841   5.1245677
  46.9556427  60.8196306  28.7870574  46.3057280  60.1802921  29.0787625
  46.9648981  60.7338619  27.8337526  57.9080963  72.3015547  59.6048689
  57.5211716  71.6375160  59.0342808  57.3734426  72.2764492  60.3984356
  58.5456371  31.0645795   1.6491139  58.9570808  30.5025554   2.3056756
  59.0625906  30.9242368   0.8558348  42.7426052  35.5042553   1.1566391
  42.6067877  35.5851531   0.2125830  43.1676006  34.6535087   1.2654437
  59.8407316  77.1829796   3.2340094  60.0128365  78.1147528   3.3697191
  60.6037760  76.8664122   2.7505010  11.5767896  71.2566900  53.9882088
  11.0378301  71.7407560  53.3625603  12.3567867  71.7995691  54.1027498
  34.4379210  13.1955612  49.0415049  34.8214793  12.7208114  48.3041239
  33.8410830  12.5665605  49.4469357  48.8373470  16.4614487  26.0166430
  48.1912422  17.1669102  26.0498524  49.4796419  16.7551363  25.3705478
  69.1744423  70.3591585  18.9241695  70.0134420  70.2005577  19.3567836
  69.3330288  70.1394606  18.0061209  75.9473562  62.0416689   3.6303264
  75.1686716  61.5367126   3.8646531  75.6119967  62.9108334   3.4105197
  75.6079149  33.1915545  16.2861443  75.7099390  32.9023528  15.3794003
  76.4728975  33.0659866  16.6763616  47.6615286  78.9501715   6.5844893
  48.2177591  78.5002565   5.9485519  47.5497818  78.3180094   7.2945005
  21.0006523  39.2575169  15.6551921  20.0615358  39.4406414  15.6276631
  21.2285447  39.0384626  14.7516918  13.9368117  11.2352264  55.1406050
  13.3891523  11.8995726  54.7223377  14.4275093  11.7148352  55.8080053
  14.6005118  21.5090966  32.7892804  14.9108827  21.5694571  31.8858099
  15.3667545  21.7251873  33.3207011  20.0258565  18.3370042  48.7436438
  20.2109480  18.5664952  47.8329802  19.1553342  17.9397810  48.7183571
  46.0129690  79.6935415  18.4707928  46.6753483  80.0207996  19.0793908
  45.7449245  78.8514662  18.8386190  67.2036648  57.0967674  10.5528915
  66.7948914  57.0574379  11.4175248  67.7570820  56.3167429  10.5138958
  57.5319433   7.1096832  47.1652269  56.6908979   6.9390494  47.5892067
  57.9334927   6.2456560  47.0733023  38.8783789  61.3468170  17.3448670
  37.9366922  61.4921188  17.4362218  38.9875913  61.0434246  16.4436126
  44.4675350   9.3790203  38.9841533  44.2607260   9.3239713  38.0511832
  45.1334047  10.0642347  39.0418530  30.3935456  12.4991167  54.3915415
  29.8767066  11.7532504  54.0869284  30.3351569  12.4571335  55.3460360
  30.9703064  25.8990550  50.2890921  31.0374975  25.0754809  49.8059320
  31.8535376  26.2668324  50.2595186  53.2118893  10.2648234  64.0785933
  52.4189711  10.7936049  64.1674852  52.9100132   9.4439828  63.6895895
  19.7710931  26.8818331  52.8266382  19.3578601  26.1160231  52.4278831
  19.1479933  27.5935841  52.6803827  56.8779898  60.1565886   0.7848135
  56.5877914  61.0572863   0.9289180  57.4240685  60.2035475   0.0000686
  14.2358148  17.3222291  61.9063044  15.0596774  17.5747764  62.3230839
  13.5602248  17.5908756  62.5289154  28.3983159  27.1501303   5.6485641
  28.0550289  26.5643668   4.9738306  27.6898909  27.7740002   5.8071679
  46.7302465  14.2683208  58.6595440  46.0661888  14.4215548  57.9874039
  46.4310455  14.7780788  59.4124460  56.1141491  34.1195726  66.9575453
  56.0966682  34.8649740  67.5577974  55.1921988  33.9058542  66.8141460
  30.3279948  54.5726728   1.7998914  30.7440519  55.3073311   1.3488925
  30.9400749  53.8452959   1.6880238  61.8549347  17.5649953  42.1152782
  62.0152807  18.5071874  42.1681643  62.6986027  17.1661365  42.3282862
  53.5587597  44.3585730  10.8578038  53.2135439  43.8607693  11.5989220
  53.4373760  43.7811613  10.1040816   9.2478895  16.5212142  30.1703286
   9.4503224  16.9665730  29.3475866   8.2915163  16.5130365  30.2092457
  33.2072854   6.4874548  48.8061714  33.7085557   7.2676075  48.5688496
  32.2968984   6.7249644  48.6300564  44.5028162  61.8656445   1.7902495
  44.2139816  61.5357971   0.9393634  44.9518442  61.1234760   2.1949641
  59.9210835  65.4277992  12.5594640  59.2264414  64.7741461  12.4792218
  59.5487404  66.2214184  12.1750581   3.0013913  77.6755857  15.3029919
   3.5783499  78.3487177  14.9420965   3.2235536  76.8828106  14.8147500
  83.1529140  18.3219337  21.9840264  82.4376202  18.7232971  21.4905739
  83.9128017  18.8724172  21.7948771  74.1310835  36.5532327  53.9913416
  73.9196110  36.8628788  53.1106424  74.9126720  36.0132217  53.8741207
  64.4082308  52.9423380  50.5914068  64.9672890  52.3628187  51.1089468
  63.9965343  52.3658752  49.9476480  61.1598730  56.9020653  17.0687115
  60.6497860  57.0241928  16.2680078  60.6433773  57.3328924  17.7497804
  61.9308043  16.8843222  34.7061372  61.2192249  17.3966646  35.0900507
  61.5255880  16.4254248  33.9703083  22.0025373  44.6948719   4.6790662
  21.6984797  45.2248621   3.9422530  21.6226530  45.1162004   5.4500419
  83.5325718   9.2343229  42.1697760  83.9894962   9.3201649  43.0064869
  82.7728844   8.6863554  42.3668528  55.5951166  21.7120576  42.2595787
  55.2332020  21.0665274  41.6525030  56.4224911  21.9796228  41.8594646
  32.5400805  18.1586814  21.9509244  32.6684904  18.7427676  21.2035370
  33.2125807  17.4854815  21.8471074  26.9734597  59.0663528   7.3498285
  26.5042686  58.3970070   7.8478968  27.8969812  58.8346910   7.4481845
   6.8151176  75.0755644  30.2345848   5.8863467  75.2780962  30.1223493
   6.9323552  74.2354488  29.7910833  53.9200497  13.0134332  18.3525455
  54.7469091  12.8383636  18.8018680  54.1630793  13.1067073  17.4314213
  21.8637705  19.0988004  53.5148478  21.0215521  19.0361583  53.9653778
  22.5143242  19.0495038  54.2152596  37.4585342  24.2845869  29.8791957
  36.6164637  23.9147472  30.1444554  37.6078653  23.9345384  29.0009022
  44.5556021  23.7239909  61.2349129  45.3116369  23.1906962  60.9894753
  43.9486837  23.6314583  60.5005312  16.0054278  78.7838125  49.5358372
  15.5718505  79.5194912  49.9682951  15.3767300  78.4889174  48.8770437
  21.3506150  70.7895136  45.4406786  20.3972673  70.7210255  45.4923582
  21.6616201  70.4370022  46.2744904   4.4115326  70.8902359  10.1276863
   5.1835716  71.2740374   9.7118932   3.6817983  71.4283228   9.8207951
   9.4232696  56.3670158  38.5627151   9.3109363  56.5488911  39.4957399
   9.7277492  57.1954012  38.1921768  77.3672390  44.2481327  66.6072845
  77.4854994  43.8233471  67.4568748  77.8114271  45.0912571  66.6971588
  82.8736401  71.4642239  25.2510166  82.1132278  71.8304682  24.7994924
  83.1231785  70.7056665  24.7232366  44.9921513  27.1281672  24.1994286
  44.4067097  27.1548104  23.4426069  45.8466911  26.9002533  23.8332987
   1.8532701  21.2236261  47.2299767   1.2610412  20.6774879  46.7130327
   1.6537592  20.9994173  48.1389093  56.8552208   9.5194757  21.6478467
  57.2912884  10.1871729  22.1772432  57.1167040   9.7182077  20.7487535
  16.9377184  10.5729294  37.1567774  17.8612602  10.6177735  37.4043465
  16.5794492  11.4226747  37.4133086   7.8740072  35.7761216  43.2174206
   7.7235699  36.6897893  43.4599352   8.7959009  35.7448530  42.9617500
  18.9101446  61.9706678  47.3066664  19.1407204  61.8748045  48.2307243
  18.3019137  61.2515926  47.1357346  26.5996075  63.6176682  20.2024698
  26.0819745  62.8275299  20.3572822  26.8711042  63.9010191  21.0755301
  62.7497625  67.3921776  38.5943985  63.4553480  67.4022722  37.9476547
  62.9228544  66.6149426  39.1255975  62.3216152  55.3678179  26.5511036
  62.1642780  54.4256306  26.6124463  62.3521614  55.5448341  25.6109095
  73.2507801  11.8187678  49.6795368  73.6519957  12.3779809  49.0143013
  72.3227549  11.7968512  49.4460344  31.9121122  16.5593517  44.7369099
  32.7889252  16.2104416  44.8971987  31.5659976  16.0200024  44.0258980
   2.6669210  53.6374187   5.6819558   3.2463747  53.5930634   4.9213651
   2.6585177  52.7453852   6.0289967  63.9239597  44.1866922   8.8566154
  63.7814522  44.7719622   9.6005130  64.3620539  44.7320700   8.2032686
  38.2166505  69.0704489   3.7620169  37.9395199  69.1305304   4.6762496
  38.3430886  69.9793863   3.4898439  20.5847049  31.5549970  53.0008841
  20.3066707  31.4856744  52.0875788  20.5384803  30.6588221  53.3340025
  41.5212917  31.4166045  67.9724121  41.5960836  30.8002114  68.7009048
  41.5230513  32.2791815  68.3873701  36.9904995  25.1911235  52.9931831
  36.1225796  24.8763275  52.7404928  37.5917864  24.5187902  52.6727819
  64.1187477  61.1537838  18.4265721  65.0460005  60.9389019  18.5278714
  63.6983633  60.7692575  19.1957581  17.0125103  18.2386088  51.8303871
  16.1218953  18.5785186  51.7437983  17.3301959  18.1672144  50.9302711
  29.2579865  33.0678391  50.6436443  28.4452319  33.5319567  50.4430056
  29.7870255  33.7067819  51.1212444  63.6440659  66.0756588  53.1816959
  62.9679585  65.7053471  53.7491274  63.7935162  65.4033279  52.5169659
  80.1629829  35.1680040   1.2384930  80.8469200  35.8204746   1.0877199
  79.5495319  35.5974483   1.8347231  50.0690699  23.7458825  20.3030872
  50.0715351  22.8748965  19.9060881  49.3414259  23.7237573  20.9245992
  68.4074497  73.7597466  27.5064421  68.0042601  72.8958464  27.5921035
  69.2920494  73.6467600  27.8542256  30.4329062  13.2473052  46.7686939
  31.3388753  13.5552728  46.7933607  30.1395226  13.2930565  47.6786757
  24.9440742  66.6411352  59.0114164  24.5685792  66.1584234  59.7477770
  24.9694300  66.0054111  58.2962608  35.1547074  50.9691095   6.0553873
  34.6651244  51.7906141   6.0962081  34.4938517  50.2895784   6.1885774
  17.5426674  27.8929305  66.2103844  18.2385755  27.2997189  66.4933062
  16.7326522  27.4483538  66.4603090  18.4249377  28.4616804  40.8081770
  17.8071690  28.9917254  40.3045464  19.2486548  28.9472437  40.7640266
  50.6285000  28.9071369  54.5772123  51.4928341  29.2195606  54.3097258
  50.7989359  28.3553886  55.3406000   7.0205230  18.5605609  13.5586715
   7.4203128  17.7543950  13.8850093   6.7860740  18.3617270  12.6521778
  32.0313740  29.9011040  16.6192472  31.8662357  30.0683117  15.6913447
  32.8812623  29.4610500  16.6357708  41.4239502  60.7455015  27.1799731
  41.3002539  61.2210369  26.3585138  40.6852388  61.0145092  27.7260256
  36.2699175  21.2604165  64.3978167  36.6795921  22.0819259  64.1266632
  35.4370141  21.2411380  63.9265060  45.9835196  50.1737070  25.6549287
  46.3806057  49.3900728  26.0350204  45.3198242  49.8377705  25.0525236
  45.8265781  38.3337641  51.6275978  45.5639839  38.2828140  52.5466633
  45.0054312  38.2692742  51.1399555  60.7080460  74.8768759   2.1609418
  59.9250937  75.1365376   1.6753528  61.0074997  74.0796375   1.7239332
  56.0192537  71.0318041  11.5259492  55.4945898  71.6852188  11.0633373
  55.4897499  70.7948208  12.2873282  51.1720419  59.1242647  11.6192889
  50.5423594  59.8265505  11.4564264  51.1959124  59.0402699  12.5724983
  34.1328216  27.9163289  46.1538553  34.2799616  27.0368242  45.8059311
  33.4368730  27.8043914  46.8014336   9.9013567  39.6041203  45.8051252
   9.4165105  39.8602223  46.5897083  10.7419264  40.0549698  45.8851957
  68.9745092  66.4181519  48.4511328  69.0148497  65.5045080  48.7337208
  69.8901606  66.6786575  48.3513689  73.5448885  48.3242369  61.4176655
  73.1589127  47.6794672  60.8247662  74.0912437  48.8714886  60.8535337
  13.6792731   7.0846558  21.3096809  13.8428032   7.5490814  20.4888272
  12.8705537   6.5974152  21.1521888  40.5843925  24.6451974  61.6439819
  41.2807083  25.2166963  61.9676590  41.0207224  24.0665960  61.0186291
  13.2858944  12.7234948  59.1245508  13.6097217  13.3900881  59.7303724
  14.0015221  12.5983560  58.5012913  30.4208946  34.4181418  62.1890020
  29.8437858  35.1447630  62.4239492  30.0558567  33.6633658  62.6508379
  47.9666138  16.4614761  29.4209051  47.6770973  15.5500364  29.4620156
  48.6458111  16.4668477  28.7464452  42.8553486  17.4898732  62.6960945
  42.7335787  16.7004466  62.1686411  42.3510695  17.3256600  63.4929419
  56.6075373  65.4848766  53.6654806  57.0798874  64.8075151  54.1495228
  55.9814215  65.8382845  54.2973900  73.0149698  69.5154333  27.3187423
  72.4968147  69.2849302  26.5476274  73.8230085  69.8849010  26.9626474
  45.6006432  14.6869385  49.2680311  46.2916279  14.3120348  49.8141241
  45.2129078  15.3737926  49.8103619   9.5262474   9.3470955  62.4707603
   9.2731130   8.6305618  61.8887472   9.2236376  10.1373518  62.0233727
  62.3713732  53.2053900   6.3678575  61.6076565  53.5923815   6.7958838
  62.8029966  52.7015924   7.0578718  61.7751980  12.5406456  67.9375315
  61.7011929  11.8130600  67.3199749  62.0387840  13.2864404  67.3985100
  55.0203896  25.2939844  15.1336646  55.5967712  24.5326447  15.1998365
  54.3354845  25.0234461  14.5221543  30.9642434  30.4709148   9.8786151
  30.3167677  30.1554060  10.5090618  31.1744022  29.7033763   9.3466848
   8.6721694  19.4690847  49.4356585   8.1227267  18.8085353  49.0137386
   9.3174773  19.7050714  48.7692356  37.2836876  72.4962282  57.3783207
  38.2000685  72.7439833  57.5011826  37.0486617  72.8628778  56.5259314
  63.3826733  49.8586082  15.1885080  62.6466990  50.4107094  15.4526269
  63.1729221  49.5919323  14.2934549  13.7092161  71.9530964  51.0244274
  14.1734266  71.1271191  51.1604786  13.7943292  72.4158001  51.8580294
  12.4810255  10.4710412  50.9282160  12.4505270  11.3998818  50.6989574
  12.1697080  10.0202596  50.1432896  47.9054737  55.7732058  19.3942356
  47.1322966  55.2341557  19.2273247  47.6066685  56.4334822  20.0195217
  53.6686802  32.9556131  67.3084211  53.0567789  32.9164267  66.5733862
  53.4299994  33.7557983  67.7763605  79.0910482  72.3258638  57.9686356
  78.5233307  71.5917873  58.2032967  78.4920025  72.9967785  57.6411486
  55.5205631  56.1804390   7.0027757  55.7195759  57.0792866   6.7406702
  54.6301746  56.0299397   6.6853058  66.2161160  21.5823579  58.7972212
  65.9195566  21.4367032  57.8988504  65.5814314  21.1124301  59.3381214
  50.3336000  39.1141534  53.0962801  50.8370495  39.5679927  53.7721491
  49.7296381  39.7771502  52.7617645  54.0878201  14.0226054  49.2178631
  54.7231293  14.4243515  49.8104954  53.3363295  14.6152294  49.2348814
  65.9299803  16.4601374  58.4878588  66.5617085  17.0779526  58.1198120
  66.4597607  15.7129407  58.7658262   2.2714958   2.7643296  59.8385000
   2.4855836   1.9785231  60.3414011   1.7854460   2.4387911  59.0808630
  37.9918599  14.3480039  54.8373175  38.4353089  13.5045099  54.7473192
  38.4995246  14.9453080  54.2880106  53.5093927  39.6300697  62.6585197
  54.2048836  40.2868891  62.6918602  53.7076664  39.0344000  63.3810854
  63.4394932  78.6976051  48.6495256  63.8153458  79.5084906  48.9922047
  62.5959444  78.6176968  49.0948057  70.9316635  47.7015352  36.4148307
  71.7344046  47.7905226  35.9011006  71.1379385  47.0324469  37.0675182
  65.6077051  65.7964802  63.3500147  66.4271402  65.3719473  63.6040401
  65.6695461  65.8868837  62.3991013  58.9260149  13.8443136  16.8576694
  59.3593931  13.0521405  17.1752822  59.0284586  14.4753873  17.5700474
  28.3492494  15.6194103  25.2075863  28.2566404  14.6727729  25.3149724
  28.0415559  15.9857464  26.0366535  32.7373385  32.8635740  62.8430748
  31.8592095  33.2382250  62.7741003  32.6719952  32.0170975  62.4009895
  28.6662388   8.2775438  55.3103399  29.3957901   7.7149785  55.0505209
  27.8884459   7.8306836  54.9763012   9.0878767  33.3655000  32.5511885
   9.8144865  32.9068327  32.9729629   8.3912647  32.7113199  32.4963093
  19.3009794  14.5735180  66.8043470  18.5235870  14.4330287  66.2638330
  18.9885688  14.4741380  67.7036572  52.4212408  50.1340628  25.9790635
  52.1119213  50.2044201  25.0759578  52.8776503  50.9597301  26.1409235
  28.2009530   7.2884744  65.0722456  28.2300711   7.4722779  64.1333055
  28.4626675   8.1112045  65.4855871  24.9281812  19.0969145  47.3778582
  24.4065690  19.2085266  46.5830660  24.2998004  18.8031602  48.0374622
  37.1603322  19.0095961  50.2718830  36.3735104  19.1371226  50.8018637
  37.7840900  18.5920000  50.8658266  66.7364502  34.5704174   5.2705073
  67.3471260  33.8369942   5.1970208  66.0124016  34.2276454   5.7944226
  12.3039734  74.6900320  62.7428961  13.1650019  74.5697451  63.1433916
  12.4202490  74.4077492  61.8356895  26.2025547  34.1055298  16.2183869
  27.0939589  34.4340467  16.3354647  25.8801007  33.9653373  17.1086693
  47.0474768  17.0028603  44.3792152  46.5528584  17.7563334  44.7014952
  46.9400978  16.3374090  45.0588322  49.4960737  58.6540413  24.4052696
  49.5025349  59.3344879  25.0784564  50.4204559  58.5052443  24.2062449
  39.7880554  20.7005858  61.1230659  40.3539562  20.5296516  61.8759060
  39.1996050  21.3952899  61.4186049  53.2583904  55.3565502   5.5705911
  52.7857304  54.8485184   6.2299275  52.5939751  55.9297895   5.1882607
  54.6560860  52.5798082  31.4415789  55.4867840  53.0507040  31.3749886
  54.9066496  51.6813183  31.6564298  66.4111853  70.7465982  11.8714690
  66.5732574  71.2778425  12.6510501  65.9472990  71.3332367  11.2740636
  22.2602510  14.4705021  53.3962345  22.5109839  15.0784814  54.0917397
  21.8468857  13.7391174  53.8549662  33.9293528  14.8543191  52.3964405
  33.7987304  15.0160992  53.3307838  33.0589700  14.6281481  52.0685530
  18.6860371  46.7370319  39.2839265  19.2892301  47.1051025  39.9296141
  17.8457928  47.1530581  39.4766545  45.9611320  65.7585526  24.3584490
  46.9045782  65.6537485  24.4815779  45.5685329  65.1823568  25.0142646
  77.6670408   0.8344106  55.0982523  78.4975863   0.8801355  55.5718946
  77.9137278   0.8975493  54.1755438  47.0749521  79.2299032  61.8971491
  47.2597265  79.5832443  61.0269547  46.9370842  78.2939768  61.7512989
  28.7262535  24.8987365  57.2417259  27.9461551  24.4140410  56.9719982
  29.3391633  24.7899199  56.5145874  67.9907894  74.1786623  18.5360003
  67.5492048  73.3742428  18.2637072  67.6830673  74.8417568  17.9180682
  46.7185116  15.1161468  62.6688910  47.6291084  14.8211217  62.6677895
  46.6855478  15.7940233  61.9938850  77.6884794  42.5727606  11.2710416
  77.9886532  43.4474277  11.5181911  77.9069328  42.4981689  10.3420925
  57.9199171  58.1499386   6.9913799  57.0759392  58.5362196   6.7574751
  58.5367680  58.8808632   6.9528955  43.7850380  23.9662480  46.6546249
  43.1631279  24.0849161  45.9367275  43.3322096  24.3126392  47.4235153
  73.3446121  38.4295464  61.6961718  74.0773630  38.7615705  62.2148895
  73.2075691  37.5385761  62.0180798  77.8658438  18.0968571  50.0105095
  78.4076452  18.4805453  49.3209696  77.0104694  18.5125983  49.9022293
  14.1514719  71.7612076   7.3427010  13.2630301  71.4092541   7.2876567
  14.5686305  71.2510014   8.0368900  55.6725645  20.2654815  29.9514008
  55.7527542  19.8292553  29.1031623  55.7137537  19.5546520  30.5911326
  20.7725596  19.5842886  58.1396484  20.6808949  19.0853035  58.9513397
  20.2295184  20.3611040  58.2734203  65.7819223  72.9284620   0.4012981
  64.9940109  73.0588055   0.9289646  65.9918928  72.0008612   0.5094725
  68.5538387  48.7399769  64.9408197  68.2650089  48.0382586  65.5242586
  68.1589746  49.5321608  65.3051805  27.3089600  73.4805727   3.9836308
  28.0995488  74.0175104   4.0374628  27.4381995  72.9415417   3.2032612
  39.2779899  65.1479053  22.1524858  39.4096494  65.3007412  23.0881882
  38.3281946  65.1747561  22.0367289  58.9541340  50.5938387  17.6243508
  59.6077728  50.7360125  16.9396782  58.5586119  49.7498751  17.4063551
  48.9697790  12.0815837  61.1402035  48.2210064  11.5015280  61.0019636
  49.6184063  11.7924929  60.4983807  35.2505851  11.8619227  46.4065123
  35.9717917  12.3280919  46.8293381  35.6744003  11.1522722  45.9238052
  54.2592955  12.6870239  62.2557926  54.1125154  12.1932983  61.4489985
  53.9750910  12.0962095  62.9532146  47.7596235  11.0566795  49.2690849
  47.1207857  11.5507662  48.7552834  48.6086369  11.3968432  48.9867735
  52.5265265   1.7534190  64.0154028  53.2268667   1.4701448  64.6032000
  51.7789602   1.9110717  64.5920515  48.5381079  43.4101057  57.1671391
  49.3136454  43.9704561  57.1391773  48.0572605  43.7050533  57.9404545
  24.6295214   0.9616183  67.9786730  24.6230221   1.0990819  67.0314169
  25.5399752   0.7487164  68.1835556  32.9859447   8.2410842  32.0020318
  33.0970287   8.0660051  31.0675597  33.1190205   7.3914725  32.4223685
  34.3449092  19.9015701  31.7251754  33.8968277  20.6737018  32.0705247
  34.8635459  19.5764744  32.4610829  39.1849542   2.9216456  58.4307575
  39.7830772   2.7451113  57.7045918  39.7485399   3.2520220  59.1303635
  66.9800949  46.3550615  62.7418327  67.9358101  46.3050652  62.7604342
  66.7291117  46.4832926  63.6565971  24.1319489  33.8217783  61.3446140
  23.7111402  32.9888916  61.5577984  24.2418337  34.2578077  62.1896219
  73.1445122  68.2678938  31.3379526  73.9745140  68.0633879  31.7686510
  73.1732893  69.2146254  31.1997294  40.1532364  46.3331509  22.2334123
  40.2205086  45.5325365  22.7537298  39.4154453  46.8069983  22.6172972
  79.3292618  77.3924828  19.5032263  78.7043047  77.1642590  18.8150585
  79.9262428  78.0148172  19.0878356  73.5234165  11.6211498   3.4650534
  73.0025387  11.5958810   4.2677230  73.9109325  12.4963748   3.4584558
  14.0617275  33.9813805  47.8066492  13.7608659  34.3791413  48.6236572
  13.9003646  34.6500945  47.1410561  31.9983435  11.3915586  20.3317356
  32.8191590  11.2120271  20.7902837  31.3528538  11.5009224  21.0300303
  24.6842098  21.3740373  56.1755896  24.0984035  21.8602204  55.5953407
  24.3517661  21.5519476  57.0553970  61.2676096  14.1800582  56.3763380
  61.9958925  14.5383418  56.8837500  61.6783953  13.5634732  55.7702780
  69.5979309   7.9471958  66.0968208  70.5048418   8.2504839  66.0548449
  69.4426250   7.7844536  67.0272160  19.5656490  22.7947283  42.9263783
  19.8970246  21.9312072  43.1728601  18.7377393  22.6153088  42.4807262
  51.8489027   3.8798863  13.3960533  51.8444586   4.6237451  13.9984536
  51.9467068   4.2741659  12.5293303  36.5941525  26.6176081  55.6023264
  36.5994120  25.9472895  54.9190426  35.9519958  26.3049793  56.2396097
  71.0630226  78.2277632  67.3066139  70.8477259  78.0777168  66.3860893
  71.6788912  78.9603758  67.2922087  35.9226012  64.5965958   7.5036383
  35.6097889  63.8156843   7.0469606  35.6767702  65.3233671   6.9312733
  30.0623322  38.7897229  27.9254055  29.1164780  38.8488317  27.7908754
  30.4246473  39.4982696  27.3935008  64.7936535  27.3084450   2.8074419
  63.9328098  27.0136094   2.5103635  64.6039343  27.9534554   3.4887657
  15.0432563  70.8126497  57.6677799  15.7838225  70.3041506  57.3372936
  14.6114588  70.2291346  58.2917166   3.1611657  25.6977248  23.1891680
   3.4019175  26.5036035  23.6461496   3.7950149  25.0496244  23.4964657
  79.8696184  55.5071211  63.0105114  79.7188425  56.4053631  62.7161360
  80.6338692  55.2169800  62.5125504  50.5349827  72.0680952  13.2023990
  49.9059963  72.2801256  13.8920748  51.3322735  72.5343227  13.4537721
  16.7907870  35.6608629   3.9054501  17.4425185  36.1599994   4.3977326
  16.0800695  36.2829018   3.7499574  46.0043955  19.5456243  48.6139441
  46.4004421  19.7638679  47.7702904  46.2048578  20.2956772  49.1738272
  58.6915016  15.5986583   3.4767938  59.5266962  15.1310360   3.4790608
  58.0421257  14.9280822   3.2649657  16.0267937  17.4515808  36.1242294
  15.4819071  18.0968094  35.6736612  15.5028963  16.6504943  36.1194396
  55.6344414  57.2033691  25.4571223  56.1691809  56.6905260  24.8510838
  55.1311398  56.5505838  25.9437346  52.3103237  65.0671959  33.3591247
  52.2374725  64.7443533  32.4609613  51.8211651  65.8899689  33.3583140
  19.9140978  26.3806009  58.4059954  20.5943298  26.5671682  57.7589178
  19.1948533  26.0072517  57.8965569  30.0843596  -0.2690538  40.2007532
  30.3796983   0.3277510  39.5131254  29.6761823   0.3003139  40.8530140
  44.3887043  36.4378333  65.2659702  43.6763287  37.0401335  65.0515127
  44.9608183  36.9403744  65.8459473  36.6611457  28.8714576  45.6632471
  35.7134724  28.7903571  45.5556774  36.9713306  29.1953897  44.8176193
  79.1128922  51.5022850  66.1793232  79.0442228  51.8890381  67.0522165
  78.3784676  51.8768406  65.6929493  30.5472875  15.7626069  29.3814945
  30.5870605  16.2513077  28.5594106  31.4024472  15.3379476  29.4493008
  29.9845672  22.4933481   0.2772755  30.8231854  22.0380306   0.3523627
  30.0073576  22.8956556  -0.5909765  22.2261548  25.9999824  54.2098236
  22.8187251  25.2564979  54.0988159  21.4323401  25.7459378  53.7391281
  40.1206732  30.6115603  65.8464050  39.3340921  31.0859394  66.1156416
  40.7684469  30.8203602  66.5194750  25.3902555  29.0646863  41.0749531
  25.3103113  28.6666226  41.9417763  25.2524853  29.9996209  41.2271023
  31.5848637  16.3916087  54.3339586  30.9568977  16.2609935  55.0444746
  32.3267889  15.8323586  54.5642090  56.3233852  57.8999996  12.3179030
  56.3468409  58.6676979  12.8891492  57.2093201  57.8402948  11.9604278
   0.0667076  22.2820282  25.2303481   0.9521059  22.6456928  25.2233458
   0.1337168  21.4989901  25.7767844  38.3613157  26.3638783  37.7802014
  37.7487326  26.9917846  38.1632233  38.4169364  26.6153765  36.8583083
  30.8561993  40.8218527  10.1762486  31.1178350  39.9708128  10.5276883
  30.5565214  41.3145924  10.9402072  30.7638597  10.8596289  38.2246542
  31.5465474  10.3106701  38.1769180  30.9193373  11.4337146  38.9746428
  12.7334845  24.6350932  24.1028619  12.5411344  25.1744151  24.8699117
  13.4369648  25.1021028  23.6520267  25.8222246  31.8416667  47.5092173
  24.9026966  32.0070195  47.7174473  26.0816646  31.1424017  48.1091785
  36.7888665   9.5584059  57.2747326  35.8839726   9.3891537  57.0125246
  36.9461656   8.9514714  57.9980040  75.9135628  79.4197273  21.2671018
  74.9903727  79.3334389  21.5048265  75.9015465  79.6374416  20.3350687
  23.9053273  62.9230833  29.1415024  24.5309520  62.7928877  28.4288478
  23.0717397  63.0887556  28.7011433  44.2800236  27.9834437  64.8996592
  44.4963980  27.1910334  65.3910875  43.6066866  27.7041745  64.2792892
  62.7609587  26.6990113  64.5556784  63.5319614  26.4154029  64.0643978
  62.9458761  26.4442277  65.4596281  37.8943181  75.2113771  12.3129392
  38.4586954  74.9421644  11.5882087  37.9585361  74.4955730  12.9451847
  23.1533670  15.9509444  51.6098976  22.7680016  15.5597234  52.3939085
  22.5496149  16.6545248  51.3717985   0.9774614   6.9542354  55.6437397
   0.5281197   7.0766354  56.4800072   0.7040899   7.7025676  55.1131725
   8.0734587  65.7666492  26.1311913   7.4209875  65.8882093  25.4414558
   7.5915688  65.9128952  26.9452095  27.6539993  13.9484262  41.9182682
  28.1822300  13.9860582  42.7156305  27.1054411  14.7318804  41.9571733
  39.0128422   7.3657024  51.6004276  39.8347926   6.9818956  51.9059134
  38.3322549   6.8442351  52.0259905  77.1133327  79.2992687  62.7951670
  76.8875170  78.3711863  62.7327347  77.2266293  79.4556618  63.7326813
  58.9335871  54.0415573   0.2888865  58.1645727  54.4528675  -0.1056697
  58.9682388  53.1702518  -0.1059033  60.9571075  61.0037899   2.5913450
  60.8745670  60.6307888   3.4690061  60.1428032  61.4894676   2.4599570
   4.8055476  61.4537764   5.0595158   4.3032637  61.9714737   5.6887454
   5.6347603  61.9235849   4.9705479  22.0311642  36.2850428  67.7703714
  22.4581981  36.3564587  68.6240530  22.5945067  35.6952429  67.2693586
  52.6436329  25.1301026  25.2103138  52.3928833  25.9698296  25.5953026
  52.1185780  25.0660539  24.4125390  36.2757063   7.3965830  32.2328568
  36.2469149   6.7915666  31.4916706  36.4459968   8.2515872  31.8376350
  28.0618310  34.2882895  56.8582582  27.5102425  35.0318313  57.1014118
  27.6074767  33.8847470  56.1186981  35.2323198  33.7965560  61.7486525
  35.8728051  34.0698600  62.4054003  34.4560719  33.5585618  62.2556353
  49.7270441  29.9094009  47.2285748  50.2849436  30.6871700  47.2363758
  49.0720320  30.0776815  47.9059744  15.4683864  50.3199100  37.2269964
  14.7497463  50.9507751  37.2693777  15.1612139  49.5721579  37.7395844
  71.4930916  50.3373480   4.0535146  71.3743353  50.6360388   3.1518966
  72.4037075  50.5497313   4.2582086  70.2553272  20.6439400  62.6382256
  70.8650827  21.3542771  62.4385977  69.6334505  21.0286021  63.2559109
  59.3909025  16.8020892  60.7397985  59.3267250  15.9260249  61.1200953
  58.6767197  16.8399334  60.1036072   6.7515653  69.9872398  52.7793980
   7.5367922  69.6558380  52.3437119   6.6068184  70.8491850  52.3891020
   2.4228662  16.8014073   6.8707412   1.4942807  16.5755999   6.8162274
   2.5412348  17.4883151   6.2147081  18.9505565  18.3492100  43.2838678
  18.0234659  18.5392189  43.1402349  19.2047489  17.8143811  42.5318193
  41.9685984  17.4589860   1.5070675  41.3817739  18.1570542   1.7978750
  41.3948202  16.7050648   1.3706255  36.1759305  13.1252098  38.6609721
  36.6520762  13.3346248  39.4645047  36.4373899  12.2278357  38.4545970
  46.8144941  20.1688433   5.9215569  47.1175003  20.4239178   5.0501472
  46.1235905  20.7981396   6.1286128  81.6278267  19.1080534  50.1710606
  82.3593521  18.7883902  49.6429348  80.8996677  19.1787171  49.5537901
  34.0193701  35.7076454  35.6486368  34.3932891  34.8326325  35.7524252
  34.6724677  36.2940383  36.0305262   1.8195267  13.4213817   7.9919374
   1.1773791  13.9758003   8.4352183   1.2944025  12.7603984   7.5407416
  57.5716114  74.0700626  11.5682065  57.0896482  73.5706234  10.9090364
  58.2884550  74.4782114  11.0826325  62.9436302  13.9734006  41.5153790
  63.1832886  13.0474889  41.4768744  62.0357561  13.9985847  41.2131166
  54.3802166   8.1546992  24.7992182  55.1785278   7.8516114  25.2317381
  53.8116407   7.3849279  24.7791839  49.3406916  53.2639694  68.7330818
  49.7423315  52.4855042  68.3471966  50.0394487  53.9181614  68.7347507
  49.0342283  65.0623131  16.9254959  49.6560669  64.4556808  16.5235734
  49.3855143  65.2196741  17.8018904  42.4965382  26.5340543  63.3781481
  41.7872095  27.1512246  63.5575485  42.3038435  25.7793808  63.9345360
  49.5493031  28.5725713  49.9056196  50.1619482  28.0566335  49.3814945
  48.8327312  27.9684734  50.1001072  84.4849205   7.2021931   4.4531041
  83.5794449   6.9192612   4.3254828  84.6452713   7.8207850   3.7404576
  40.6459427   2.6979122  64.6382046  39.7748041   2.9868108  64.3663788
  41.2319517   3.0327469  63.9594507  68.6145306  10.5786693   1.4527351
  69.4787073  10.9613109   1.3010401  68.1159496  11.2750149   1.8802284
  59.2138481  57.9869318   0.7640481  58.4650135  58.1079531   0.1802427
  58.9453030  58.3969975   1.5862158  37.8522682  21.4208078  36.8332529
  37.9281807  21.4741158  37.7859473  37.5476623  20.5287647  36.6667938
  32.7876997  77.9415655  38.8127351  32.6566863  77.0332527  38.5406470
  31.9263697  78.2268858  39.1175842  76.1149549  41.4485025  26.8192148
  76.3951015  42.2984219  27.1588922  76.1024952  40.8762455  27.5864172
  31.9008660  32.9671478  49.3730927  31.1347055  33.4958577  49.5960188
  31.6940784  32.5954247  48.5156012  39.6119809  33.8909245  56.4841032
  40.0739861  33.0880022  56.2430668  38.8528061  33.5897660  56.9832945
  73.4820318  71.3792896   3.3919889  73.0330610  71.8253279   2.6738584
  73.9628935  70.6680059   2.9688188  19.1330135  77.8385735  61.7458677
  18.5028994  77.6953888  61.0396910  19.4323218  76.9604349  61.9815016
  83.8501072  57.5925779  58.2224989  82.9997635  57.2566366  58.5058498
  83.6496449  58.1453991  57.4672270  38.2755160  28.8137770  41.0474300
  38.0198169  29.0676355  40.1606321  39.0569091  28.2743645  40.9262323
  57.5836372  78.2170153  13.5612643  57.2381067  78.1346369  14.4501150
  58.3665943  78.7591076  13.6579430  41.5963840  37.7193928  57.3665047
  41.3662577  37.1589446  56.6254425  41.7250586  38.5858631  56.9806194
  32.6855683  31.3055110  43.1247234  32.8274632  30.6229186  42.4688530
  32.3465037  32.0493579  42.6267719  53.8402271  75.5956316  56.3469458
  54.7515917  75.4605341  56.6065550  53.6810112  74.9308920  55.6768703
  24.1970825  79.5721579  45.6208515  24.2270184  78.9111423  44.9291945
  25.0112939  79.4460535  46.1080790  33.0995440  11.2753892  50.6828356
  32.4506593  10.7152736  50.2568674  32.7827597  11.3684058  51.5812969
  38.6354494   3.2820052   1.4718784  39.0152955   4.1598219   1.5091361
  38.3742118   3.0955997   2.3736763  46.2496471  11.6774869  38.9703250
  46.9222784  11.6466022  39.6506572  46.7219877  11.4948702  38.1580591
  80.4135513  17.2714508  11.7104781  80.3016090  18.2220638  11.7163825
  80.7907581  17.0693803  12.5666976  50.9736872  24.0779638  47.5532722
  51.2743568  24.9556851  47.3178291  51.7404270  23.6589527  47.9441261
  50.2645588  24.8158002  59.4945002  50.0365591  24.0418649  58.9794540
  51.2215757  24.8175836  59.5132875  19.9670231  25.7200933  12.5022805
  20.4324174  26.2164092  13.1755638  20.1318121  26.2025976  11.6921782
   1.7657030   4.2665750  15.7225275   1.7135403   5.0058138  15.1166916
   1.1564121   4.4900748  16.4261210  49.4092512  34.3564844  52.0614958
  49.9864197  33.7697411  52.5502062  49.8168755  35.2184367  52.1458340
  82.3425007  43.0782700   8.6592549  83.0658722  43.6877632   8.5126865
  82.2130108  42.6520634   7.8120172  61.8960714  50.9128857  24.2906260
  61.2550306  51.6234684  24.3099713  62.6909161  51.2972403  24.6603894
  65.2220488  15.1948202  34.1950274  64.8970795  15.0627339  33.3044195
  66.1728382  15.2473378  34.0977311  58.7578440  32.7181721  52.2477484
  58.1386709  33.2303548  51.7276287  58.5267639  31.8071389  52.0664883
  40.9735775  25.2756691  55.4615498  40.5395460  26.1023092  55.6725311
  41.6803694  25.5217409  54.8647881  45.2821922  53.3268738   2.6006874
  44.7293949  52.6223516   2.2626092  44.9113369  53.5313463   3.4591091
  28.6659503  27.1691799  51.3031673  28.8166189  27.9482412  50.7678223
  29.4708681  26.6587090  51.2150908  25.8398271  36.0019517  57.6151705
  24.9743366  35.8358836  57.9887724  25.6646967  36.5025496  56.8183231
  29.1463351  24.2775178  43.3369637  29.6114516  23.9972711  42.5486994
  29.8377919  24.4345570  43.9799690   8.4449416  43.4564304   7.0488131
   7.9070711  44.1623116   7.4075019   9.2358023  43.4602642   7.5880319
  52.4101067  39.0848303  58.2641268  51.9484091  38.3323240  58.6339903
  52.5642157  39.6623921  59.0117264  22.4191308  22.6551533  55.3970337
  22.7522755  23.2671452  54.7407484  22.4722576  23.1368303  56.2225008
  32.1473265  20.7281303  67.4386549  33.0338407  20.9020495  67.7550030
  31.9066334  21.5178633  66.9542789  53.7831926  13.5195494  44.1433191
  53.3418751  12.9966581  43.4739494  53.3304167  14.3627071  44.1256905
  33.4144759  19.1727889  61.9129276  33.8069224  19.1253197  62.7846861
  32.7502036  19.8580551  61.9862986  50.8258533   6.0122818  54.8304749
  50.3940916   5.3769636  54.2593479  51.7523575   5.7742655  54.7962427
  68.6059475  23.9025927  66.2255621  68.7864208  24.8381758  66.1341906
  67.8196526  23.7578225  65.6992435  34.1416985  -0.1410012  64.1660833
  33.9075810   0.6450410  63.6725664  34.9102050  -0.4881339  63.7131739
  18.8016510  32.4205494  27.4666166  17.9777527  32.8290892  27.7321649
  18.9802623  32.7834725  26.5990829  80.7199478  26.9156814  28.1284738
  80.4184628  26.6976666  29.0104055  81.5665150  27.3415947  28.2632113
  38.8476825   8.2831573  54.2810869  38.9567709   8.4955913  53.3541536
  37.9447556   8.5316384  54.4791031  46.6209745  41.4058781  60.7450247
  46.0019112  42.0185947  60.3480721  47.4312782  41.5302849  60.2509022
  66.3994074  75.7689142  16.9399238  66.6417456  76.5625429  17.4170566
  66.3580179  76.0434151  16.0238624   0.8565256  75.0324154  67.8994608
   0.3761153  74.9981403  68.7266588   0.1758948  75.0205898  67.2265291
   0.5994093  61.4675140  21.9533920  -0.0325102  61.6653776  21.2621903
   1.4258796  61.3306475  21.4903092   4.0194386  43.5599804  22.7771544
   3.7938249  42.8792286  23.4111142   4.6183673  44.1382027  23.2495713
  15.0178528  45.0646162  31.0519147  15.5183411  45.8648729  30.8927560
  15.5079472  44.3808174  30.5953407  41.9173813  69.8131609  16.1601186
  40.9703970  69.8485851  16.0251880  42.0755672  68.9403534  16.5198648
  66.3396835  77.5113964  62.1305084  65.7109308  76.9118595  61.7286873
  65.8540201  78.3287382  62.2414970  13.6052918   5.4302353  26.3281775
  13.1698310   6.0342950  25.7267475  13.9485228   4.7369137  25.7645011
  80.5305195   2.8875947   7.0929617  79.9687719   3.1666660   6.3699156
  81.4002895   2.8041703   6.7021024  35.2311921  68.9134026  14.6929026
  35.7415342  69.7038412  14.8689413  35.0563359  68.9457226  13.7523639
  35.2101779  17.7303159  58.5390568  35.3865409  17.4535716  57.6398706
  34.7005200  18.5352278  58.4463310  40.5407190  37.0778441  44.6421862
  41.0195303  36.3544655  45.0467777  39.6381927  36.9639707  44.9400282
  70.6379890   3.0322206  53.2577753  71.3074589   2.3598376  53.3840513
  70.8467722   3.4215915  52.4086380  15.8542657   7.0864230  44.3674850
  15.5215514   7.9628599  44.5608521  16.1465704   6.7489958  45.2142048
  69.9118185  41.3431931  45.8546066  69.7404861  41.7845869  45.0227118
  69.7456312  40.4180765  45.6735659  29.2111325   5.5434841  22.5587106
  29.2863417   6.4411855  22.2351241  29.6578217   5.0128877  21.8990374
  81.0058689  78.9301729  13.4915555  81.5342236  78.6652899  14.2444837
  80.2035427  78.4138441  13.5684431  54.5755577  37.3927093   2.2896227
  55.1811552  38.0844903   2.0233031  54.9528837  36.5913153   1.9268224
  38.5187364  16.9866419  59.2955017  38.0771613  16.1601353  59.1002369
  38.6778975  17.3815310  58.4382057  31.8870187  24.4107866  35.4435062
  31.1706710  24.0828753  34.8998618  32.0712423  25.2834797  35.0960851
  83.8796208   8.9118952  31.9030523  84.7593582   9.2849767  31.8473387
  84.0244221   7.9822385  32.0791292  37.4445820  13.3616590  41.2315559
  37.4085665  14.2399669  41.6103840  38.3736467  13.1318438  41.2475252
   8.2436836  11.3882375  56.4986753   7.4938118  11.3924205  57.0935774
   8.9018857  11.9257832  56.9391823  49.5486450   8.3289552  65.9816408
  50.0287390   7.5568563  66.2809801  49.5004225   8.8946736  66.7522717
  30.4326677  35.1409411  25.2242470  29.8627996  35.5025673  24.5454907
  29.9273849  35.2278829  26.0325551  47.5766945  74.7432947  15.3140354
  48.1832504  75.3325510  14.8655915  47.1088362  75.3056383  15.9313750
  45.5577278  31.7885470  67.4457979  44.8647690  31.2293696  67.0945787
  46.0879374  32.0203948  66.6833305  52.9850388  36.8879175   9.2256546
  52.4901199  37.6767898   9.0043664  52.4651575  36.1698604   8.8646168
  71.0831308  33.2338023  63.4600687  70.9144068  32.5155091  62.8503036
  71.1253357  32.8137779  64.3191528  47.7163792  21.5004659  49.7377062
  48.5941172  21.1514211  49.5828724  47.6587868  22.2660446  49.1660357
  53.2770538  79.2261171  47.5643206  54.0276432  78.6594725  47.3860979
  53.3316040  79.9122000  46.8990803  36.0098338  29.1350794  26.2367129
  36.1330843  28.5796261  25.4669642  36.0903931  30.0285053  25.9027505
  31.8671679  75.6694460  16.2582171  32.3804188  75.9430695  15.4979956
  31.2670016  75.0068760  15.9161186  43.5104418  60.6030273  45.5049038
  44.0142918  61.2221527  44.9766493  44.1133738  59.8764658  45.6624365
  28.8042641  74.1088343  49.7076321  28.4799099  73.2844496  49.3451214
  28.1082869  74.7404861  49.5263386   4.9681644  -0.0972467   4.5511085
   5.8640603  -0.3066163   4.8152378   4.7288255   0.6555791   5.0916708
  30.4908395  22.5707769  60.1436663  30.0330257  23.3758092  60.3856659
  29.8583746  22.0856237  59.6137190  34.9502897  13.4389496  33.4134626
  35.1408362  12.9187977  32.6328444  35.1617002  14.3374598  33.1600523
  25.0917959  23.4668326  61.5337133  25.0158262  22.5466609  61.7861938
  25.7838392  23.8133836  62.0969296  29.6002436  12.6037276  67.1329498
  28.7858176  13.0918205  67.0116711  30.0242782  12.6284182  66.2751532
  54.0427923  72.2528172  67.4647951  54.9210072  72.3975468  67.1126223
  53.4544039  72.5396299  66.7663860  44.2235804   6.9337600  47.9717207
  43.5707760   7.5279427  48.3418846  44.4771576   7.3421723  47.1439934
  44.9585581  59.0139675  19.4660676  44.2827606  58.3424950  19.3730700
  44.5075274  59.7527313  19.8747611  43.7159157  34.5893621  57.4506378
  44.2335176  35.3945446  57.4506855  44.3576241  33.8921094  57.5858402
  32.1855807   1.1705899  33.6818767  32.9944324   1.6774416  33.7532353
  32.4583173   0.2635524  33.8201880  63.5400915  14.4734192  25.5757332
  62.9368448  14.2499256  26.2845182  64.2868948  13.8884330  25.7034254
   5.5018395  15.5527353  13.9699352   5.4956716  15.7750285  13.0389261
   6.4300656  15.5076802  14.1992784  44.1817570  54.3135023  20.4445529
  43.3050299  54.6226788  20.6725669  44.4657612  53.8131571  21.2095547
  81.0239124  65.3058195  44.2938757  81.7408562  65.1377821  44.9054241
  81.3317680  64.9499702  43.4603119  45.6913137  41.9582605  44.0688753
  46.1883307  41.1507607  43.9379263  46.3286877  42.5765276  44.4262695
  60.7376814  42.4961472  56.3785076  60.3566742  41.8434954  56.9659662
  60.0590038  43.1655502  56.2917709  33.1651926  14.0039289  45.9407854
  32.9943347  14.6107984  46.6610241  34.1178918  13.9124715  45.9255314
  36.0872769  12.4947989  64.4563246  36.3478827  12.8062522  63.5895395
  35.6469345  13.2439899  64.8576260  54.1406155  52.6536131  54.3902493
  54.3798256  53.5027790  54.0188646  54.7509050  52.0357037  53.9878035
  46.3969898  24.6976304  41.8286133  46.4766836  24.0163493  42.4962473
  47.0943642  25.3194642  42.0365191  56.8040800  47.1319532  24.4207430
  56.5483475  46.9909668  25.3323078  56.2615585  47.8651857  24.1304445
  80.6270027  31.6172385  10.4305887  80.0349522  31.4596510   9.6951407
  80.4285717  30.9168482  11.0521269  11.4791334  24.6852088   0.3555664
  10.6714916  24.2557025   0.0736659  12.0609856  24.6219945  -0.4018526
  46.3016558  50.6943512  50.8891726  46.3957167  51.4161873  50.2676105
  45.6446314  51.0006285  51.5142727  66.5211582   7.3881453   7.6773846
  65.8408737   7.7332664   8.2556015  67.3199797   7.8383684   7.9519975
  36.6148353  29.0478086   3.2789463  36.0080051  29.6836877   3.6579567
  36.3808370  29.0168738   2.3513038  79.2974234  21.7507863  15.7551599
  79.2796612  22.5339937  15.2051556  78.6766863  21.9384193  16.4592302
  64.4617987  63.2546329  46.5847492  63.6486483  63.4538174  47.0487976
  65.1189518  63.1754732  47.2762108  35.1788616  33.5252905  59.1464376
  34.5450521  32.8392410  58.9370298  35.1057029  33.6377597  60.0941896
  28.7021852  19.4935703   1.6053131  29.4852138  19.1892433   1.1465265
  28.1558776  19.8762536   0.9187762  33.1553078  27.0493722  16.3687682
  33.6136770  27.1811199  17.1986914  33.4735608  26.2044501  16.0508811
  35.2505946  56.6984749  59.3751669  34.8591375  55.9309149  59.7921133
  35.4857731  56.3999891  58.4966278  56.4052200  36.2664104  52.9523134
  56.8789434  35.5184031  53.3160496  56.0328150  36.7081571  53.7154675
  53.7006426  35.7373643  60.1246023  54.2087746  36.5392065  60.2474117
  53.5128832  35.4343724  61.0129547  48.0262661  15.5205894  66.6791344
  47.4101400  15.2493465  67.3596144  48.7637186  14.9170554  66.7693663
  55.5709314  62.0756054  48.9365005  56.1340046  62.8032446  49.2005491
  54.9579525  62.4618673  48.3109665  63.3822346  76.0513306  16.0546696
  63.9338303  75.3751183  15.6613362  63.7391758  76.1695099  16.9349301
  83.9969158  75.3266859  52.9600859  84.7703075  75.7053757  52.5421238
  83.3220768  75.9994507  52.8694630  44.5703840  53.0605125  52.2076225
  44.8799086  53.9501381  52.0373583  43.6163139  53.1369638  52.2192001
  51.2301016  49.7327757  53.4773064  51.2755966  50.6649494  53.2646751
  52.0811796  49.3846464  53.2114029  67.6592016  57.2180128  54.6807671
  68.4546423  56.7185926  54.8653936  67.7548885  57.4923038  53.7687111
  82.4539185  24.0095758  55.5270767  83.1935596  23.4612584  55.7887936
  82.6384544  24.8634124  55.9184074  30.5675864  56.1645412   9.2935288
  30.2533674  56.7499399   9.9825877  29.7782207  55.9144020   8.8133615
  65.0000095   7.0467973  62.0077610  64.8358154   7.1896356  61.0756302
  65.8707380   6.6505063  62.0396090  15.0077510  41.8361330  60.1294518
  15.5113733  42.2469378  60.8321857  15.5778170  41.8911695  59.3624926
  20.3848958  38.5537100  47.6434422  20.0966787  39.2137146  47.0129251
  21.3186455  38.4429836  47.4643183  63.0800200  61.9052744  53.4048080
  63.5998631  61.1743069  53.7389994  63.1267262  61.8169022  52.4528456
  15.0085258  38.6717916  15.5476046  15.3521812  38.0295420  14.9265993
  14.1129494  38.8354135  15.2519631  62.1201468  70.4625702  55.0374174
  62.0117521  70.2708387  54.1059017  61.4686537  71.1396646  55.2199793
  39.4631243  30.7249904  59.8443365  40.3814602  30.9943914  59.8619986
  39.3210196  30.4170656  58.9492273  53.1699038  60.3896284  49.8875427
  53.1566954  60.2022505  48.9489555  54.0192699  60.8049440  50.0369406
  31.9440222  71.1097193  29.4597793  31.9845176  71.3948488  30.3726292
  32.8590012  71.0636520  29.1824293  55.4739141  54.4755650  52.4015522
  55.9343672  55.2756357  52.1483755  56.1546135  53.8028336  52.4191809
  40.1334190  48.9875603  43.1877613  40.6202078  49.8089981  43.1206226
  39.4291830  49.1764832  43.8079166  70.0662947  60.8305836  48.6831760
  70.5200195  60.1011944  48.2608509  70.7592010  61.3178205  49.1289520
  52.0351362  73.8357115  50.6837559  51.9605303  72.9727745  50.2763271
  52.3299313  73.6545277  51.5762234  75.0636387   8.1625253  66.9804382
  74.8562527   9.0550512  66.7036343  75.6743765   7.8417641  66.3168573
  49.6979523  54.7052240  65.7318211  50.1979446  53.9364958  66.0062122
  49.8222446  54.7458458  64.7835970  81.0795689  70.8439970   9.6480638
  81.9825935  70.8134747   9.9640471  81.1472702  71.2043285   8.7638628
  52.8480291  55.6313705  55.0476170  53.0622387  56.3804054  54.4914770
  53.2315397  55.8468246  55.8977509  26.5243840  78.5406017  52.0084333
  25.7237649  78.0188942  52.0637321  27.1360016  77.9896736  51.5199327
  72.7434826  48.1685400  67.9836988  72.6978111  47.4536705  67.3487902
  72.0185900  48.0007458  68.5858631  13.3805013  58.0799532  55.8879042
  12.5454617  58.1005621  55.4204512  13.1556547  57.7737856  56.7665052
  45.8727932  59.5726633  67.7274656  45.9530640  58.6498547  67.4861813
  45.7496977  60.0281525  66.8946362  58.1442308  63.1475401  13.1407642
  57.9182196  62.4393654  13.7437868  57.5972033  63.8823080  13.4184456
  38.5658121  67.1881819  55.7794237  38.4831595  66.2412786  55.6663609
  39.4614267  67.3147249  56.0926151  38.5649157  72.6263189  52.8455591
  37.8930092  72.0356131  53.1859064  38.9395976  72.1583128  52.0993614
  66.1409473  45.6287289  28.6039782  66.8563652  45.8367300  28.0030274
  66.0334826  46.4201927  29.1314888   9.7903156  50.9740019  36.2160921
   9.6086913  50.9265709  35.2774787  10.2907634  50.1798916  36.4036369
  34.1110349  72.9743385  37.6632881  34.9971747  72.9836464  38.0250931
  34.2322373  72.7600384  36.7382932   1.7632183  78.1821299  35.3787637
   2.6734376  78.4249067  35.2090812   1.7683493  77.2249889  35.3879571
  52.2999239  13.1053197  46.7345953  52.7420712  13.0120718  45.8907700
  53.0093765  13.2376325  47.3634052  36.0887432  12.4488091  27.1971512
  35.3025317  12.9611206  27.3859382  36.7390347  13.0980420  26.9290996
  66.5110922  30.9219241  50.9873343  66.6523170  31.6488767  51.5938234
  65.6155777  30.6334615  51.1636114  64.2305613  66.7529726  24.8872256
  64.5030785  66.3168621  24.0798998  64.0784407  67.6619911  24.6288061
  31.2154269   0.3847366  -0.2308982  31.8710756   1.0662531  -0.0829452
  30.7364225   0.3296470   0.5959959  71.7726612  66.7600012  48.9111185
  71.7436028  66.2601328  49.7269154  72.5485277  67.3139524  48.9971495
  48.5577106  46.7462301  46.6497326  49.0999269  46.3381577  45.9746695
  47.7142143  46.2987900  46.5823221  46.9275618  67.5103235  58.7144613
  46.4103651  66.7683840  58.4009933  46.3500404  67.9618692  59.3299389
  64.7795534  56.8357325  47.0942736  65.4478550  57.0615482  47.7412748
  65.2648783  56.4113283  46.3867617   2.1166813  36.2189698  49.4421959
   2.6504391  35.6381512  48.8999891   2.0386969  37.0223451  48.9276695
   1.5678059  27.7561665   5.0407147   1.9727917  27.2151017   5.7185560
   1.0083789  27.1510792   4.5537409  59.5539904   4.5768210  19.7149372
  60.2237892   3.9032549  19.5970035  58.8896418   4.1604200  20.2640152
  56.2709188  60.9242105  55.4536915  57.1680927  60.5941868  55.5026484
  56.2687016  61.4993668  54.6885633  12.5021720  10.3511393  15.4896188
  12.4242651   9.4840187  15.8874416  13.1222224  10.8171535  16.0505116
  39.3770456  65.9075737  59.0102291  39.7645974  66.6713142  58.5827541
  40.0446415  65.2258778  58.9338446  59.2046070  34.0270829  59.2106581
  59.5632887  34.8010755  58.7764692  58.5130119  34.3691587  59.7771454
  33.0883217  53.2623053  44.3710899  32.9066443  52.5095558  43.8084221
  33.2868576  52.8800106  45.2258825  81.0675240  45.7516384  16.2857199
  81.6705608  45.4350233  15.6131566  81.4433765  46.5842342  16.5716386
  59.1540623  54.6495008  47.2317791  58.4188795  54.5877075  47.8416348
  59.9168348  54.7986555  47.7904892  60.0230837  52.6472855  45.7839346
  59.5710182  51.8481207  46.0544920  59.4916201  53.3569431  46.1447287
  58.9188099  52.3841429  63.4420681  58.4557629  52.1942234  64.2580032
  58.2747698  52.8424740  62.9022741  57.9065561  68.9924145  68.4079456
  57.7016640  68.1330538  68.7763882  58.8520288  69.0842772  68.5257435
  48.4019709  37.0682549  56.8154097  48.9762163  36.3098645  56.7090321
  48.8913107  37.7951217  56.4301300  84.5486210  68.5659552   0.8497033
  83.9546350  67.9401636   0.4352195  84.4564961  69.3642282   0.3296048
  36.9481635  57.7011728  24.0779710  36.2470388  58.1328678  23.5898113
  37.5694323  58.4021425  24.2751956  73.9010477  68.2730198  43.9087725
  74.6881533  68.6759567  44.2752981  73.1852436  68.8384533  44.1988516
  31.6908646   6.3964719   9.2260790  31.1944866   5.9672147   8.5292435
  31.5121794   5.8710939  10.0060022  76.6788244  66.5692616  20.4095936
  76.6998100  65.6124496  20.3924155  76.0494566  66.8072891  19.7288060
  68.4945202  23.4731531  54.7181559  68.9771509  22.7232862  55.0660038
  67.7886534  23.0848050  54.2012691  44.5568371  50.7474375  42.9116488
  43.6510706  50.8953333  43.1835794  45.0165701  50.5245495  43.7210894
  84.2611122  47.0035601  22.7075315  84.0527439  46.0704756  22.6610589
  83.6926651  47.3417473  23.3994365  66.3933420  45.0257301  23.1556201
  66.7465401  44.4124556  23.8001180  66.3055754  44.5079756  22.3553324
  21.1780238   9.2347038   6.8781281  20.6079698   9.7280586   7.4679345
  22.0480490   9.6086937   7.0174819  48.1409216  60.0681734  55.3831625
  48.8793182  59.7813559  54.8458242  48.2773256  61.0089684  55.4950953
  76.0444832  27.2433114  54.6175909  76.9870758  27.3486733  54.4885445
  75.9449100  27.1132636  55.5606699  76.8499851  41.4584827  34.0723586
  76.9427443  41.1279583  33.1788373  75.9073496  41.4405107  34.2377281
  -0.3473427  44.5544720   2.1350889   0.1000945  44.1253424   2.8643900
   0.3599670  44.8811054   1.5789838  20.3779459   3.5229275   2.1232127
  20.7749605   3.6389318   1.2599888  19.9649000   4.3655184   2.3120630
  62.5870848  68.3477020  56.8645763  62.3771572  69.0830517  56.2888813
  63.0853176  68.7396526  57.5817728  82.9161263  62.0693302  24.3767691
  83.1178474  62.0890045  23.4412718  83.2998371  62.8756380  24.7215319
  40.0732613  36.3136029  55.4199028  40.1189041  35.4201651  55.7603693
  39.1411257  36.4618826  55.2606106   2.6139018  63.4431028  66.1514091
   3.4427777  62.9952145  65.9823084   2.2307447  62.9675913  66.8885088
  41.8310833  75.8608198  59.0413761  41.3841391  76.0750532  59.8602629
  42.7091789  76.2275648  59.1447210  50.9295893  43.4028625  46.8247175
  51.5537214  43.1697321  46.1374474  50.6591797  44.2955923  46.6099024
  56.2425709  28.9885092  48.8609505  57.0540619  28.6657047  48.4691477
  56.3926315  29.9257398  48.9847088  27.6527929  49.2412424  18.5172749
  27.2369909  48.7835646  17.7866101  26.9691610  49.2974091  19.1848993
   9.6688449   8.1784201  43.8583422  10.2027702   7.4040031  43.6810446
   9.1312271   7.9315233  44.6108294  68.9300489  79.5904160  55.7955265
  68.0428314  79.9486399  55.8230305  68.8062763  78.6416817  55.8241320
  50.0122404  51.3836145  45.4559898  50.1315260  52.1265984  46.0475779
  49.5186853  50.7447720  45.9703064  31.1062860  65.7075739   6.0190213
  30.8925772  65.7463551   5.0867891  31.0124755  64.7829103   6.2479860
  28.4187770  10.3043652   0.3131501  28.3216238  11.2437403   0.1570550
  27.6076937  10.0495052   0.7529469  67.3334408  71.8374109  31.8812537
  67.0228386  71.1409616  32.4598002  68.1310368  71.4837980  31.4875102
  40.8313608  61.3216877  55.8708096  40.6276321  60.6949091  55.1766348
  39.9768376  61.6064310  56.1947632  49.3641996  42.8511047  63.3757544
  49.9803352  42.1878529  63.6867237  49.5077038  42.8866768  62.4300432
  57.2994041  64.7743845  41.4396906  57.4910641  65.0332308  40.5383062
  58.0658484  65.0575209  41.9383144  76.3433361  50.0498676  67.4574041
  77.2569990  49.7877932  67.5703955  76.3356590  50.5446148  66.6380167
   1.2250922  59.9892664  54.8324966   0.9596234  60.8107662  54.4191074
   1.9310674  60.2384615  55.4289293   8.1623983  77.1840191  61.3606834
   8.2297534  77.9166651  61.9729948   8.0306494  76.4172173  61.9182539
  67.8042841  61.8850470  29.7631598  67.2767782  61.1049652  29.9347425
  68.2875061  62.0310593  30.5764294  32.8061938  71.2742186  55.3240442
  32.3892379  72.0489693  54.9470282  32.8133607  71.4408350  56.2666035
  62.4691486  41.2181759  54.6621895  61.8826962  41.6097164  55.3094912
  62.4137783  40.2769279  54.8271894  59.7072697  73.3930779  44.9451303
  59.3208790  72.7953339  45.5851603  60.6508350  73.3205557  45.0888252
  57.1867085  15.0997496  54.8427868  56.2426615  14.9422204  54.8291159
  57.5232887  14.4817328  55.4916334   5.4932386  77.0076942  48.7403488
   5.1955605  77.5068188  47.9797602   6.4472377  77.0824957  48.7174845
  41.8088865  65.3452730  32.3224878  42.5153828  64.7337341  32.1148467
  42.2554302  66.1675167  32.5243402  83.2164097  78.4818983  38.1389403
  83.8350105  79.2034578  38.0252552  82.6107121  78.5674429  37.4027061
  80.0547218  37.0550036   6.5767050  79.5405006  36.9144559   7.3717237
  79.9710608  37.9919982   6.3998663  31.0387659  17.2028446  24.3326569
  31.4056563  17.3722911  23.4649515  30.3379941  16.5696800  24.1769195
  69.3216658  67.2679996  62.2782040  68.7185669  67.8595591  62.7282715
  70.1903582  67.6239872  62.4649763  51.6228056  59.1398811  45.0652695
  52.0311880  58.2806635  45.1710892  52.1070719  59.5485115  44.3478107
  51.8731833  76.2019396   9.6170592  52.6189470  75.9106541   9.0924454
  51.3314247  76.7017698   9.0064061  15.2691936  44.1198683   4.9996135
  14.4290209  44.0160799   5.4463464  15.3188431  43.3707952   4.4057658
  49.7517061  43.8380337   2.3563784  50.4694700  43.2047844   2.3630916
  48.9631987  43.3052349   2.2533451  20.7609510  58.1141567  46.6423512
  21.1469436  58.5325146  45.8727980  20.5129337  58.8424730  47.2118092
  17.0114064  61.7722273  44.8210764  17.5664937  62.1597195  44.1443491
  17.0320046  60.8327675  44.6388197  37.2707701  10.6434309   3.8105559
  37.8260541  10.8942652   4.5487794  37.8307605  10.0890350   3.2671520
  49.3005419   3.6023107  25.9266901  48.5213423   4.1406396  26.0655308
  49.4279051   3.1462350  26.7585588  74.2796040  75.4452276   5.7389712
  73.3651209  75.5078793   5.4632348  74.5569134  74.5748711   5.4529500
   1.5992312  75.7617521  10.1852381   2.0227139  76.3170433   9.5306021
   1.9274263  74.8816156  10.0011897  64.3652916   8.2998544  65.5719471
  64.4456625   8.3110338  64.6181917  64.2445230   9.2183214  65.8129120
  46.2417984  52.8682280  32.9823732  46.4401197  53.5896444  32.3853278
  45.3084230  52.6999712  32.8530216  58.4755373  53.6132526  18.5058427
  59.4242287  53.5827971  18.3821940  58.1149244  53.3724546  17.6524913
  16.3850617  61.7593431  49.6511269  16.3260996  60.8405685  49.9130583
  15.8999050  62.2326899  50.3269911  71.6301870  64.1468811  36.5984392
  71.7177248  63.8384485  35.6965303  72.5145197  64.4166946  36.8461967
  70.5191469  62.6282978  46.4963245  71.3163567  62.5570917  47.0213223
  70.5833769  61.9117594  45.8649158  65.4457664  74.0849686  32.3422980
  64.7695160  73.4465361  32.1157503  66.2671232  73.5981560  32.2743797
  54.8206758  55.3957653  60.0859165  54.9461412  55.8905411  60.8956671
  54.2683506  54.6564674  60.3400993  66.0245419  39.3861985  27.7350020
  66.1900568  38.4653783  27.5327039  66.5714693  39.5654535  28.4998345
  78.6403656  30.3322339  60.3263474  78.2920599  30.0072694  61.1565971
  78.3344269  31.2378454  60.2763271  68.6975145  78.9604855  62.9988146
  68.7470484  78.7840271  62.0593262  68.0981350  78.2948256  63.3362675
  69.0928078  66.3707495  30.4254007  69.1040039  66.7386770  29.5418072
  68.1987000  66.5168285  30.7343650  19.8493779  17.0707393  12.0025396
  20.7327247  17.3470736  11.7584693  19.2777228  17.5161433  11.3771927
  80.3703213  22.0762849  44.0632439  80.6685162  22.3915148  43.2100487
  80.7115173  22.7164674  44.6877289  34.7640228  43.0071402  10.5948269
  34.4901490  42.1653509  10.2306676  34.9092054  42.8301859  11.5242565
  49.1023064  76.3403416  13.8845718  48.4856987  76.7752647  13.2956135
  49.7235203  75.9042025  13.3013868  24.2634892  72.2337532  64.4568968
  24.0440965  72.2009468  65.3880358  25.1818633  71.9667625  64.4176579
  70.4069519  49.9655724  53.1132984  70.7377529  49.7286320  53.9797068
  71.1930943  50.1459455  52.5978613  24.7521591  42.5906658  21.9666719
  24.6687174  41.8347549  22.5479364  25.6790924  42.6085234  21.7285419
  35.2408051   5.3552896  12.0043182  35.9569693   5.6460243  12.5689542
  34.8283386   6.1653066  11.7043579  45.7363605  60.4493713  52.8810167
  45.6417370  61.3508987  52.5735760  46.6446352  60.2224016  52.6816273
  74.8771572  42.1576023  51.1463976  74.7822046  41.9411945  50.2188301
  74.5246363  41.3963127  51.6072655  51.9032288  58.0859995  41.1708260
  52.1597052  58.8014984  41.7526484  51.0557270  58.3565855  40.8176279
  63.4187841  45.2887106  44.1016912  63.4932947  44.7402906  44.8826599
  64.2180967  45.8153343  44.1016817  72.0992804  62.5187922  49.6154881
  72.8301907  62.2353745  49.0662384  72.4272490  63.2956171  50.0684881
  64.9081802  24.3604612  36.3398814  65.2031469  23.5751724  36.8009138
  65.6977081  24.7029710  35.9208751  44.5286322  42.3689938  65.9371853
  44.9700260  43.2107210  66.0507488  44.6637344  42.1501732  65.0151777
  30.6759620  44.9023151   7.6006287  31.1623359  44.4452429   6.9145107
  31.2374401  44.8412800   8.3734483  52.1118927  52.0242167  49.3793774
  52.8687811  52.6070356  49.4400167  52.4549103  51.1612415  49.6114206
  56.6938257  53.2288742  61.4917994  57.2988415  53.9501095  61.3185740
  55.8285999  53.6382437  61.4977837  50.3540611  77.0466137  67.2978497
  50.2641821  77.3647499  68.1961489  49.9254847  77.7148771  66.7630816
  67.6446056  43.5198021  37.6051474  67.1865702  44.2945671  37.9309940
  67.2421646  42.7887678  38.0740428  58.9668179  18.8649154  14.3980384
  59.1759825  18.4529674  13.5597181  58.7831163  19.7779512  14.1770172
  67.5469303  60.7085609  40.0828409  67.2045231  61.1876869  40.8374453
  68.3734274  61.1452389  39.8767924   5.6138837  11.8894231  36.2637615
   4.7759992  12.3499119  36.3099194   5.4312468  11.1121607  35.7358027
  79.8957825  48.2501173  23.9821982  79.1542816  48.5399580  24.5136118
  79.5154285  47.6340532  23.3560753  68.3040571  63.7085724  34.8374844
  68.6574411  64.5974970  34.8032570  68.3465815  63.4694099  35.7633495
  23.7705779  21.3627243   5.5992639  23.0457640  21.9756484   5.7225472
  23.7087655  20.7656169   6.3448334  61.7360830  13.2739651  52.2515059
  62.1710062  12.6573145  52.8404188  60.8120251  13.2284784  52.4970150
  73.1481266  70.7412100  55.7706594  73.3653212  70.7553959  54.8385334
  72.6182699  69.9517250  55.8811331  42.4478436  48.0545187   7.5701803
  42.8724527  48.1676674   8.4205526  42.6187086  47.1420956   7.3366714
  48.2031488  12.9618824   1.8051518  47.6262474  13.2187176   1.0858116
  47.6391029  12.4671853   2.3995920  35.5282664   1.3554983  23.0799699
  36.1387348   1.9235465  23.5499501  34.8034501   1.2249804  23.6913943
  22.5985003  70.5293417  67.4944496  22.2850871  71.3050604  67.0294094
  21.8089318  70.1402092  67.8704643  51.0851097  68.0871105  51.0337400
  51.2401962  67.6091194  50.2190590  50.1367760  68.2144117  51.0599279
  28.5572004  34.0091753   5.7763767  28.9494824  33.2660532   6.2347609
  27.7914166  34.2382741   6.3029891  48.3740282  70.8582783  49.7813988
  48.8873434  71.3605642  49.1485882  47.8973341  70.2201796  49.2505264
  42.0654964  67.8070164   3.2329762  42.8383875  67.4876404   3.6986679
  42.3243523  68.6664820   2.9004902   4.8213661  15.4798245  43.0280733
   4.0477645  15.9632039  43.3181000   4.9964023  15.8135951  42.1481895
  82.1839714  69.6594048  54.0955639  83.0488873  69.4822216  53.7257433
  82.2551060  70.5420732  54.4589710  66.7625189  57.7448463  49.3335199
  66.6920137  57.3801231  50.2157021  67.4596262  57.2363663  48.9191341
  25.0308347  64.5893002  56.9771004  25.1498055  63.6422396  57.0489168
  25.4551649  64.8220539  56.1512661  24.5417786  45.6786442  20.0081611
  23.9161372  45.7540464  19.2876613  23.9990044  45.5261946  20.7817173
  72.7606773  16.7196608  39.8702431  71.8359709  16.6397381  39.6362329
  72.8128338  17.5377548  40.3644419  74.2200136   5.4911894  56.4527321
  74.3522263   5.6677824  57.3841667  74.5829773   6.2581193  56.0096693
  24.1808915  77.6767731  53.2463264  23.6846447  78.4877253  53.3573437
  23.5126996  77.0000553  53.1376600  82.9908657  45.0425911  61.0712624
  83.5069752  45.5459785  61.7009163  82.4996281  45.7026386  60.5821228
  37.1561551  37.9459834   4.4473583  37.5423217  37.0968223   4.2328000
  36.5211415  38.1037164   3.7487102  69.0352106  75.3969717  39.2027235
  69.5430756  75.6111622  39.9852991  68.9134359  74.4486475  39.2483521
  42.9308510  36.8599844  60.6436682  42.6485348  37.5675488  61.2232256
  43.3808088  37.3041534  59.9250031  57.6380730  56.1264706   8.7614518
  56.9290733  55.8556938   8.1781584  57.9099655  56.9812202   8.4272182
   2.7384567  27.3148632  29.4298983   2.4254860  27.1717048  30.3230882
   2.7725950  28.2670093  29.3377924  33.1199884   1.1954793   4.8154339
  32.7272177   1.8978927   4.2971888  32.3998404   0.8606181   5.3497434
  64.9674845  38.4481025  64.9094105  65.0576544  38.6326051  65.8443213
  65.6210709  37.7709317  64.7347879  70.3015232  64.5444584  58.8803768
  71.1128426  64.9033976  59.2397642  70.4494333  64.5179367  57.9350424
  35.0172853  31.2123704   4.6950263  35.8696270  31.3708425   5.1007736
  34.6911812  32.0848179   4.4742849  33.8859606  40.5156326  27.8102851
  33.1208587  40.3357697  27.2639346  34.0479660  41.4519262  27.6947999
   1.1644513   8.6247462  10.1947045   0.7712770   7.7524900  10.1661503
   2.0836732   8.4662068  10.4094791  65.9166479   7.7244025  40.0074053
  66.3750696   7.5021046  39.1970539  65.9346247   6.9174093  40.5218649
  58.1105042  42.1539259  53.6052036  58.3751869  42.8682089  54.1848326
  58.0128622  42.5658131  52.7466869  78.4989405  53.0469847  68.3623362
  78.2979965  53.6658525  67.6602983  77.6452494  52.8114510  68.7256193
   6.1695963  62.7869797  41.7592907   6.8030858  62.4236393  42.3780870
   6.5274578  63.6433744  41.5252876  36.7463970  60.9153461  67.1176195
  37.4456143  60.8765745  67.7701712  36.6254735  60.0067377  66.8418741
  46.8283653  60.0190878  62.2621870  46.0893059  59.9305391  62.8640079
  46.9289923  60.9635878  62.1437836  79.0303755  13.3790398  30.9439015
  78.8643932  13.2597315  30.0087833  79.1596603  12.4918985  31.2793088
   2.4373603  64.0583372  30.1720905   2.3522474  63.3382034  30.7969046
   2.1924996  63.6749315  29.3299079  75.5097628   1.7432301  28.9413667
  76.0151958   2.2052404  29.6101809  74.6656084   1.5683165  29.3573523
  41.9727993  43.8849020  67.2234964  41.6431427  43.2706499  67.8794336
  42.9238939  43.7818098  67.2554255  73.9856434  54.0280771  36.0275626
  74.5227957  54.7547436  35.7118726  73.4092855  53.8192558  35.2924204
   4.1715127  11.7137682  54.1310787   4.4982713  10.8378220  54.3364525
   4.7522146  12.0298278  53.4388876  32.4816251  13.8286352   6.2885761
  31.7482901  13.3269739   6.6446489  33.2200861  13.2199216   6.3079846
  39.2232656  54.6634960  47.1629238  39.6990299  53.9990473  47.6613045
  38.4396625  54.8383665  47.6840925   7.6569510  64.9353695  41.8496752
   7.1590769  65.7132816  41.5982771   8.5486400  65.2554798  41.9862366
  71.4182091  72.3545456  49.3105364  72.2605944  72.8057718  49.2555761
  71.0187817  72.4874449  48.4508657  55.0363493  57.7983952  47.8041077
  55.2643633  58.7123919  47.9739618  54.3202591  57.8439379  47.1705675
  59.4120455  51.0600567  20.1639581  59.4583845  50.9428596  19.2150915
  58.4760380  51.0361528  20.3628159   6.7185646  38.0261970  62.7368164
   7.2802818  38.5750294  62.1895599   7.2390443  37.2399187  62.9014301
   8.2907885  60.5800819  65.3769588   8.6971569  61.4449406  65.4327774
   7.8796542  60.5639601  64.5127010  52.6005650  67.3766088  48.8857746
  52.7596998  68.3163786  48.9737797  53.2949638  66.9667673  49.4016027
  63.4080172  67.9627705  18.2018936  63.7661028  68.5672569  17.5518167
  62.8923464  68.5179567  18.7867677  54.6965551  65.4358673  28.7479997
  54.5404005  64.6973944  29.3366432  55.6287336  65.6289339  28.8480258
  11.5780473  13.8930786  51.6480398  10.7850778  13.4887898  52.0001459
  11.7298913  13.4399843  50.8186531  56.1543751  35.3200054  56.9753838
  56.9957495  34.8641491  56.9982243  56.3425493  36.1881089  57.3320627
  45.7352066  59.9417257  48.8585615  44.9174547  59.5299864  49.1378117
  46.3605595  59.2191410  48.8034296  77.5696993  25.3814077  50.9985304
  78.1371021  26.0001564  51.4583588  77.1117306  25.9140611  50.3483200
  41.1189270  64.0256977  40.6391811  41.4654303  63.8665342  41.5171528
  40.1721334  64.0914345  40.7636356  43.6891985  62.7700281  54.5910597
  44.1468430  62.9726315  53.7751245  44.3643236  62.3974991  55.1582050
  73.7381315  58.7504530  65.3955936  74.6872663  58.6390543  65.3411674
  73.5430908  59.4509125  64.7730589  76.9551945  11.2931180  10.4341006
  76.5490007  10.7596123   9.7510147  77.7286720  10.7951641  10.6986916
  60.1425457  27.4106526  56.2578154  59.8342991  26.5050268  56.2252235
  60.7757759  27.4224448  56.9755268  64.8418236  47.9808855  36.0252357
  65.7232285  47.8636932  36.3796687  64.6452951  47.1500587  35.5924129
  43.1917763  70.5013371  52.4996138  42.4873686  71.0004950  52.9129934
  43.6424065  71.1377192  51.9444704  60.6112957  46.9186831  37.1827555
  61.2788057  46.3009119  36.8843889  61.1050081  47.6109028  37.6224256
  16.7340517  75.6709003   1.3454762  16.3306272  74.8181295   1.1834005
  16.1382914  76.1056089   1.9556621  43.4168816  17.3065364  15.5814815
  42.8804493  16.6755545  15.1015508  44.3006420  16.9399226  15.5533719
  56.9389057  60.4582119  51.4217710  57.0107126  59.6815062  50.8669662
  57.8438759  60.7365227  51.5625000   8.5191834  19.7206461  30.0963020
   9.2212641  19.6824861  30.7458091   7.8303111  19.1612196  30.4550886
  81.5352917  37.0478487  42.6688242  82.4916935  37.0809746  42.6483154
  81.2608910  37.5925088  41.9310665  40.1584101  60.0379562  35.9911013
  40.4034853  60.4738474  36.8072915  39.3590927  59.5575333  36.2067962
  71.3471460  63.2865191  62.0411968  71.6454887  62.6566696  61.3850594
  71.3429928  64.1265583  61.5823364  63.4838581   9.3462771  39.4168544
  64.2768860   8.8621032  39.6468925  63.8043833  10.1564050  39.0203857
  49.9968290  75.6538773  60.3873301  50.1289129  74.7472048  60.6643391
  50.5690289  76.1649656  60.9597015  23.4324598  56.4990091  58.4493494
  22.8395510  56.6414881  59.1871786  24.3057179  56.4941311  58.8413048
  48.7244415  50.7892704  43.0423212  49.0194178  50.7397842  43.9515924
  48.3294058  51.6577721  42.9656076   3.5822448  41.5811634  46.5523577
   3.4040797  42.5092602  46.4002943   3.1869739  41.1355019  45.8031082
  11.7203248  72.1653128  35.7117891  11.8031836  71.7822218  36.5850639
  12.5312328  71.9215918  35.2654028  76.4623022  40.2583885  10.2182722
  75.9222698  39.7508335  10.8240640  76.9428301  40.8676958  10.7786906
  29.0653419  74.5928144  63.1392956  29.5303416  75.3172159  62.7206707
  28.1389594  74.7982359  63.0134106  60.5234575  45.4890347   9.5774311
  60.5413532  45.1777411   8.6724401  60.5837059  46.4415359   9.5043182
  80.1619148  73.2945585  55.3342438  79.2621708  73.1030798  55.0696087
  80.0939941  74.0979147  55.8502293  79.7657204  36.9975686  12.8100812
  80.7105064  36.8852472  12.7051997  79.5197582  37.6139164  12.1202636
  57.6436043  79.1286898  56.0667658  57.7682734  78.6732817  56.8994093
  56.7201614  78.9921331  55.8550072  82.1997070   6.6941500  48.3571100
  81.8775940   7.3575598  48.9673233  82.9644012   7.0976377  47.9464006
  23.2318783  69.9730206  51.0900402  22.5337553  69.5604944  50.5814362
  23.0157375  69.7719431  52.0005798  70.2967405  78.9141703   9.2777842
  70.3451300  79.1468143  10.2050209  71.2007713  78.9726210   8.9686894
  78.5714388  38.2089472  10.7289255  78.4972000  37.4651742  10.1309931
  77.8553867  38.7917614  10.4762852  39.7767115  11.9522858   2.2366741
  39.9444246  11.0909224   2.6189777  40.1386690  12.5706327   2.8713921
  48.3082771  66.8119812  39.2092466  48.3562469  67.0025587  40.1460552
  48.8894939  67.4554634  38.8038564  55.5777884  64.2471552  32.9957986
  56.0313082  63.8373566  32.2591758  55.5635166  65.1795006  32.7795625
  63.5909414  49.1410255  29.9921560  63.9661598  49.4996500  29.1878963
  64.3354797  48.7522173  30.4512000  77.4942255   2.5280347  57.5258160
  76.5742826   2.5464571  57.2620058  77.8947926   1.8746060  56.9524002
  78.5398912  64.8187017  62.8842211  78.5073471  63.8879967  63.1054974
  79.0746832  64.8578215  62.0913172  52.3849726  54.7544813   8.6280304
  52.5721312  55.3211212   9.3764424  51.4338875  54.6472216   8.6407506
  79.5088005   0.3712651  53.0163574  80.3451920   0.7174068  53.3275890
  79.6513033  -0.5726944  52.9466105  19.9490464  10.5990851  41.4752150
  19.3621123  10.2497315  40.8046246  20.8102942  10.6099224  41.0576439
  23.8371730  63.9597702  47.8478956  23.0944753  63.5136223  48.2548141
  24.5922399  63.4116888  48.0616999   4.9383312   3.4747019  56.8550158
   4.5021534   4.2679137  57.1661377   5.8688009   3.6360109  57.0113420
  42.5621080  19.8033750  48.8063335  42.7704382  19.4329846  49.6640301
  41.7415571  19.3792784  48.5551977   8.9428055  75.1939535  13.5933661
   9.3885875  74.6310186  14.2263114   8.4817857  74.5861101  13.0152464
  12.2433877   2.9574835  12.9479480  12.5577867   3.6660889  12.3864651
  11.2929261   2.9660723  12.8348958  53.7079096  50.7171106  40.6420898
  54.1005611  49.8806190  40.8917665  53.7644529  50.7325554  39.6866846
  38.4541941  60.5148745  14.6072841  39.2051554  60.1655960  14.1273916
  37.7695203  60.6090879  13.9450324  58.2618380  45.2056408  65.2926970
  58.9764500  44.8076010  64.7955847  57.7656460  45.7028627  64.6424675
  21.2546253  28.9672995   1.1161040  20.8764529  28.0890155   1.1589629
  21.1196208  29.2422080   0.2092238  46.3743687  49.4681644  41.3416958
  47.1653175  49.7470522  41.8030500  45.6633615  49.9333000  41.7825460
  44.1769314  78.1542873  44.5737123  44.5495415  77.4996758  43.9830542
  43.3518648  78.4080887  44.1600895  79.9352455   7.5092912  30.2068973
  79.9375391   8.3757591  30.6136656  80.4176712   6.9553232  30.8205867
   7.4244773  71.5213251  58.6906481   7.7504361  72.0382500  59.4273758
   6.7743510  70.9353685  59.0782404  45.7121849  66.3350582  48.6215878
  45.9355974  66.5659761  47.7199268  44.8352480  65.9561062  48.5615158
  55.1786995  73.5567236  19.6608257  55.0979805  72.7175617  19.2074740
  56.0782862  73.8356638  19.4900370  54.8367977  72.0845413  27.2657251
  55.2676439  71.6060925  26.5574217  55.4891205  72.1150875  27.9655623
  70.4204369  16.1072326  54.8356295  71.2931967  16.4133406  54.5890045
  70.2571440  15.3600872  54.2600107  76.3973570  68.7332439  56.1467075
  75.4991102  68.5499716  55.8713961  76.9337654  68.1328344  55.6290150
  14.2659402  21.1439276  55.6986666  13.7670016  20.3833604  55.4006243
  14.8013318  20.8117628  56.4192581  70.8304644  66.7658520  56.5239525
  70.7678938  67.5557327  55.9869194  69.9288607  66.5847683  56.7895603
  83.2367229  51.9207001  56.2673998  83.6868668  52.2650433  57.0387840
  83.8875484  51.3651705  55.8383942  50.0784731  36.0928130   2.5722498
  49.5614004  35.2978587   2.7022928  50.1216793  36.1976242   1.6217870
   6.1367077  53.1096983  20.7065940   6.9655013  53.4485006  21.0450387
   5.6392807  53.8910437  20.4651403  47.1012878  53.0192089  49.4911146
  46.3717461  53.6378384  49.4550323  47.6782465  53.2872963  48.7759399
  42.5223160   8.6668998  49.6586561  43.2294130   9.0374935  50.1867676
  41.9630718   8.2149309  50.2904797   2.4271697   3.0562106   9.9383390
   2.8293991   3.5391214   9.2163688   2.0707008   2.2674333   9.5296919
  74.1307497  14.8141611  24.3652463  74.5009089  14.8287714  25.2478576
  73.9178610  15.7287431  24.1796398  66.0388136  65.8192444  30.7248664
  66.5027857  65.1593781  30.2095580  65.2303648  65.9786129  30.2377820
   4.5712900  50.0044727  51.5496588   4.0876853  50.2560949  50.7628632
   4.9312568  50.8265162  51.8826818  28.9198017  71.2109613  57.2120762
  29.1034603  72.1385002  57.3609924  28.8135028  70.8439350  58.0896997
  42.1602106  53.0495739  68.2769346  42.8063440  53.2006407  67.5870657
  41.3524008  53.4343719  67.9369211  62.1841955  53.9932919  44.1785479
  61.7995214  53.1475401  44.4086790  61.4490223  54.6057415  44.2042446
  69.2571020   1.4724600  24.3455839  69.3894863   2.0078979  23.5632706
  69.8809385   0.7525913  24.2515039  72.6673317  72.7058315  34.8002243
  72.8485537  72.4682999  35.7096004  73.0610991  73.5720301  34.6958995
  79.8060226  29.4254732  56.2296486  79.5090961  30.3073335  56.0051775
  79.0998030  29.0640378  56.7652321  29.3759179  72.7882004  10.8538663
  29.9632740  72.6800013  10.1058435  29.3254828  71.9168282  11.2467968
  45.5197906  36.9913530  68.0971336  44.8420238  36.8595409  68.7600708
  46.2928438  37.2579575  68.5946655  62.4583387  71.8480921  26.3941455
  63.3986902  71.6753674  26.4403701  62.3478460  72.6914024  26.8332934
  65.1017284  76.8076563  44.1571999  65.3966808  75.9274530  43.9237881
  64.5771503  76.6826248  44.9480295  45.0209427  55.0538301  49.8908520
  45.5479050  55.8098793  49.6321249  44.1598034  55.2194977  49.5071554
  80.7294655  61.4647055  65.3033209  79.8895025  61.8094015  65.0002003
  80.6217384  60.5139494  65.2770042  21.0206461  72.0559263  21.9747210
  20.1537490  71.6774702  21.8281221  21.6287088  71.3395405  21.7922926
  51.2455797   2.2473557  58.4678555  50.8816957   3.0631590  58.1239271
  50.6441736   1.9931647  59.1678047  71.9579506  65.0985765  51.1063337
  72.8975773  65.2801085  51.1259937  71.6561556  65.3018904  51.9916677
  64.8517227  39.7999811  48.5124016  63.9564466  40.1380157  48.4912300
  64.7585869  38.8639855  48.3350134  68.8013172   8.6143595   8.7598872
  69.4105530   8.3556461   8.0684131  69.2835808   9.2618597   9.2740840
  13.1417918  74.8315668  49.8484659  13.5744727  74.3035269  50.5194330
  13.8600504  75.2360964  49.3619585  20.0891137  16.6060829  68.7444639
  20.4493880  16.5570378  67.8590107  20.1704264  15.7155144  69.0857935
  81.8201065  15.1570797  51.2475157  81.4509964  15.9609354  51.6133118
  82.1104908  14.6578586  52.0108557   7.6219326  12.5708163  45.2229261
   8.1578344  12.1057522  45.8653879   7.2020602  13.2707405  45.7229710
  51.1974955   6.9612855  10.9278965  50.9067488   6.5422481  10.1178932
  50.4744053   6.8262017  11.5403688  73.8197660  56.8689537  62.9959774
  73.4718990  57.0525503  63.8686228  73.0859470  57.0381975  62.4051285
  72.0500898  68.6278629  16.7813170  71.5109253  69.3800735  16.5369570
  72.4553442  68.3470297  15.9608698  68.6728573  43.8570023  61.4144945
  69.0572691  43.9604282  60.5439997  67.7279472  43.8702774  61.2621689
  10.3219962  65.0129128  42.8159952  10.2506995  64.1373730  42.4357557
  11.2083173  65.2987099  42.5946617  70.8161402  69.2729568  35.1161957
  70.7780552  68.8652849  34.2509890  71.1997128  68.6017036  35.6805730
  31.5338612   0.0708171  51.2033796  31.3800693  -0.1492990  50.2846146
  30.6667495   0.2871738  51.5462208  40.5082703  24.7454190  10.7337701
  40.1539373  25.6254244  10.8613324  39.7360182  24.1852546  10.6558120
  68.8343620  47.1576595  29.7059941  68.7317038  46.2475872  29.4276762
  68.5988283  47.1524191  30.6337500  26.8529606  34.3194771  61.3455153
  26.0133767  33.9116454  61.1333752  26.7711067  34.5717168  62.2652435
  13.0447948  70.3219175  62.7816439  12.2106123  69.8725653  62.9174757
  13.3098960  70.6045628  63.6568928  46.4362049  60.0263405  45.8224678
  47.3892784  60.0283003  45.9112072  46.1608601  60.8715296  46.1775398
  25.1855803  34.1313267  18.9908814  25.9564281  33.9355159  19.5235014
  24.7665787  34.8670840  19.4373441  29.7133017  24.8325515  47.3429918
  29.4093823  24.1493940  47.9406166  28.9772391  25.4413176  47.2809458
  12.9070294   8.7407863  55.7038260  13.4609985   9.3918377  55.2731514
  12.4266791   9.2361969  56.3672018  80.4409218  46.1348820  36.0753679
  81.3541603  46.0518885  36.3498211  80.3615761  45.5450583  35.3256702
  38.8525176  54.4811201   0.6861592  39.7326756  54.3558884   1.0409350
  38.9824748  54.5446348  -0.2600483  67.4866295  64.4248533  28.6028218
  68.3103848  64.7573709  28.9593124  67.4572039  63.5095692  28.8814378
  70.1412582  70.4039288  25.5559158  69.6784496  70.2298117  24.7363305
  71.0186195  70.0477505  25.4158759  62.4396086  60.2238321  23.7359166
  61.6221476  60.6554317  23.9843345  62.9975128  60.9330940  23.4166551
  59.6481848  48.3140707  61.3021898  59.5731354  48.7131643  62.1689796
  60.4458332  47.7870464  61.3494110  80.6743050  34.0333295  43.0108356
  81.2052822  34.8197007  42.8847027  79.9259377  34.1533351  42.4262094
  31.1183619  20.9849954  11.3306618  31.5749979  20.9628868  12.1716297
  30.2159476  20.7455754  11.5417528  26.6527677  63.7466812   1.5998630
  25.8227682  64.1618729   1.3654405  27.2937584  64.1424799   1.0093506
  37.8454423  69.8748779  58.3066607  37.3578000  70.6985426  58.3029175
  38.7422848  70.1284933  58.5247993  66.7295265   8.1867599  25.2913141
  66.1476612   7.4747705  25.0253534  67.5191116   7.7461529  25.6054068
  18.4115541  10.0203514  44.2321444  18.5546863  10.5815828  43.4700632
  19.2576563   9.5982432  44.3810320   7.4699003  77.1140337  58.2320976
   7.3040253  77.3457003  59.1459036   7.8731793  76.2469530  58.2742357
  81.3374615  10.9041619  37.5037551  81.9012833  10.3002632  37.9871225
  80.6174946  10.3584290  37.1874428  68.7755966   1.8176325  13.5552168
  69.1996241   2.6436734  13.7877846  67.9021597   1.8795909  13.9418662
  42.9497576  55.8389997  48.5235834  42.2482109  55.4915142  49.0743303
  42.5328493  55.9984016  47.6768208  49.3528080  62.5193214  19.9293435
  49.4509315  61.6048765  20.1946616  48.4293795  62.7164888  20.0863051
  13.8872874   3.9047545  19.9751973  14.0345883   2.9601729  20.0231528
  14.3149173   4.2538524  20.7571793  63.6050797  59.6494913  37.2210336
  64.2448568  60.3247023  36.9951963  64.1326475  58.8740730  37.4124050
  -0.0456091  70.9860086  32.6225948  -0.5061575  70.3253365  32.1052551
   0.7357268  70.5363655  32.9444075   8.2748783  24.6015978   3.5460049
   7.3607475  24.3839359   3.7282681   8.7242085  23.7565207   3.5325357
  67.9339170  53.4455061  16.6272855  68.8112831  53.2290936  16.9429302
  67.4024010  52.6828480  16.8554699  31.1792016   5.4940969  57.1771765
  30.5522537   4.8771262  56.7996645  31.0132742   5.4579008  58.1191874
  25.5097389  43.3367205  33.3638144  24.9324679  42.6593065  33.7160873
  26.1197758  43.5260344  34.0767288  19.5957375  19.5321035   9.7192073
  18.6865497  19.7328734   9.4971675  19.9405372  19.0922213   8.9421302
   7.9445797   8.1599659  22.4279976   7.3522186   8.1381547  23.1795716
   8.7468249   7.7436745  22.7431726  77.2733593  72.1107626  30.3639817
  77.3335409  73.0473852  30.1759791  78.1831837  71.8177176  30.4147315
  24.3350983  52.9008102   9.0504849  24.4083214  53.5886288   8.3888394
  24.4495988  52.0855522   8.5621464  53.9902258  41.3329697  52.7285433
  54.1337776  41.2465096  51.7861271  54.1988230  42.2474003  52.9196978
  52.0463085  47.8679943  45.7023048  51.8901014  47.0794153  45.1827192
  52.2211647  48.5508013  45.0546694  71.3232565  71.2182474  66.1460781
  70.5433130  70.7798576  65.8058739  71.7403841  71.5988731  65.3731871
  17.5242984   8.3520526  66.1108208  18.4011745   8.0353671  65.8939552
  17.6553547   9.2660248  66.3632345  73.6522961  36.5521193  35.2538633
  74.2717123  35.8256459  35.3230691  72.7918148  36.1329722  35.2427936
  22.8951359  73.6056137  18.8529778  23.8523078  73.6013269  18.8472545
  22.6487064  73.0449581  18.1173360  31.6835308  48.2348013  14.8430336
  31.6182184  47.7026129  15.6359673  32.5650311  48.6064291  14.8759329
  44.5159149  28.4126139  15.9757233  43.9843798  27.7271318  15.5709815
  45.3010798  28.4602737  15.4303086  24.8701882  35.8455658  46.6601801
  25.1105857  36.7320180  46.3906574  24.8757935  35.3385663  45.8483028
  57.3142195  47.0009470  60.5290413  58.1966686  47.3706198  60.4997826
  57.4292660  46.1375666  60.9259939  72.3967648  71.6448545  63.6524487
  71.8674374  71.7869091  62.8676796  72.8934574  72.4564600  63.7564850
  72.9038000   3.3100390  35.9147716  72.6226139   3.5961619  36.7838526
  72.0891380   3.1917781  35.4263306  11.7722154  25.0001693  17.4972868
  12.5632286  24.5065618  17.7138078  11.5635478  25.4814458  18.2979500
  52.1396446  58.8924980  57.4491930  52.0935726  59.4010735  56.6395855
  52.9122019  58.3379889  57.3400736  15.8310664  15.2020597  11.2129581
  16.6265130  14.7381532  11.4742756  15.1798570  14.5111418  11.0913455
  59.5126009  55.3302908  40.4524612  59.4772720  55.3829098  41.4075613
  59.4054842  54.3988276  40.2597761  66.1994314  64.0912724  56.7446947
  65.7409811  63.2710791  56.9272804  65.5458927  64.7718954  56.9055367
  64.4498777  71.0347986  40.7456017  64.6825695  71.7621851  40.1685429
  65.2272463  70.4763317  40.7524014  48.5674047  71.1857796  67.8754139
  48.9015532  71.5212917  67.0435429  49.2000628  71.4880323  68.5270405
  80.5749512  68.6625099  45.3602028  81.0157490  67.8217173  45.2377272
  79.7682285  68.5864687  44.8506451   4.4947606  14.8008811  54.1655111
   3.8724643  14.1310692  54.4489384   4.9576056  14.4014847  53.4289742
  27.0942426  25.1033044  51.5897083  26.1481452  25.0995708  51.4443922
  27.3432970  26.0250664  51.5222025  42.2162247  16.9715202  31.7264605
  42.4359083  16.2175775  32.2737646  42.6290131  17.7149343  32.1659732
   5.2372712  71.1933613  41.8190622   5.8079660  71.1623812  41.0512209
   4.5957685  71.8733740  41.6134071  80.9805584  60.6513548   0.6936231
  80.1527977  61.0129452   1.0103125  80.7366085  59.8263311   0.2740328
  43.3528328  19.2956448  51.7119408  43.1242085  19.0594161  52.6109171
  43.4223223  20.2502227  51.7254257  17.0002985  15.7243109  57.7680731
  16.9850218  15.3892124  58.6645699  17.7449942  15.2826250  57.3599386
  71.7269611  18.4114134  44.7190762  71.1223793  17.7859616  44.3196726
  72.3694181  18.5946834  44.0335894  42.1771765   1.0578795  18.6788201
  41.5378475   1.7701209  18.6644518  42.3460627   0.8689721  17.7557695
   9.2467189  20.2045012  41.9025803  10.1717043  20.4413176  41.9700527
   9.2398089  19.2487133  41.9541168   9.5855486  16.4302027  38.4878135
   9.6041375  15.8618617  37.7178288   8.9634472  16.0093391  39.0811896
  10.5347967  20.8849144   0.2238205  10.8977020  21.5604520   0.7966918
  10.6031013  20.0771713   0.7328548  29.4538140  24.3030119  11.9022381
  28.8953662  23.8024473  11.3074243  29.2568469  25.2181721  11.7024446
  50.3627062  77.5487232  19.1290760  50.6416416  78.4206057  18.8493478
  50.0600481  77.1249294  18.3259392  76.3125467  50.9919930  19.1184425
  76.5777922  51.6491365  18.4749842  76.0877991  51.4982367  19.8991060
  19.6950734  25.4171157  43.4205389  20.0176620  24.5222807  43.3135939
  19.7735584  25.5894732  44.3588161  22.1144032  24.7425747  24.4674945
  22.9814529  24.9140859  24.1000175  22.0029449  23.7953591  24.3863010
  41.0169077  23.7122440  18.4179604  40.3749275  23.7095118  17.7079713
  41.6917801  24.3261361  18.1282759  67.5910902  22.6105714  29.9571657
  67.0857668  22.1875167  29.2629743  66.9308758  22.9967928  30.5326438
  81.0886097  11.7415404  34.7120595  80.3277493  11.1668301  34.7959399
  81.7480850  11.3510680  35.2855134  72.8940153  23.4002161  35.5913258
  73.8397932  23.4967017  35.7027936  72.7971554  22.9306889  34.7628355
   5.9971762  22.1343446  25.7259965   5.5760020  22.9527140  25.4630995
   6.2453210  21.7169189  24.9011254   4.8897141   1.5300490  28.7828231
   5.0605434   2.2338402  28.1569433   4.3330663   0.9148572  28.3054185
  28.6264277  52.5014687   3.0840588  29.2560577  52.0395088   3.6375844
  29.1239762  53.2293415   2.7113903  26.7290878  24.5075440  47.6003790
  26.6108012  23.6991072  47.1017075  27.2321510  24.2425489  48.3704042
  18.8842189  58.8425970   1.6553825  19.8045063  58.7274122   1.8921015
  18.5006571  57.9711723   1.7540185  21.4427114  33.0069566   1.2574637
  22.2719431  32.6976037   1.6220285  20.7817721  32.7177477   1.8865490
  63.4833288  38.9455438  12.9717636  63.8013744  39.2213297  12.1121013
  62.8552580  38.2484651  12.7824581  31.6991234  73.0885935   2.3720653
  31.1546731  73.1611013   1.5881342  32.5107527  73.5412312   2.1426947
  53.5129309  39.4943190   7.2822267  53.9017296  39.2093968   6.4552510
  52.8680992  40.1547527   7.0287496  78.0558634   7.3419148   4.8091239
  78.2100010   6.4126647   4.6389234  78.6352730   7.7967036   4.1978243
  23.7191677  13.7105739  46.4342737  23.6717272  13.9686656  47.3548031
  22.8167772  13.7730551  46.1211967  61.3628721  54.0281868  63.6437178
  60.5947113  53.4890366  63.4553528  62.1034002  53.5062885  63.3347273
  66.0468769   0.4062577  22.4374604  66.0828018  -0.3049809  21.7978644
  66.7443991   0.2033069  23.0607653  16.1987996  66.1521530  53.4654093
  15.2966332  66.3842916  53.2453156  16.6938949  66.3305902  52.6658630
  79.2031431   0.8012559  15.3998911  79.1469049   0.7472762  14.4458699
  79.1910887   1.7397508  15.5878103  63.8655424  66.9816542  43.7047625
  64.2388344  66.9410419  44.5852375  63.3511353  66.1783314  43.6254168
   8.8203031  33.2840323  51.7161322   8.7649310  33.4562421  50.7761812
   8.9537585  32.3382640  51.7789030  59.3252087  47.8553343   8.8288653
  58.4056902  47.6469803   8.9941180  59.4504786  47.6654005   7.8990990
  10.4810572   5.6706268  58.6159801  10.6028867   5.1573342  59.4146776
  10.0276327   5.0775176  58.0169296  25.9452605   8.9502096  45.5536461
  25.2822208   9.6345121  45.6449604  25.9276223   8.7221199  44.6241856
  33.5452032  68.4316683  29.9207401  33.0960727  68.7524891  29.1387010
  34.4185877  68.8203001  29.8717403  48.3868265  51.7140198  33.9516830
  48.9955235  52.4511766  33.9998794  47.5405073  52.1148205  33.7533450
  69.1730452  22.3138475   6.1143237  68.9361477  21.7320108   6.8365264
  69.1155100  21.7626095   5.3339028  33.4587431   4.4448918   4.7536346
  33.0619335   5.2889431   4.9689254  34.0177560   4.2445871   5.5043781
  27.0874548  10.3801060   4.7454655  27.9930830  10.4167581   4.4376856
  27.0974088  10.8554423   5.5762410  63.7120342   5.0226325  58.7168312
  64.1088963   5.8701503  58.9179420  64.1732073   4.7219843  57.9337835
  65.2156734  64.7372627  33.0519843  65.5040836  65.2476835  32.2953320
  65.4267359  63.8317394  32.8245783  38.5900807  20.5912185  26.2327194
  39.3564034  20.0244474  26.1446714  38.3039761  20.7486629  25.3329492
  79.3371344  17.0557451  52.1089172  78.6966133  17.3321700  51.4535093
  78.8186979  16.6042054  52.7749252  11.7710555  33.6706209  60.3138304
  12.1548092  33.1320333  61.0058498  10.8727860  33.3503795  60.2314281
   9.7281510  11.8971920  35.6158233   9.2611718  12.2064710  36.3920379
   9.0935314  11.9831622  34.9044180  19.1672778   9.5388371  50.0772667
  19.3080759  10.4673314  49.8920441  19.4251168   9.4355524  50.9932804
  73.4364319  70.7158470  53.0722904  73.2163191  69.8011303  52.8959846
  72.8258228  71.2175179  52.5321817  68.9150333  67.3803616  27.7561450
  68.2158422  67.2320509  27.1194625  69.6689796  66.9123602  27.3972893
  68.0072451  66.5048981  56.2624788  67.6024961  67.0634317  55.5988121
  67.2839832  65.9827471  56.6095877  49.6166468   5.1459652  43.9853573
  49.0325260   4.3930802  43.8947964  49.8414755   5.3842258  43.0859566
  64.6819639  23.3062077  40.3448391  65.4401302  23.8721037  40.4903555
  64.8325443  22.5526023  40.9154844  55.9659719  66.8629122  31.8726230
  56.0731030  66.2471199  31.1476660  56.8508148  67.1834993  32.0473051
  22.3850775  67.1913242  61.2193918  22.0705247  66.9413471  62.0881844
  23.3069110  66.9335699  61.2151003  42.0195198  75.2018833  31.4785933
  41.7565203  76.1196184  31.5480328  42.9620886  75.2095842  31.6451192
  79.8213768  73.7747383  16.2273192  80.6265831  74.0843439  15.8125639
  79.5683575  73.0065155  15.7154119  23.3642197  32.3456383  48.4991074
  22.5997615  32.4418998  47.9311562  23.0215120  32.4668670  49.3845940
  11.4140379  15.5929971  60.1869535  12.3327196  15.4422343  60.4095030
  10.9968233  15.8042228  61.0221434  11.8942499  56.6873837  43.5986900
  11.5758932  56.4720631  42.7220392  12.3011005  55.8791828  43.9109707
  64.7751951  37.7533340  24.7482204  65.7181072  37.6332736  24.8610306
  64.3858433  36.9697618  25.1363611  43.3666945  18.4448779   5.1507676
  43.8554144  17.8790665   4.5530698  43.7735081  18.2992041   6.0048831
  17.1721923   2.7631715  27.0023298  17.4548864   1.9277909  26.6302323
  16.2387323   2.8134015  26.7965126  77.0152807   2.9315385   3.0617863
  77.3153210   3.2814860   2.2228906  77.3328686   2.0286179   3.0720070
  33.3130908  30.2814412  14.2553830  33.6758327  29.5745420  13.7215793
  34.0720510  30.6603670  14.6988118  55.8349419  17.7042735  46.6177225
  55.2819824  17.2124219  47.2248030  56.4564514  17.0580196  46.2825966
  15.0826800  77.4858141  43.8728285  14.7740531  76.9647789  44.6141148
  14.2955303  77.6560450  43.3554840  79.3762541   1.9709602  42.6085615
  78.5101652   2.1387617  42.2371244  79.6274471   2.8004748  43.0148077
   5.9713513  51.1424351  28.3054352   5.5484980  51.2330961  27.4514985
   5.7169199  51.9315958  28.7836838  71.1776304  36.8510008  54.7686052
  71.1866808  37.2038388  55.6583548  72.0924902  36.6359282  54.5869207
  28.1196785  29.9667287  13.8454592  27.8050280  30.8286643  13.5728872
  28.9676905  30.1396275  14.2543769  64.7267246   6.6505706  48.0312634
  64.1383791   7.3819625  47.8437996  64.5474577   6.4269948  48.9445591
  68.4901667   5.5773854  16.5161872  68.2530355   6.4785308  16.7351317
  67.6655006   5.0939453  16.5656757  32.3489380  10.8426619  31.0346365
  32.3627138   9.8874301  31.0944152  31.8304825  11.1224031  31.7890763
  81.7046738  68.8543797  62.6749659  81.9877052  69.3136835  61.8842888
  81.3179970  69.5371771  63.2231426   5.5315769  59.9450111  33.3722281
   4.8980212  60.3661871  32.7913237   6.2835139  59.7570658  32.8105354
  42.9699993   1.8171154  62.2967243  43.2846069   1.5749556  63.1677103
  43.7371063   2.1861652  61.8590260  24.8806024  79.1838026  18.6323082
  24.3562078  79.8691320  18.2181072  24.6299314  79.2154646  19.5555592
  53.7517118  19.1055000  12.7442110  54.4075441  18.4174860  12.8571582
  53.6827374  19.2173231  11.7960703  73.3133507  71.3613749  67.9248524
  72.5723839  71.4649487  67.3277950  74.0842962  71.5150595  67.3787308
   6.1630428  71.7794752   0.4621037   6.6710079  71.0753775   0.8651546
   5.2527332  71.4949989   0.5435942  18.7367404  38.9147401   1.3228907
  18.0427599  39.1298699   0.6997201  18.5618758  39.4751000   2.0789668
   7.5348354  79.7240638  42.9397821   7.9808331  79.3087947  43.6779356
   7.8689647  79.2650987  42.1691084  10.6741452   5.9355277  38.3878160
  10.0209165   5.5265039  38.9554620  11.4919245   5.4861629  38.6012149
  -0.0708664   2.8698367  45.0150251  -0.2446856   3.4740311  44.2932415
   0.8838528   2.8380117  45.0760984  40.0152874  14.5997012  44.9733210
  39.1289735  14.6930242  44.6240711  39.8899794  14.2412567  45.8519793
  41.0483217   0.0633234  64.8470354  41.0427141  -0.3283874  63.9736748
  41.1746407   0.9989166  64.6891069  59.2764568  40.1137543  24.6048808
  59.0117359  40.1354790  23.6852717  59.3412066  39.1818190  24.8135304
  43.4402657  -0.1402870  40.4429150  43.1047773   0.2972403  39.6604514
  43.1568575   0.4160019  41.1684847  13.6701119  51.9204903  11.6751337
  14.2744243  52.1871185  10.9823513  13.2202315  51.1544228  11.3187969
   8.8361287  32.5624609  20.7049417   9.2318422  32.1584129  21.4772034
   7.9012537  32.6003623  20.9069419  14.9089921  26.5953946  39.9508953
  14.8426604  26.5948296  38.9959955  14.0307271  26.3627148  40.2521324
  76.4292192  62.2895193  65.7089758  76.7264462  61.6949940  66.3977623
  76.2627602  63.1163359  66.1616325  47.3311138   3.4671146  50.5645037
  47.6202536   3.2990614  51.4613819  48.0067492   4.0375465  50.1979542
   2.4413888  72.7789974  21.9040966   1.5088695  72.7425051  21.6912389
   2.6607144  71.8869829  22.1732354  46.2269783   7.7784967  58.5134077
  46.3484144   6.9895512  59.0416622  45.6250858   8.3190274  59.0250540
  35.7642436  31.6971374  24.8395443  34.9822092  31.2972379  24.4591045
  35.4256773  32.3605990  25.4407287  80.0032806  25.1608706   2.2696880
  79.4165802  24.7954941   2.9318917  79.4222021  25.6136370   1.6584727
  75.2181768  49.5969486  27.0864868  74.2738247  49.7485781  27.0484900
  75.3687906  49.2426157  27.9628420  14.8601568  66.7565632   0.4795284
  14.1940749  66.1565828   0.1439808  14.3613815  67.4607182   0.8937978
  67.7778625  75.2330923  14.1478932  67.5043249  75.9109926  13.5299456
  68.4692574  75.6457281  14.6655154  25.7755780  32.3717594  38.1548572
  26.5640974  32.3965716  37.6127768  25.4034925  31.5041137  37.9968309
   6.7920816  62.5609875  33.3650446   6.0752571  62.0546293  33.7471390
   7.5307924  62.4136782  33.9556694  75.2271318  60.8859158  23.5938168
  75.0323009  61.0854387  24.5094943  75.2145052  59.9298429  23.5490799
  31.9541287  23.0436563  37.8489447  31.2341356  23.6565614  37.9979110
  32.3384905  23.3230734  37.0180273  35.0529385  28.8322210  58.9384794
  34.6251273  28.1882644  58.3740902  35.4928517  28.3088470  59.6083927
  67.8747606  43.5326910   3.5238892  67.3260450  43.9382029   4.1952339
  68.1561995  44.2622089   2.9717767  12.0078576  71.0859489  47.0225048
  11.6400802  71.5090847  47.7983475  11.9524682  70.1492548  47.2116089
  49.9285078  14.2120850  16.2000835  49.1804314  13.7207580  16.5395117
  50.5058193  14.3216991  16.9556797  19.4972289  60.7576132  57.4027681
  19.1627157  61.1193848  56.5821266  20.2828288  61.2719250  57.5886345
  33.7455058  18.7508798  36.8747544  33.6739087  19.5628870  36.3730049
  33.7446761  19.0335524  37.7892637  60.4145908  54.7191143  22.2539926
  60.7348776  53.9253712  21.8254852  59.6055508  54.9324894  21.7890644
  31.7311502  25.2163672   8.7702465  31.8867254  24.3562865   9.1604871
  30.9575796  25.0933719   8.2200718  28.8932586  65.5710030  32.6122522
  28.5433388  65.0920868  33.3635354  28.5469985  66.4578772  32.7111673
  32.6531172  78.9762163  50.9279776  33.0473900  78.2123137  50.5069828
  32.9624081  78.9372063  51.8329906  13.0040097  56.5510941  19.4135642
  13.2768643  56.7876434  20.3000307  13.8233459  56.4591408  18.9272869
  78.9188957  57.4265051  66.4834070  79.8219442  57.4097872  66.1664629
  78.9970493  57.6088572  67.4198198   1.8184832  61.9681263  31.7797470
   1.1564221  62.5174618  32.1994328   2.1642666  61.4258814  32.4887156
  11.3499022  37.0381355  21.6981721  10.6149495  36.4442778  21.5451741
  11.7547977  36.7156529  22.5033426  78.8055849  20.7226515  22.7117991
  78.8218975  21.1467195  23.5697794  79.5321131  20.1000166  22.7385187
  28.7176633   2.4826863  63.5134935  28.7081385   3.1655911  64.1841507
  27.8050017   2.4079888  63.2347488  20.6095099   5.2332431  12.0321035
  21.4678335   4.8359925  11.8847716  20.8008146   6.0582829  12.4781346
   7.2687268  24.2609406  31.1908054   6.7327482  24.8437858  31.7286253
   8.1659067  24.4241285  31.4817858   3.6407891  26.0125184  36.4072371
   3.9091262  26.9057488  36.6225624   2.6870525  26.0585403  36.3401484
  24.0794611  74.1429853  36.2982130  23.3064580  74.1618204  36.8624306
  24.3119574  75.0639200  36.1796665  52.1581125  15.7459259   6.2670422
  51.3617086  15.2178407   6.3226962  52.2264528  15.9794319   5.3412795
  20.9321880  55.2038479  27.2122741  21.5243030  55.8630753  26.8502593
  20.7544184  54.6136093  26.4799833  63.6268854  32.8513527  24.5805120
  63.6527109  33.4577823  23.8403702  63.0262184  33.2597542  25.2039242
   6.6571015  49.3376160  55.7562780   6.0849988  48.7020636  55.3261566
   6.7529082  49.0075064  56.6496325  26.5772080   5.6291336  30.8322668
  26.4404273   4.7592613  31.2075591  27.1099544   6.0888731  31.4811516
  15.0814271   5.5725664  57.7028418  14.2768550   6.0548836  57.5124073
  14.8909593   5.0992918  58.5127592  27.6513720  49.1231060  12.0680571
  28.0674028  49.9832296  12.1258092  28.3214760  48.5118961  12.3740220
  26.0876822  65.6434870  65.8688974  26.7508650  65.8358765  66.5317774
  25.3223610  65.3622723  66.3703346  72.0076990  75.4773235  30.6857753
  71.8128252  74.6974611  31.2054634  72.2949314  75.1353455  29.8391485
  82.5574017  77.0587873  32.1790957  83.3590984  77.5523186  32.3521423
  82.7137852  76.6363668  31.3345027   5.9257591  52.0769405  48.8256121
   6.1995041  51.1611986  48.7735224   6.7380494  52.5618076  48.9716196
   0.4642908  20.2578878  21.0796213   0.0511900  20.8750606  20.4757380
   0.9595428  20.8099818  21.6847229   9.9458444  45.5016184  32.1046138
  10.5147445  45.6839657  32.8524995  10.5092120  45.0429058  31.4813685
  83.7197018  63.7135363  64.6156597  83.4477901  63.2829046  63.8051987
  83.2714272  63.2270050  65.3074503  68.2341385   4.4215125   0.7311684
  68.3865070   3.4834376   0.8453212  67.6033878   4.6466768   1.4150470
  58.8973475  43.9178038   3.5482839  59.4610214  43.1912374   3.2825676
  59.3403625  44.2999840   4.3058512  16.3871288  19.2662299  46.2487984
  15.5011594  19.5851159  46.4208508  16.8864048  20.0528598  46.0293198
  32.4473381  73.7685347  34.1955090  33.3535218  73.4602404  34.1914010
  32.4850750  74.6286774  33.7772298  19.5463610  18.3491969  37.6927996
  19.0860689  18.5532260  36.8787146  20.4401040  18.6592543  37.5467920
  26.0115504  34.1089964  40.2934265  25.8466649  33.5666680  39.5221114
  25.1899767  34.5790935  40.4357529  17.5836265  37.3879242  41.0123777
  17.2906697  38.0437207  40.3796530  18.5066378  37.2471857  40.8014822
  75.9811783  57.3958540  32.9686522  76.8468523  57.4407339  32.5626659
  75.3698874  57.4185610  32.2324204  23.1429243  32.0048428   3.2911101
  23.7519073  32.5941110   3.7362340  23.6594748  31.6145062   2.5860962
  16.4083469   3.2965663  57.3724318  15.7748985   2.5878358  57.2598457
  15.8882165   4.0966967  57.2983503  66.9197607  76.0260582  26.8060780
  67.4425173  75.3327131  27.2088623  66.1645079  76.1241245  27.3859119
  43.5794640   3.1298336  58.6292791  43.2872248   2.2871801  58.2817650
  42.8228807   3.4662279  59.1095448  68.3562136   5.5010450  43.6408424
  69.0401983   5.1738524  43.0565977  68.5122585   5.0481570  44.4695616
  46.0567236  24.7983193  30.4587960  45.6466866  24.9652457  31.3074636
  46.9955826  24.8807740  30.6260514  51.4872408  77.3575735  25.9625363
  51.8431330  76.5289259  25.6417298  50.5523729  77.3101759  25.7625008
   2.3069888  72.3348665   9.0629476   1.7548627  73.0971479   8.8888472
   1.7031541  71.6742849   9.4024348  67.4572897  37.5087762  25.4064488
  67.8357410  38.2027030  25.9463286  68.0049658  37.4903035  24.6216249
  79.6503401  24.1003847  34.9845862  79.6059704  23.7385631  35.8696556
  80.5634499  24.3681431  34.8807907   7.8462750  54.8990822  54.3124390
   8.4919232  54.2653131  53.9998579   7.1213639  54.8286676  53.6913300
  74.2653990  64.7591925  24.9060297  74.2043161  63.8829613  25.2864480
  73.3631372  64.9859190  24.6807361  40.8853388  63.7785673   5.7336646
  40.1013184  64.0757465   5.2718937  41.3836241  63.2963562   5.0738013
  79.4615030  46.6037750  61.1763859  79.1571188  46.8287277  60.2971935
  79.1562891  45.7069397  61.3133526   9.1400778  31.5291786  23.1643343
   9.3858010  32.2822618  23.7016582   9.7624791  30.8452702  23.4115601
  16.7082560  65.8910656  25.0135636  17.2852802  65.5181265  24.3470860
  17.1616924  66.6808987  25.3081632   1.8289696  12.3871112  29.0831161
   1.2412065  11.6368878  29.1721702   2.6422033  12.1052957  29.5019984
  37.5795913  15.8102918   2.2698015  38.4995008  15.7208240   2.0208153
  37.1665120  16.2282550   1.5142199   9.8599118   7.6250660  18.4057629
  10.1832151   6.7263544  18.4691989   9.1559368   7.5812411  17.7586687
  77.9425669  33.0282021  60.2330112  77.5757074  33.6025858  60.9051180
  78.2984543  33.6258316  59.5754242  37.0788670  61.5376616  60.6961060
  37.9914641  61.5927458  60.4126263  36.8687749  60.6050777  60.6473017
  76.8762350  52.4456263  24.0026999  77.3281908  52.8297091  24.7539973
  75.9780216  52.3129034  24.3057323   5.0191253  48.0897474  26.4062834
   4.6822312  47.2809601  26.7917728   4.4024998  48.2951212  25.7035565
  62.4399328  43.1350183  42.7743483  61.5086651  43.3560467  42.7851200
  62.8549099  43.8207006  43.2976675  28.7735629   8.7008697  38.0593324
  28.6210442   8.3108336  37.1986127  29.4584537   9.3524635  37.9090619
   4.0783179  17.3823738  62.1234274   4.6433043  17.3928344  61.3508272
   3.9047429  16.4542699  62.2806692  83.6125374  25.6481385  32.7820182
  83.6606503  26.3206959  32.1026182  82.7753830  25.8074856  33.2179213
  17.5770581   2.2193818  52.8845835  17.6471114   2.3755838  51.9428158
  18.4466410   1.9130319  53.1418896  29.8485446  77.3601866  62.8179550
  29.0347457  77.5994778  62.3744440  30.0439668  78.1095076  63.3805847
  37.5494909  11.1071670  52.5166941  37.9636216  11.7452276  51.9356537
  37.9645801  11.2526298  53.3668518  12.2570193   1.2025200  17.7075899
  11.9255722   2.0847100  17.5399137  12.9290724   1.3226613  18.3785164
  38.2087469  49.3966150   7.4471444  38.3437324  48.5700750   7.9106593
  39.0851450  49.7736359   7.3696101  21.7645526   7.7407902  67.2119904
  22.1014118   7.0233345  66.6753197  21.6783381   7.3646265  68.0879450
  34.3336201  22.1153021  39.4312477  33.4758329  22.4596858  39.1825891
  34.8954105  22.3066306  38.6802363  30.3282905  24.1703272  24.5759916
  30.7823706  24.8092866  24.0266514  30.6088829  23.3204031  24.2366910
  73.0176973  38.0804467  37.9954934  73.3880472  37.3554611  37.4920392
  72.1062088  37.8283548  38.1433797   1.1360920  50.1299047  51.2927437
   0.2509582  49.9762249  51.6231251   1.6259755  49.3480492  51.5475893
  40.6082726   9.3785810  18.7451887  41.1514711   9.1840422  19.5089412
  41.2139273   9.7650582  18.1126952  52.1679115  14.0807569  51.8150091
  51.3602781  14.5189285  51.5467358  52.1576500  13.2488358  51.3416862
  26.6252613  40.1034546  15.9942234  26.0633779  40.0589561  15.2205706
  26.6794467  39.1991210  16.3032198  60.4448175  45.7131433  59.6423912
  60.4728270  45.1156902  60.3897190  59.5345831  45.6853819  59.3475437
  47.4195528  47.4319267   4.5436230  47.1931601  47.5980043   3.6285290
  47.8101778  46.5580750   4.5389223  50.2258492  17.1939707  36.4706993
  49.5277548  17.0714068  37.1140337  49.9163818  16.7333460  35.6907725
  18.3190155  14.6823478  62.4259090  18.6097097  15.5943012  62.4342060
  18.9165020  14.2350447  63.0252075  76.8603802  60.6776237  18.5354316
  76.1138773  61.2658262  18.6493957  77.1120358  60.4346132  19.4264126
  68.3933783  12.9529393  38.4655094  68.9342356  12.8961802  37.6778007
  67.8573704  13.7347007  38.3321905  50.7454205   3.1605786  31.2215996
  50.1007080   3.2904261  31.9171000  51.3473606   2.5042453  31.5724874
  58.1496191  50.8211088  46.9084549  57.9151535  49.8939276  46.9484186
  57.6141453  51.1731386  46.1974192  12.8799117  53.6445189   4.3465859
  12.8146338  53.4931517   3.4036869  13.8203597  53.6429310   4.5248759
  28.6064506  70.5665922  39.8949075  29.3654370  70.6932020  39.3255734
  27.8938818  70.3400564  39.2972779  78.4224892   4.4146839  66.0925388
  78.7239933   5.2797151  66.3701105  77.5862980   4.2965120  66.5431499
  35.8540273   3.5608304  28.5921693  36.7158890   3.2836044  28.2814121
  35.3683114   3.7716502  27.7947569  42.6598835  19.3517566  54.5907688
  42.6011324  19.2182410  55.5367851  42.6113844  20.3012204  54.4794130
  18.0769670  62.4214077  55.6848621  17.3861039  63.0211210  55.9664345
  17.9210687  62.2992229  54.7483778  34.0518808   5.8412933  36.8318319
  34.4403744   6.3974208  36.1565351  33.1229234   5.8018547  36.6044283
  57.0699930   6.7608666  17.4288309  56.4512444   6.1220211  17.0749104
  57.8260040   6.2387627  17.6973212  58.3206129  19.4003046  56.0833645
  58.6360455  18.4968972  56.0591316  57.3781300  19.3290555  55.9320974
  47.1844339  18.5499275  41.7213202  47.8377295  18.4172034  42.4082136
  46.4750338  17.9478157  41.9459200  20.7145739  31.7395425  16.1555350
  21.3941669  31.3664508  16.7169487  21.1775327  32.3739910  15.6083846
  33.3902001  79.1547728  36.2087965  32.8040433  78.6607599  35.6355619
  32.8142881  79.5277071  36.8762374  23.2035804  39.1379571  34.7162676
  24.0783763  39.5123291  34.6123028  23.0448651  39.1585231  35.6599951
   4.6585509  13.2238185  40.7548285   5.1071501  12.9413509  41.5518236
   4.0596354  12.5058341  40.5498123  12.9691505  16.6324723  37.4681520
  12.0928788  16.6688228  37.8516340  13.0426848  15.7428288  37.1226692
  30.8502984   8.4324867  35.8770347  31.5555215   9.0727055  35.9719729
  30.2895856   8.7938321  35.1905489  82.3618507  76.1613798  34.7993088
  82.3328495  76.1445999  33.8426948  81.8261051  75.4151535  35.0682998
  62.1649647  78.1681681  11.5587687  62.1390390  78.1709862  12.5156140
  62.2843456  79.0873098  11.3196945  70.4963541  45.7419300  25.4971862
  71.2641621  45.1878691  25.6376243  70.8467102  46.6319513  25.4605746
  50.9965944   1.1320299  53.7540531  51.5716791   1.5152602  53.0917501
  51.1893749   1.6239350  54.5522356  25.3902030  14.1878176  55.0407076
  25.3387618  14.9849594  55.5681086  25.1104498  13.4900975  55.6332922
  53.3164549  17.0007229  51.4891624  53.0263805  16.8418467  50.5909109
  53.3796167  16.1284637  51.8782711  34.6567917  13.5023177  42.7248240
  35.0255823  13.2693768  41.8727922  34.1153264  12.7504420  42.9650927
  44.8230553  53.7367201  10.7515907  44.6013260  52.8174114  10.6034780
  44.9700880  54.0918779   9.8749632  82.3419952  44.9750614   4.8927975
  82.7068138  44.2245531   5.3617013  82.8854179  45.0549078   4.1088670
  63.4896231  58.6966991   7.5415748  63.9153671  58.8173008   8.3903563
  63.8904381  57.9048920   7.1829325  18.2343721   6.3668948  29.7742319
  17.5272059   6.4656293  29.1367364  17.8741193   6.7192376  30.5880523
  37.2058606  27.2953868  27.9772639  36.5710926  27.9488063  27.6834226
  37.7077270  27.0787120  27.1915054  51.1201811   6.2872922  61.2332773
  50.5967283   6.8984824  60.7149410  51.4956903   5.6873012  60.5888891
  40.4405880  31.7410517  51.8539667  40.5726528  32.5909305  51.4338541
  41.3237906  31.4385200  52.0653009   0.3461117  77.3034286  41.6693401
   0.2929046  76.3509560  41.5906382   0.4204752  77.6145220  40.7671642
   2.6221550  23.1107259  25.4925990   3.4121177  23.5865211  25.2360654
   2.8746372  22.6369667  26.2850857  46.9729471   2.4453503  12.6926768
  46.8769217   1.6282195  13.1818688  47.2547436   3.0845666  13.3470666
  27.6812243  78.7982607  60.8408165  27.7603507  79.3564749  60.0672770
  27.7100420  77.9057598  60.4960775  44.3947458  27.5960803  49.4945860
  44.4665241  28.2609105  50.1794815  45.2968025  27.3187757  49.3344927
  51.4249420   1.7328298  47.5370216  52.0286036   1.4263935  46.8603230
  51.8924856   1.5861982  48.3592939  37.5217891   6.6383147  43.6883307
  36.9817948   6.7423409  42.9048634  38.3120489   7.1458757  43.5036659
  69.8750544  35.3654337   0.4781714  69.3044996  35.2125597   1.2313821
  70.4742622  36.0535884   0.7673613  59.3030024   7.6803017  36.9942594
  59.6937227   6.8079066  37.0442295  59.7363901   8.0944532  36.2480116
  51.1598444  18.7905216  58.7032938  51.6465330  18.9202416  57.8893328
  51.5611267  19.4006491  59.3221235  46.9894505  45.4188538  54.2816257
  47.8670502  45.3250074  53.9111662  46.4660931  45.7839775  53.5681772
  58.2394361  27.6426792  47.5806618  58.1402826  27.2536254  46.7117310
  58.3332014  26.8936276  48.1691837  19.3072736  42.0517063   1.4400485
  19.4828248  41.5444088   2.2325541  18.4790838  41.7025805   1.1107382
  13.6828542  64.9484825  20.7862425  13.6579299  65.5762339  20.0640678
  14.4339836  64.3882656  20.5908060  31.6531301  21.1063433  62.3328400
  31.3601685  21.7280483  62.9990864  31.4134574  21.5156317  61.5014124
  70.8923006  78.5341358  27.6008081  70.2513504  79.0352345  27.0965099
  71.4771891  78.1610394  26.9413114  62.5263929  25.4943895  46.9726229
  62.4755907  26.4311981  47.1624660  63.4642220  25.3033018  46.9588900
  24.2219806  77.3110819  21.1783290  24.3288708  76.8770552  22.0247483
  23.4061885  76.9539595  20.8273649  29.4663930  12.5666380   5.2055949
  29.7320032  11.9859242   4.4925344  28.9748716  13.2658362   4.7745988
  27.1108699  35.7206011  36.2107062  27.7951097  35.0597334  36.3170123
  27.4084473  36.4607191  36.7397690  20.4200459  74.2244339  53.6786652
  20.5753350  73.2864094  53.7892580  19.5464826  74.3671799  54.0429974
  58.5549593  70.8048820   0.9925012  57.9253197  70.2909040   1.4980811
  59.3242884  70.2396631   0.9225424  73.2592201  25.3949618  48.7930822
  73.2103586  25.7605171  47.9097843  72.3754549  25.5006266  49.1452551
  43.3720922  11.8595099  35.0470138  42.7559185  12.3807037  34.5323157
  44.2085934  12.3150694  34.9523282  73.4725094  26.7624450   7.6178223
  73.2353687  25.8417344   7.7286768  73.9351416  26.9894147   8.4244746
  12.7559233   2.0369020  63.6895227  13.6247337   2.1682227  63.3098459
  12.5034547   1.1565629  63.4111452  69.1219997  15.9844089  45.8131790
  68.9866590  16.5090930  45.0241184  68.4895229  15.2699721  45.7371521
  70.8047628  79.0861368  33.2597208  70.6175280  78.1542444  33.3726549
  71.3172674  79.1313601  32.4525523  38.9147973   9.1464788  32.4938822
  39.1547251  10.0575984  32.6627827  38.1611276   8.9879507  33.0622864
   7.2607589  58.6881065  23.6169124   7.2366548  57.7365017  23.5164094
   7.0449030  59.0262794  22.7478456  30.1518869  30.0418019  29.3062472
  29.9899125  30.8027816  28.7486601  30.4687762  30.4117370  30.1302385
  73.5567904  62.5359821  38.9733243  73.4895754  62.0138884  38.1738639
  73.4788704  63.4421206  38.6748815  68.1262875   4.0508789  32.7852416
  67.1749783   3.9449418  32.7814651  68.3705378   3.9887470  33.7086678
  12.5886798  55.0196457  65.0245142  12.4925518  55.2852345  65.9390926
  13.1711662  55.6771088  64.6441412   3.4577093  57.1835899  33.0845857
   3.4106946  57.9071236  32.4596715   3.9704505  56.5118170  32.6350880
  30.0763226  76.2494135  44.9924707  29.7165537  77.0192814  45.4330397
  30.1929665  75.6060648  45.6915617  38.9214516  20.7039690  57.3405600
  39.1230130  21.6101313  57.5739670  37.9660273  20.6552482  57.3725510
  13.2356977  13.4413195  54.0691757  13.2079124  14.2571592  54.5690393
  12.6788807  13.6074007  53.3085155  77.3789263  77.0286655  57.0334911
  76.8726397  76.3820314  56.5417957  77.4962139  76.6342211  57.8977203
  33.2710290  21.3686657  35.6309128  33.8782930  21.9938016  36.0267258
  33.5907435  21.2583184  34.7354603  21.2294173  67.8037453   7.0651627
  21.1999440  68.7381840   6.8597674  21.1555457  67.3692989   6.2154400
  66.1074638  37.2585034   0.7802138  66.3780069  36.6056061   0.1346413
  65.7552958  37.9796100   0.2584704  33.3101988   8.3797574  54.0465117
  33.2659531   7.9953337  53.1710148  32.4110484   8.3380628  54.3721247
  32.3733926  28.4880304  29.8206115  32.9078436  28.2198596  29.0731645
  31.5394950  28.7563539  29.4348001  49.5557451  24.9896932  41.2014294
  49.0594387  25.6151557  41.7293549  49.9346495  25.5172586  40.4983377
  20.2231598  34.7102594  21.9430614  20.3178906  33.7754655  21.7602539
  21.1063910  35.0004554  22.1709275  68.0613852  77.3488379  37.7411914
  68.2451534  76.5429497  38.2238984  67.9500151  78.0144882  38.4199643
   4.0865734  11.4444733  30.3710341   4.5278251  10.7921767  30.9151268
   4.7908476  11.8515229  29.8665142  64.0380001   0.8465612  39.2792606
  64.2029428   0.3961146  40.1075840  63.1564426   1.2072377  39.3741655
   4.4324398  78.7512159  40.8265018   3.5636574  78.8768339  40.4448366
   4.3389654  79.0389013  41.7346478  45.4730368  39.4249487  56.6955328
  45.1816511  38.9650583  55.9082413  46.1540890  40.0220442  56.3858795
   9.4767392  50.2541113  33.2276750   9.8852777  50.1327610  32.3705864
   8.5470498  50.3754568  33.0348372  24.8196363   0.8456662  26.5306234
  25.0647569   0.9340994  25.6095767  25.4938650   1.3314970  27.0056152
   1.9484137  25.0037527  66.2713528   2.0112260  24.4244552  65.5119467
   1.8613712  25.8805037  65.8972359  26.7806673  28.4744573  27.7344632
  27.6903605  28.4048104  27.4449134  26.7558312  27.9962182  28.5632586
  45.4746008  32.9197454   4.1057172  44.9565554  32.2290683   4.5190296
  46.2960577  32.9295325   4.5969921  58.9385223  12.6578414  45.9919739
  59.4339848  12.4318469  45.2047777  58.0797434  12.9265082  45.6655598
   6.2498289  47.8259325  51.4978027   7.0190912  48.3264399  51.2258434
   5.5664819  48.4848690  51.6205740  68.9484215  62.3278189  32.2669840
  69.8902512  62.1890354  32.1673250  68.8747644  62.9786015  32.9650450
  28.0490470  20.9388065  52.1677113  27.9302192  20.3326726  51.4364719
  27.5103831  20.5749798  52.8703499  27.6158619  44.3867970  29.4576979
  27.8167987  44.4521952  30.3912807  26.6858578  44.1622019  29.4280267
  29.1536164  22.1139097  21.2926817  29.2440367  21.5827703  22.0838499
  30.0452876  22.3981977  21.0918546  14.8868454  37.7405286  40.7762194
  15.8252168  37.6150298  40.6350088  14.5767581  36.8921971  41.0931015
   0.4106246  58.4986258   9.6362442  -0.1910160  57.8755617   9.2287517
  -0.1549404  59.1966581   9.9665761  24.0648079  72.3994160  45.7371426
  24.2114091  72.5664711  46.6681814  23.4013891  71.7096424  45.7191277
   8.9402384  68.7147522  51.3417244   9.8912919  68.8226652  51.3509178
   8.6768562  68.9863968  50.4624796  81.5400982  74.7522211  38.5333514
  81.2299728  75.6549644  38.4618902  81.0290337  74.3795586  39.2517972
  49.6134853  15.5881321  50.3658247  48.9853668  14.9749494  50.7475376
  49.1049385  16.0830545  49.7234344  32.8470445  73.1013870   6.4416552
  32.6086688  72.4493265   5.7826984  33.8021898  73.1471348   6.3987780
  77.7163792   2.9210207  25.1099110  77.9209518   3.8019735  25.4234433
  77.3270369   2.4820343  25.8661747  57.2822571   9.8624778  32.1153355
  57.0028830   9.9155319  33.0293179  58.2028437   9.6042508  32.1608829
  56.8921471  44.6704578   8.5386860  57.5984812  44.3356800   7.9861963
  56.0914803  44.4560909   8.0599201  84.2483234  32.6654100  56.3779116
  83.9882088  32.9483461  55.5012608  84.7426796  31.8587661  56.2324095
  24.2050123  27.5072479  26.8048406  24.3321800  26.5741658  26.6333199
  25.0911164  27.8678417  26.8367982  41.3075638  11.2747216  39.7376776
  42.0680141  11.8177176  39.9452877  41.4556360  10.9899199  38.8359046
  31.3255787  68.6858892  45.9401417  30.7932901  67.9948902  45.5459118
  32.1986771  68.5564089  45.5697870  27.6145673  39.7215390  23.0283999
  27.2083998  40.0609159  22.2308517  28.3115292  39.1448402  22.7155161
  29.3617606  76.6970253  53.0683088  29.1251612  77.5361252  53.4634876
  29.1781664  76.8111849  52.1358442  21.8243289  40.8424425  48.6827564
  21.9238615  41.7177629  48.3084059  20.9374475  40.5772066  48.4391880
  80.8236313   0.2062432  43.8349342  80.3682518   0.8658004  43.3116293
  81.4939690   0.6979248  44.3094063  30.6584620   4.7018874  44.9477005
  30.9586024   5.6098002  44.9906206  29.7037220   4.7635806  44.9776077
  33.9844751   4.8144916  26.6739392  34.3262386   5.6966722  26.8194985
  34.2930007   4.5794797  25.7988310   9.3892205  22.9132271  29.3203282
   8.6378026  23.1257081  29.8739100   9.0213370  22.3915362  28.6070728
  29.0137720  17.6424456  66.8613338  29.8585248  17.7041197  66.4154434
  28.7741852  18.5503519  67.0471668  73.6859035  64.9181318  56.1656904
  74.2036819  64.6050501  55.4239893  73.8589907  64.2853546  56.8627310
  43.8459826  16.3277900  18.6313903  43.1651497  16.7515361  18.1087625
  44.6533871  16.4773285  18.1394887  21.6952920  74.2306423  68.2492924
  21.6047382  75.1729488  68.3910465  22.6378107  74.0919065  68.1563282
  69.6315289  59.2891502  23.1585979  70.5244350  59.4493437  23.4640384
  69.7086143  58.5298300  22.5809097  48.5724497  37.2590184  48.0739307
  49.0655041  36.4457583  47.9656029  48.4329367  37.3305559  49.0182066
  57.4539328  74.9167490  35.9833741  56.8920517  75.6288624  35.6777430
  57.4451017  74.2808104  35.2680135  35.5573297  75.9009266  34.6397400
  35.4070139  76.5914249  33.9941025  36.3240361  76.1954451  35.1313162
   0.0388643  58.4266376  43.2267761   0.5541531  58.1303740  43.9770699
  -0.0173120  59.3760729  43.3346939  33.3866477  58.6743879  35.4346061
  33.1504273  57.7838469  35.6941485  32.8636980  58.8420534  34.6506143
   9.8612714  60.8481646  47.3852682   9.3342823  60.0623226  47.2404623
   9.2214561  61.5333080  47.5787687  49.0876007  21.8114686  36.9838881
  48.5568476  21.0316277  37.1463013  49.0906334  21.9049954  36.0312748
  19.6635032  71.5030432  41.6403484  19.0967429  71.2634516  42.3735666
  20.2461386  72.1734810  41.9971132   5.0843066  77.5514841  51.6895962
   5.3919142  77.4820662  50.7858324   4.3810952  78.1999159  51.6541195
  30.5784011  15.7833850  38.3573365  30.7693505  16.3075686  39.1351557
  29.9579597  15.1209176  38.6613488   1.6864093  23.8308501  63.8345385
   2.4668697  23.2873464  63.7262964   0.9554360  23.2166958  63.7658167
  18.9526033  56.1546755  47.6436996  18.1446528  55.9318113  47.1813393
  19.3035960  56.9052315  47.1644306  28.0491281  22.7689147  61.8887281
  28.0356240  23.7019658  61.6755009  28.6432242  22.7026486  62.6363182
  64.1944790  15.9925640  42.6352310  64.4051361  15.7783592  43.5440636
  63.8344765  15.1819324  42.2753572  65.2804899  72.6909494  10.2534270
  64.5480442  72.8323555   9.6536255  65.5589533  73.5719967  10.5033183
  83.8904858  73.8995981   1.6943167  82.9733658  73.6321735   1.6341937
  83.8656902  74.7383976   2.1547848  20.6313324  20.3196812  43.7085533
  21.4254022  19.9450445  43.3273268  19.9944007  19.6055400  43.6850357
  33.3502126  33.3930659  31.4880252  32.8222823  33.2784247  30.6978488
  33.3172727  34.3334222  31.6637421  50.5069113  19.5400608  50.0608158
  50.1830626  18.8280463  50.6125307  51.4499617  19.5593095  50.2236748
  18.2840312  19.2799664  24.2775512  18.0392456  18.5642922  24.8641706
  18.4723377  20.0146055  24.8615694  17.1714568  18.4928417  48.8692808
  17.0525229  18.8325715  47.9823351  16.5164149  17.7995682  48.9500523
  66.4144087  47.1437502   2.0727627  67.3360586  47.3368835   2.2444949
  66.4091635  46.2272549   1.7966457  39.3318605  14.6923840  16.8076253
  38.8164234  13.8880050  16.8670332  39.0274286  15.1130915  16.0035372
  60.1056004  74.6618032  37.1451139  59.1842508  74.7507334  36.9013286
  60.4946041  75.5079889  36.9240260  55.7848835  26.2910938  11.1498773
  55.0330687  25.7106233  11.0313201  55.8731556  26.7431068  10.3107560
  27.9298639  14.0497351  51.2732267  28.6187720  14.6059442  50.9095383
  27.1416259  14.2980516  50.7902670  74.0124226   2.6314533  50.4166603
  74.5262814   2.7291545  49.6150160  74.0112495   1.6895506  50.5871010
  70.7427073  22.0574856  59.6318340  71.0758209  22.8478050  59.2067909
  71.4233398  21.4009285  59.4838476   6.1739206  74.1155052  60.4076385
   6.5874803  74.5151758  61.1727953   6.8901175  73.9941978  59.7842789
  45.2155018   1.9551200  44.9392414  45.7261753   1.2301750  45.2996588
  44.4619226   2.0314857  45.5244970  45.2000284   6.1430442  66.8826914
  45.9163141   6.3672930  66.2886572  45.4374981   6.5583688  67.7117538
  41.4106321  12.3058712  43.7524414  41.6077042  11.6298962  44.4008636
  40.8834791  12.9477274  44.2282152  57.0246744  76.5095091   2.1626793
  57.9602528  76.4780474   1.9628485  56.8785000  75.7626057   2.7431941
   9.6648961   5.7280332  53.3646441  10.6170094   5.7170105  53.4625673
   9.5007366   6.3912100  52.6942110  17.7286589   9.4723278  39.9180961
  17.8152323   8.6376375  39.4576311  16.7841351   9.6015388  40.0041819
  76.9770956  59.9732590   0.6505857  77.3141670  60.0693274  -0.2401372
  77.2843552  60.7555819   1.1086231   5.8161908  73.7998581  64.0999508
   5.8013815  74.3800879  64.8610973   5.0063175  73.2942438  64.1684246
  41.8043900  53.5068989   9.4423544  41.5511799  54.3736839   9.7598451
  41.8468285  52.9659653  10.2309108  48.2620049  26.4526796  43.1842566
  48.3255672  26.2960720  44.1264153  48.4739399  27.3803735  43.0808258
  78.9979267  10.3569818  53.0564356  79.5619345  10.5346298  52.3037291
  78.3149672  11.0258341  53.0071259  28.7681603  20.9533668  26.1999774
  28.5561514  21.8866396  26.2168527  27.9176521  20.5149794  26.1737967
  26.4357543  45.2371407  26.5656114  26.0225677  44.3844938  26.4295864
  27.3706102  45.0424528  26.6317129  27.4236703  22.6816964  36.5449262
  27.5407434  21.7876554  36.2236547  27.4721694  22.6021457  37.4975824
  77.1995497  76.6832018  46.6615105  77.9331112  77.2966099  46.6184521
  76.5751839  77.0106745  46.0140848  72.4429083  38.0663562  31.6207314
  72.3304129  37.1379185  31.8246341  73.3770943  38.1590486  31.4338207
  32.5076008  35.7250738  39.8809385  31.9511151  34.9617934  39.7261667
  33.3378792  35.5058479  39.4580817  54.7252512   7.8429681  43.3012629
  55.4161501   8.4631443  43.0682993  54.5267296   7.3871911  42.4832869
  40.7743311  29.0199184  27.2678590  40.1187944  28.8621831  26.5884304
  41.6026974  28.7561250  26.8672919  25.1085019   0.9244807  65.0595570
  24.7878313   0.7100108  64.1835403  25.4871321   1.7988926  64.9685907
  54.4243050  33.7465882  52.3101330  54.5940971  33.6430717  53.2464504
  53.7523937  33.0934000  52.1149063  22.6953292  79.0176153  15.7155025
  22.3178482  79.7450113  16.2101066  22.5502324  79.2506552  14.7985137
  41.5100527  18.7675428  59.3857479  40.7958078  19.2658460  59.7829628
  41.3479567  18.8256836  58.4441662  40.7577896   8.8634467  61.9369555
  40.7950354   7.9407096  61.6851568  41.5544224   9.0044612  62.4485350
  43.8869143  17.6885152  38.0166006  43.5606003  18.1667149  37.2543144
  43.5048866  18.1441545  38.7667227  30.7143903  17.6725090  27.2450662
  30.4895759  18.6029327  27.2438765  30.4976177  17.3725975  26.3622904
  21.6626382  10.5328631  38.9089656  21.7444634   9.5935440  39.0739417
  22.5652742  10.8496165  38.8750982   6.6423482  74.0402079  44.7801447
   7.0802742  74.1256523  45.6269932   7.2988266  74.3191099  44.1418028
  74.6713114  64.2490864  13.3476329  75.5620861  64.0379858  13.6272502
  74.1498232  63.4935427  13.6186266  14.4685900  64.4890308  48.3741426
  14.9489582  65.2899885  48.1645012  14.9506819  63.7957048  47.9234600
   7.0842731  78.1945944  31.4366531   7.1931863  77.2999907  31.1140776
   6.1456722  78.2754946  31.6061115  61.5770578  65.2639294  43.2888985
  61.4973068  64.6336842  42.5728893  60.8727694  65.8932734  43.1335735
  57.3144531   9.2986184  28.3395648  57.1243715   9.4470686  27.4132466
  58.2163620   9.5995390  28.4502125  13.6487019  23.9563608  38.9816427
  13.1120801  23.9294362  38.1894660  13.3126080  24.7057581  39.4732475
   2.9150102  14.6136665  50.9018373   2.1369764  14.1818619  50.5490780
   3.0944496  15.3242707  50.2861452  10.6216455   6.3810670   8.6325103
  10.9905696   5.5623913   8.3010030   9.7327298   6.4039999   8.2782012
   5.9654403  31.8075202  69.0937216   6.2128806  31.7538426  68.1706168
   5.2819205  31.1454795  69.1973577  53.1020117  10.0114906  47.5367832
  53.9691019  10.3889799  47.6847410  53.1763124   9.5638323  46.6939831
  57.1777058  35.6008196  64.4372225  57.7143097  35.7377839  65.2179480
  56.3868284  35.1708341  64.7625875   7.4583912  67.1819305  31.0088730
   7.3266697  66.4628601  31.6267848   7.1384287  67.9566240  31.4711618
  16.3360775  62.5709629  32.4692559  16.7568982  61.8265152  32.0392060
  17.0494676  63.0204821  32.9222870  79.5883656  58.5570145  56.5433741
  79.5714140  58.4615040  57.4956465  79.9943972  59.4111252  56.3955164
  26.0519171  25.3844690   4.9603662  25.5970740  24.6185160   4.6101314
  25.3763151  25.8672619   5.4365003  32.5741434  17.3350573  34.3743587
  33.2639599  17.6143646  34.9763370  32.0292473  18.1132066  34.2568707
  54.4533300   2.4370143  21.3881063  54.5694113   3.1735781  21.9882989
  54.4239712   1.6673201  21.9563842  79.9777365  49.1540003  64.5584726
  80.8857822  48.8787699  64.6847010  79.9355841  50.0269508  64.9488688
  12.0033145   8.6995327  28.8746929  11.6384852   7.9978204  28.3354974
  11.2384498   9.1768497  29.1962218  67.6175070  14.0446162  27.2057629
  68.1964445  14.1284978  26.4481163  66.9046831  13.4828997  26.9014812
  33.0366206  26.4259410  34.4417906  32.8150177  27.1858120  33.9035344
  33.6281204  25.9091878  33.8946819  74.8279905  19.6225834  26.6816354
  74.9293280  18.6908424  26.8761134  75.2656841  20.0676990  27.4072599
  74.4677401  35.0915384   0.8691609  73.9903927  34.4795656   1.4293951
  75.3677940  34.7657704   0.8709723  45.9010220  77.6515198  52.9199982
  45.8301115  77.4510908  51.9867086  46.7094612  77.2202253  53.1968451
  72.9324484   5.0411284  54.0570211  73.0067778   5.0410324  55.0113344
  72.6237869   5.9210473  53.8409185  28.0663562  31.7755485  59.3770504
  28.3006763  31.2173343  60.1184845  27.1202660  31.6644716  59.2832136
  71.8756676  66.0003233  53.7651157  71.0156107  65.5810595  53.7376451
  72.0767069  66.0736036  54.6980906  18.2216752  38.4844971  11.8747711
  18.9477253  38.2641006  11.2912405  18.0451131  39.4086885  11.6989112
  63.0573463  12.2519147  37.2519422  63.4771204  12.2992861  38.1108809
  62.4491167  12.9909539  37.2415209  47.9712296  25.1992345  60.7674026
  48.8383293  25.1023912  60.3737211  47.3880005  24.7127032  60.1848507
  27.6998925  65.8565235  51.8946266  28.6254668  65.8427811  51.6510010
  27.3644495  66.6688776  51.5154219  68.9613867  54.7908640   9.9217916
  69.6547556  54.2838383  10.3441596  68.3515406  54.1321850   9.5894307
  50.0883579  10.9926879   2.3515826  49.7242975  10.9898436   3.2368416
  49.5540905  11.6279817   1.8749329  28.6519575  15.8080196  45.2897978
  29.2176270  15.1739764  44.8490715  27.7665257  15.5719042  45.0132227
  77.0359325   1.3047297  68.0316687  76.4200306   1.9841032  68.3061647
  77.3091125   0.8852774  68.8475513  26.5302229  76.3721037  31.6540360
  25.9720826  76.0674620  30.9385610  26.0021901  76.2420607  32.4417543
  63.7141085  75.2633667   0.6333745  62.9946804  74.8221397   0.1817460
  63.5030222  75.1757193   1.5628867  58.9569998  53.8638020   9.1628033
  58.5371256  54.7221184   9.1059941  59.8713970  54.0287828   8.9328253
  54.0200424  27.6599407  49.3718815  54.7707224  28.2157755  49.1627026
  54.1165638  27.4681687  50.3046942  44.0043831  32.4848938  52.7780485
  43.8538742  32.8290677  53.6584616  44.9547529  32.5155950  52.6681137
  11.0330749  41.0855627  22.5713253  11.6811204  40.5574656  22.1050835
  11.4944613  41.8962622  22.7860880   4.2378479  70.0957537  13.8085449
   4.8516190  70.7452154  13.4654450   4.3475568  69.3365860  13.2359564
  48.9352512  27.4860668  57.3068857  49.8724270  27.5531530  57.4897385
  48.8889408  27.2128654  56.3906717  81.9206142  70.8822203   1.1593669
  82.2325039  70.9174204   2.0636451  82.6907730  70.6298923   0.6500308
  27.9877996   9.7085935  31.4433455  28.5098600  10.3864038  31.0140920
  27.5020432   9.2932320  30.7307816  55.0873852  13.8743949  56.2066412
  54.5057774  13.4748650  55.5598497  55.5718803  13.1382120  56.5801859
  28.7318897  77.3204565  57.1769428  27.9051542  77.3779821  56.6979551
  28.8195181  78.1713486  57.6065207   6.2267923  26.7011666  19.6976614
   6.6292918  26.3988900  20.5118203   5.3072619  26.4471936  19.7763681
  51.9491100  15.3840816  10.7106030  52.2477961  14.8802483  11.4676833
  51.0184145  15.5352044  10.8755314  29.1226363  21.2506175  57.9405642
  29.8590922  21.3862562  57.3443556  28.7131548  20.4411316  57.6351309
   3.0662248  42.4798250  65.0532627   3.7445766  41.9455194  65.4662895
   2.7661818  43.0653858  65.7484818  67.7020693  22.1813273  34.6475458
  68.3572054  22.5164890  34.0354252  67.5525236  22.9036689  35.2575397
  27.0715761  23.2633138  55.6959486  26.4845848  23.4230971  54.9569321
  26.9483566  22.3371100  55.9037876  33.4219956  16.0310590  37.6583147
  32.5619030  15.6163311  37.5914454  33.2786393  16.9292486  37.3600936
  47.2448444  39.0679336   4.6968117  46.3493395  39.2998075   4.4507709
  47.1491766  38.5734224   5.5107760  51.8008757  32.1913743  49.4026566
  52.0193148  32.9516220  48.8636351  52.0532846  31.4384103  48.8682699
  31.7693639  20.1433849  50.6636000  32.6026392  19.8485899  51.0309935
  31.5575123  20.9362483  51.1562634  31.7828631  28.4255528  60.0502396
  32.1914196  27.8161502  59.4354677  31.0434914  28.7939262  59.5666409
  29.7080636  25.8154535  65.7074594  29.8645067  25.4306555  66.5698338
  29.3601680  26.6875005  65.8938360  20.9997225  25.6383967  49.9894333
  21.0711718  25.0078940  50.7060862  20.1694989  26.0877633  50.1476479
  45.4756069   5.5389333  31.9414592  46.0761499   5.0115061  31.4147663
  45.9394073   6.3649952  32.0783591  24.5783448  24.6351123  38.4516048
  23.7868738  25.1588964  38.5759330  25.0170684  24.6584940  39.3020201
  11.0788774  25.0550556  45.7372046  10.1747978  24.9037910  45.4615402
  11.6084564  24.7415829  45.0040483  82.0983410  19.9753630  60.5188465
  82.8060341  19.8185694  61.1440039  82.4289417  20.6728888  59.9528170
  60.1441956   3.2133952  33.7233424  59.6420908   3.1589830  34.5364594
  59.6694088   3.8516146  33.1909108  42.0776558  77.0345688  49.6738815
  42.2820950  77.9329109  49.9335289  41.1844206  76.8921280  49.9870491
  60.3413677  48.1528664  12.4078202  59.4330359  47.8512907  12.3930752
  60.2950191  49.0346146  12.7774262  38.1452465  27.5618029  52.7796888
  37.8893876  26.6842461  53.0636978  37.6491117  27.7069759  51.9740772
  25.6967282  12.3775327  24.1379428  24.7835755  12.4188876  24.4219756
  25.6855369  11.7932141  23.3798695  25.1563025  38.9786959  41.1398363
  25.8791924  39.5990157  41.2339926  25.2791810  38.5978985  40.2702808
  42.3534966  26.1531401  53.2365799  43.2797861  26.2102580  53.0021572
  41.9029474  26.6534090  52.5561619  38.3325100  33.9607239  45.9266663
  37.5724077  33.5954189  46.3794661  39.0720510  33.4420443  46.2433434
  26.0016990  25.8813548  20.4943275  26.2205219  25.8008623  19.5659590
  26.3752747  25.0975847  20.8972883  39.3151784  16.1345947  12.3675549
  38.7515998  16.8829060  12.1709836  38.7745047  15.5646884  12.9144645
  44.8300076  44.2183161  46.8601656  44.4378614  44.9673557  47.3089314
  45.1180506  44.5681763  46.0170412  63.5384893  72.5212145  43.0100727
  63.5390377  71.6070318  42.7263546  63.1665897  73.0013847  42.2702360
  48.8645363  14.0515161  42.7916670  48.9875078  13.2250154  43.2585812
  47.9495001  14.2828441  42.9511261  50.8614159  10.6345320  53.6029959
  50.7445335  10.1787221  52.7694464  51.5118599  10.1122427  54.0724325
  36.4563298  13.0770147   2.1545301  36.4279795  13.9800537   2.4706778
  37.2143412  12.6927412   2.5949642  66.7947912  57.7489328  16.2758374
  66.1293840  57.2662735  16.7662525  66.2966204  58.3653688  15.7391167
  55.4626608   9.1235816  46.3996172  56.1576366   8.4655476  46.4149141
  55.0489616   9.0151477  45.5432701   7.6414663  68.7943316  10.8743477
   7.1723473  68.1712437  11.4292574   7.6441497  69.6085072  11.3776743
  17.4424875  65.7708454  34.2170405  17.9706073  66.5524292  34.3796611
  18.0773425  65.1018476  33.9608526  54.6578979  61.3668394  27.7545691
  54.7028399  60.4462481  27.4962616  54.4715929  61.8351173  26.9407916
   1.2195610  43.1787968  16.9297147   0.9576149  42.2724390  16.7680788
   0.4308382  43.5984135  17.2733295  36.6936612  23.1861472  48.0638552
  37.0309615  23.0297136  48.9458942  36.5852737  22.3115540  47.6902676
  36.0005832  15.6931269  46.8199348  36.3993788  15.0586951  47.4154902
  36.4418554  15.5464697  45.9832716  37.6712251  67.6369905   1.3583472
  37.1562266  68.4350204   1.2393768  38.0089879  67.7008581   2.2516948
  67.5314856  26.3711858  62.7958107  67.3693752  25.4301238  62.8617811
  68.1835318  26.5499806  63.4733820  44.2192936   9.2265290  59.9553585
  43.7637997   8.4951711  59.5383787  43.8571692   9.2607301  60.8407545
  21.2199211  40.5242538  33.6805415  21.4193654  41.3786077  34.0633440
  21.9669628  39.9750161  33.9182329  53.7911701  76.2500954   4.1518927
  52.9557180  76.2046719   4.6168548  53.7519598  77.0756388   3.6690089
  58.9661169  25.9322524  51.2391949  58.9386797  24.9802160  51.1437702
  59.7548819  26.0985994  51.7553377  27.2411990  28.6542606  60.4672480
  27.4968839  28.2733488  59.6271515  26.4228511  28.2114434  60.6918621
  50.1359653  22.6747274  57.6647854  49.7761536  21.8679786  57.2961044
  51.0647058  22.4843550  57.7967930  23.0648637  14.4781053  49.3133163
  22.9170656  14.8397017  50.1871824  23.6408925  13.7276268  49.4589281
  59.5510483  29.6071959  49.1610384  60.4385567  29.2734408  49.2920351
  59.1508532  28.9896607  48.5488892  13.9528191  63.2578039  15.8704340
  13.3421981  63.9608145  15.6487393  14.3834317  63.0446434  15.0425649
  82.1421814  18.5109162  32.2313380  81.6277790  18.5284269  31.4242959
  81.8406200  17.7271080  32.6906180  71.9063377  17.1299958  12.4148166
  72.7938890  17.0648670  12.7672911  71.6688299  18.0497777  12.5323951
  31.9390321  26.3112974  31.4902353  32.7348447  25.7927179  31.6085052
  32.1622562  26.9392586  30.8031631  19.4357431  76.2658930  58.0906820
  19.1552019  77.0275736  57.5833654  20.1206017  75.8621025  57.5576210
  59.9868917  30.3882813  54.9796009  59.8419428  29.5094848  55.3302288
  59.4276667  30.9538770  55.5121422   3.2490751  74.0952063   1.0040705
   4.0744492  74.4383383   0.6616528   2.7411374  74.8744059   1.2300804
  62.1335125   5.0971466  35.2399278  62.3822308   4.1930211  35.0477624
  61.8110037   5.4392159  34.4061351  55.4502583  20.3309798  39.2500734
  54.7277117  20.9579206  39.2833519  56.0180283  20.6567216  38.5516763
  35.0695801   1.2502630  48.1771803  34.9278021   2.1476613  47.8758383
  34.5007348   0.7181169  47.6208830  56.9242334  20.2308559  45.9752464
  56.1910820  19.6233439  46.0734844  57.2578812  20.0630665  45.0939035
  46.6643620  57.9683590  39.8803043  45.8882189  57.4436140  40.0764465
  46.9846439  57.6204538  39.0480709  47.1442509  14.1162002  51.3002396
  47.9071283  13.5936689  51.5476418  46.4783669  13.8902724  51.9496918
  62.3140717  23.1617904  62.5557852  62.4495602  23.2062745  61.6092682
  61.7513132  23.9106417  62.7526426  42.3504829  59.4541788  66.0482550
  41.7744255  60.1211786  65.6747532  42.3251343  59.6166134  66.9912291
  42.7004766  65.6024122  19.5893741  42.0832729  64.8963833  19.3975091
  42.6414633  65.7211065  20.5373526  34.2960000  38.5565972  20.1564407
  34.0282798  38.2508206  21.0230756  35.0554037  38.0171418  19.9361551
  39.9949741  36.9532132  48.4402752  39.5642090  37.2711611  49.2337370
  39.2764902  36.7675877  47.8356600  57.3990917  41.0196733  58.9868975
  57.4985456  40.6441021  59.8617029  56.8292809  41.7780209  59.1151810
  44.5506859  26.9650054   8.5257930  43.9747047  27.7192879   8.4011567
  45.3172398  27.1571708   7.9857022  65.5682945  47.2507524  43.5402298
  66.1398172  46.6901207  43.0155563  64.8406649  47.4644995  42.9561901
  51.2645388  28.6289954  62.9253626  52.2066259  28.5004139  62.8150606
  50.8663511  27.8923559  62.4616385   5.3487331  16.9152367  40.8602524
   5.8181083  17.6948988  41.1569786   4.7400734  17.2401237  40.1967669
  68.8160658  46.4309645  41.6334200  68.0776596  45.8322334  41.5215874
  68.4699726  47.2875118  41.3828564  60.4612112  46.3955116  42.0887327
  60.6690741  46.2841177  41.1610365  60.4517078  45.5053902  42.4406147
   5.6296492   7.9806445  68.8003351   5.2273846   8.5840485  68.1755827
   6.2805224   8.5108016  69.2602595  62.3890448  73.9907694  45.3643513
  62.8253698  73.4753847  44.6859455  63.0823660  74.1976690  45.9910297
  74.0230894  41.2718296  48.5260963  74.0429544  40.3174305  48.5965586
  73.0961657  41.4847612  48.4179211  67.0264244  75.2160549  21.4952230
  67.6244736  74.7524834  22.0814610  67.0215082  74.6916342  20.6944799
  58.5036421  51.3122177  56.5008307  59.1638041  51.9468975  56.2222576
  57.9730415  51.7845011  57.1424198  78.9103222  15.5265117  37.1790957
  79.6122646  14.9665773  37.5107217  78.2957888  14.9204540  36.7652440
  57.6262236  39.9982285  61.6014147  57.7409077  39.0482211  61.6251659
  57.6832581  40.2693510  62.5176430  -0.3357640  76.5172005  14.9023151
   0.3545067  76.6373587  14.2501485   0.1329020  76.4075089  15.7296920
  83.0843830  67.5510836  60.7322073  82.6682663  67.7799368  61.5632963
  82.4297905  67.7688217  60.0686407   5.4899347  49.1308212  44.5905733
   4.6126118  48.9483643  44.9270916   5.7783490  48.3007193  44.2111349
  65.0452805  32.8734326  14.6212041  65.4285288  33.5736823  14.0929973
  64.5464087  32.3475266  13.9960778  57.9087210  47.3642778  30.4615974
  58.4524727  47.6821756  29.7408295  57.4824333  46.5814304  30.1128006
  64.9389744  31.1716914  60.9132719  64.0767670  31.1831594  60.4976988
  65.3927708  30.4354358  60.5031109  66.5866184  70.5991030  45.0970888
  65.8450699  70.7418728  45.6852674  66.6481638  69.6473360  45.0159216
  40.2514935  10.3394616  10.8353794  40.9125137   9.9858582  10.2401900
  39.8583150  11.0661876  10.3521514  56.6353941  40.3101397  50.4128265
  56.3931274  39.4042969  50.6051588  56.8959999  40.2979898  49.4918680
  53.0815554   4.4864702  11.0091209  54.0244055   4.3310705  11.0649252
  53.0054617   5.3907979  10.7047641  68.8642502  52.6187134  44.7066927
  69.1537380  51.7169333  44.8453379  68.2724285  52.5675631  43.9561176
  68.5695267  56.3688278  36.4603448  68.2209492  57.0107937  37.0788956
  68.1981564  55.5343151  36.7465281  64.1602850  30.4409623  48.9396143
  64.9057341  30.9810567  49.2019796  63.6350203  30.3549886  49.7351885
  70.9824610  75.8671856  50.2207184  70.4165888  76.4891815  49.7633886
  71.7772293  75.8303547  49.6885347   5.9307802  56.6961098   1.7611469
   6.8172288  56.8598461   1.4392282   5.9042090  55.7526016   1.9202557
  66.5117884  47.5900269  18.1714880  65.8256197  48.0425549  17.6809561
  66.5108919  48.0128908  19.0302181  44.2128658  38.6147380  54.1178370
  43.8242149  37.7404594  54.0891790  43.5007191  39.1839814  54.4094610
  65.6354189  57.2989798  59.6818447  65.9242487  57.6962566  58.8602734
  65.5578327  58.0346155  60.2893448  59.4821453  56.7777014  26.5349126
  60.0615644  56.7372942  25.7740760  60.0597715  57.0030308  27.2641635
  55.2544689  61.9509935  52.8555775  55.7221794  61.2310934  52.4322319
  55.3387547  62.6833010  52.2449589  71.4619350  34.9310398  35.1020551
  70.6744432  35.0433016  35.6344867  71.6909981  34.0073705  35.2050066
  62.2274303  56.9670582  39.9670529  61.7102766  56.3065243  39.5060921
  62.5939608  56.5022278  40.7192659  10.2238429  68.3133841   9.8326695
   9.4147104  68.5930347  10.2608418  10.5159998  69.0840960   9.3459618
  61.2260532  44.6603680   7.0579016  61.6397190  43.8065290   6.9311130
  61.4916563  45.1711082   6.2931597  66.7595625  52.7841520  42.7252769
  67.3173141  53.4581375  42.3368359  65.8847237  53.1725168  42.7331829
  70.0177526  28.8113832  51.4054394  69.4344378  28.3065271  50.8387804
  69.4439268  29.1665745  52.0842600   0.6345154  55.9700966  53.2907820
   1.2374279  56.7123508  53.2484818   0.3852170  55.9162998  54.2133808
  58.5102463   9.8898727  45.6820059  58.8163137   9.2402005  46.3148403
  58.7273073  10.7328427  46.0801458  50.0086164  50.2275085  56.8485069
  50.4495001  49.4156647  56.5979767  50.7070780  50.7817984  57.1965694
  72.7294731  29.1570973  55.8612823  72.0333004  28.6116624  55.4951191
  73.0093145  29.7099972  55.1317501  57.3411226  20.7960534  63.5235691
  57.8946495  20.7529497  62.7438354  57.2579813  19.8861527  63.8088751
  81.9619083   0.8926124  54.3617725  82.3953056   0.0628987  54.5616865
  82.6033783   1.3792956  53.8441992  71.2880421  56.1007500  43.8064766
  72.1277714  55.7690573  44.1243887  71.4006424  56.1682463  42.8583241
  47.7674389  79.0784359  16.2737596  48.5018015  78.4886694  16.4444232
  47.2743559  79.0905809  17.0940971   3.5286254  48.6317205  42.2501993
   2.6198936  48.4582090  42.0045710   3.9829278  47.8052282  42.0866489
  45.3030920  62.6857424  34.4314170  44.6120787  62.0253563  34.4826078
  45.7199001  62.5310516  33.5837269  73.6400557  56.6240883   2.1049371
  73.8530731  57.5572252   2.0943831  72.6876068  56.5948009   2.0142798
   5.7607007  72.5156879  24.9700499   6.6807097  72.3359871  25.1637602
   5.5759734  71.9997501  24.1852474  49.5413113  69.1540527  44.7880411
  49.6300888  68.2015800  44.8219967  48.7536001  69.3395519  45.2992487
  61.8022537  30.2149034  57.9116583  62.0590067  29.3754506  58.2932758
  62.2112846  30.2197099  57.0462704  59.8833466  53.6371613  56.1254215
  60.6604528  53.4991598  56.6669846  60.1884747  53.4982443  55.2288532
  60.6879902  50.0304699  53.4553242  61.4574957  50.0125170  54.0243340
  59.9461079  49.9357414  54.0527105  56.3025570  39.9895573  53.8077688
  55.8124924  40.3984213  53.0943966  57.0597410  40.5608273  53.9364004
  67.9491615  51.4234829  65.3833199  68.7740183  51.4198589  64.8976994
  67.5803709  52.2920227  65.2225161  81.2128353  30.8604789  63.1263208
  80.7097816  30.4677773  63.8397312  81.1243057  31.8038917  63.2618427
  56.7117357  45.4793644  37.4950027  57.1334124  44.7838259  37.9996300
  57.2738361  45.5938101  36.7287254  10.6887019  65.6292439   8.0129069
  10.0453210  66.3187361   8.1768894  10.4883850  64.9553299   8.6624795
  13.7189174  47.5437164  35.0534415  13.8266790  47.4631786  34.1057444
  14.4988871  48.0165148  35.3438640  52.6245022  69.2570734  31.6691375
  52.8463316  68.5193539  32.2372818  52.6470232  68.8930511  30.7841444
  15.1936519  61.7276764   1.1123564  14.2822647  61.9565964   1.2945691
  15.3275812  61.9853783   0.2002793  69.2493296  76.4134026  15.9638298
  68.5412025  76.5784311  16.5863645  69.4442987  77.2725582  15.5895734
  68.2738495  28.4038281  10.9830534  67.9515123  28.6898470  11.8377602
  69.0229607  27.8432012  11.1849439  69.0520239  29.7452402   8.9397371
  68.6480904  29.3610811   9.7178704  69.7304583  29.1186881   8.6879599
  78.3353233  62.5079823  28.7911057  79.0720844  62.7047062  29.3696499
  78.7346411  62.3757267  27.9312873   6.6900200  22.5334835  67.9147434
   6.1236119  22.2998405  67.1793365   6.1280131  22.4518681  68.6852741
   7.5974226  10.1011562  24.7478127   8.3953995  10.2508640  25.2548146
   7.7772152  10.4979455  23.8954830  69.7553730  35.4317164  21.8465114
  70.2713776  35.0538039  22.5586581  70.3410244  35.4117560  21.0896444
  70.7216883  27.5277257  54.6510363  71.2822723  26.8953824  54.2014599
  69.8473215  27.3675752  54.2959833  59.9059868  60.3667927  51.4165449
  59.9166822  59.6672630  50.7632637  60.7055664  60.8649826  51.2471104
  48.0867815  56.1378860  41.7665482  47.8992939  56.9197798  41.2471962
  47.3585892  55.5455685  41.5791225  63.3559895  66.1855936  29.5087194
  63.1786776  66.7670059  30.2481437  63.2621431  65.3039312  29.8694158
  66.1673832  40.6474066  46.3311195  65.5764103  40.6541109  45.5781651
  65.6550312  40.2481079  47.0341778  53.9277887  41.2226152  22.1425915
  54.1832829  40.9074736  23.0095649  54.1144323  42.1611929  22.1643257
  42.5163698  37.3769760  47.4678040  42.9838848  36.7595387  46.9052792
  41.7153692  36.9155145  47.7161646  76.1838007  19.1364598  54.5279837
  75.7244158  19.4086695  55.3223991  76.8849850  18.5648286  54.8407316
  48.5586739  42.5543165  47.7290392  48.5191870  41.6209459  47.5204754
  49.4813013  42.7851057  47.6207638  55.6600237  58.2543850  22.4991012
  56.6097355  58.3302212  22.5914478  55.3345585  58.2121849  23.3982801
  40.6828356  34.5050955  67.0182276  40.8852100  34.2126179  66.1295557
  39.8667264  34.0558720  67.2382069  61.6716576  44.0393925  26.6089272
  62.5799417  43.7459946  26.5370297  61.1654329  43.2318830  26.6977739
   8.4991866  21.9279695  60.0734758   8.6609787  22.8647661  59.9618006
   8.4338158  21.5881443  59.1810179  81.6366959  19.2070401  53.8968897
  81.4743328  19.6765924  54.7150517  81.6849518  18.2864463  54.1545916
  13.8882887  68.5759163  58.9586496  13.8268101  68.3511591  58.0302429
  13.1251740  68.1576920  59.3573713  56.7013025  66.6166306  36.2863731
  55.7855225  66.3889122  36.1259866  56.6743565  67.1948099  37.0487475
   3.0023229  37.0600414  13.7245166   3.2109794  36.1263037  13.7532759
   3.8486680  37.4975419  13.8168466  29.4140697   7.1554250  18.5389304
  28.5612655   7.1702921  18.1044924  29.8819232   7.9065126  18.1739497
   4.8916948  36.5174627  56.0831404   4.7241834  35.7021546  56.5558386
   4.0251508  36.8177414  55.8089733   8.2796508  62.9154396  60.0476503
   8.4934938  63.7388802  59.6089697   8.1596589  62.2882843  59.3345547
  43.8896608  49.9652195  23.5097313  43.0281925  50.2009821  23.1654620
  43.9200163  49.0106297  23.4459949  50.9065676  18.3508694  40.6988525
  50.9497643  18.7139773  41.5834522  51.8183565  18.1728542  40.4682302
   2.2555858  48.5145330  24.9860835   2.0459381  47.9353333  24.2534113
   2.1406654  49.3972158  24.6340895  76.2028313  42.2670555  61.0668755
  76.3980341  43.2023573  61.1246634  77.0308352  41.8653917  60.8036089
  81.1861420   2.4575779  39.7035885  80.9034252   3.3588758  39.8583937
  80.4309845   1.9238688  39.9508309  53.6623192  62.3739100  21.3054204
  53.6971235  63.1238937  20.7116652  54.1762829  61.6964531  20.8659577
  18.5525179  33.7374973  53.2165098  19.0833962  34.0365672  53.9547253
  19.0933681  33.0760765  52.7849627  70.1087046  49.5401287  38.4241414
  69.2858553  49.0564775  38.3517718  70.5118561  49.4575739  37.5599146
  75.1372385  66.7753267  46.1984158  74.6354008  66.3155174  45.5253935
  75.3866577  66.0916376  46.8201780  15.8432090  63.4102821  19.9442303
  16.6462350  62.9707432  20.2238464  15.8593261  63.3535433  18.9888489
   8.8871193  33.4971666  44.9207735   8.4740919  34.2933226  44.5864439
   8.4365517  32.7849102  44.4669962  11.9175458  74.8586512  32.3074079
  12.5673020  74.1699505  32.1669054  11.8226278  75.2765989  31.4515209
  43.5205221  58.1556845  32.3652601  43.2695913  57.5673866  33.0774188
  42.6893568  58.4365368  31.9824791  82.2962284  56.8563032  42.8841734
  82.3511791  56.1935329  43.5726118  83.0070400  57.4662161  43.0815983
  79.3551016   3.3225018  31.8815279  80.0632954   3.8797066  32.2043610
  79.8012161   2.5791970  31.4756799  16.4255416  54.7927141  57.7092457
  16.1511910  54.2275810  56.9870329  17.2962034  55.0993729  57.4559832
  74.5834684  34.6427202  47.0725536  75.3938007  34.3861175  46.6323853
  74.6728897  34.2958903  47.9602146  42.6860523  50.1823092  34.7869372
  42.1251106  49.4172049  34.6596861  42.4425650  50.7782841  34.0785861
  83.1156254  45.8134556  48.1530094  82.3869705  45.3707266  48.5880804
  82.7721596  46.0498810  47.2914028  67.4839497  68.5339308  64.1625500
  67.9383087  68.0607700  64.8596191  66.6993904  68.0129576  63.9914131
  79.5414209  20.8185863  60.2931833  80.3848743  20.4021549  60.4703808
  79.3618679  20.6148744  59.3753052  83.3540821   6.2455374  39.8721790
  83.9730167   6.2087816  40.6014252  82.5244331   5.9499031  40.2470446
  40.8571959  17.5541914   5.9541810  41.7083025  17.7849603   5.5818975
  41.0595751  16.9122398   6.6347486  80.0200939  42.9847145  46.5470505
  79.4048166  43.6598301  46.2609100  79.5408154  42.1630573  46.4402533
  33.4987664  56.2251139  31.1254692  32.9764342  55.6215429  31.6537714
  34.3570399  55.8061790  31.0614681  70.3736162  54.5242119  17.5816357
  70.8116722  54.5274687  18.4327102  70.2319908  55.4495049  17.3816109
  23.2440996  22.2328234   0.6541846  23.1937170  22.7487612   1.4588588
  22.8392744  22.7881360  -0.0121287  10.3771544  10.7728338  41.9040442
   9.4517159  10.6470621  41.6943359  10.5588698  10.1243782  42.5842810
  82.1026134  36.0355973  57.1562910  82.7534580  36.0964942  57.8555250
  82.2499657  36.8168473  56.6232204  62.3303366   4.2555040  43.4186935
  61.6063166   4.5645437  43.9632320  62.8732681   3.7379131  44.0133047
  61.0399389  74.5633221  48.3964396  61.1612654  75.1694441  47.6655960
  60.4554033  75.0260162  48.9968252  62.4423599  45.0921679  36.4736104
  63.3578920  45.2724695  36.2602472  62.4830866  44.5251083  37.2436881
  55.2872229  31.3901544  56.8226433  54.5345211  31.6223550  57.3664761
  55.3473043  30.4372954  56.8910742  11.7388260  30.6707716  44.4939661
  10.7843637  30.6021976  44.4709396  11.9467068  31.3396597  43.8415813
  68.5605669  56.0509920  47.8130388  69.1115952  55.4146957  47.3572683
  68.5490370  55.7504082  48.7217474  64.8442316  45.3969240  35.0868797
  65.7271385  45.2972460  35.4429269  64.9733210  45.8344173  34.2453504
  63.3957148  72.3195601  61.0541534  63.0089808  72.5731087  60.2160692
  62.8825140  72.7941227  61.7080975  82.3181915  53.0589151  50.4731178
  81.5371037  52.7204466  50.9107971  82.0417023  53.8980293  50.1047802
  52.4723482  62.2459030  52.7296543  51.9313240  61.5479088  52.3604202
  53.3554173  61.8773270  52.7534008  18.5353303  76.3253021  65.7645893
  18.3791959  75.4205418  65.4939175  18.0418992  76.4201117  66.5793085
  30.5720043  64.6428204  11.3046014  29.8383689  65.1636171  11.6313744
  30.4002309  63.7581682  11.6272807  38.3124137  22.7799106  61.8688393
  38.9337516  23.5043693  61.7958355  37.6986480  23.0583429  62.5485420
  77.4189854  31.5079308  37.0374584  77.3595238  32.4479723  37.2078085
  77.3535776  31.4324236  36.0854864  58.7110901  21.9727302   2.0001857
  59.1498280  21.3522053   1.4182161  58.2394218  21.4223623   2.6253736
   1.3089044   0.2632087  21.8973994   2.0417638   0.0805938  21.3093519
   0.8041674   0.9409308  21.4477730  46.0504532  58.6700773  31.8390203
  45.1458263  58.5226727  32.1149850  46.0855103  58.3337593  30.9435368
  56.7836761   7.8318322  50.9028673  56.6903687   8.5190982  50.2431726
  57.5841331   7.3691082  50.6551123  62.8656483  46.6313648  48.1201982
  63.5337973  47.3146391  48.1744766  62.6718330  46.5596056  47.1855783
  71.2409973   5.5316502  34.7245789  71.0617256   4.5955044  34.8124623
  72.1802235   5.5799538  34.5463729  77.5815678  54.0956831  46.7249584
  76.8951464  54.5967960  47.1653509  77.2053671  53.8706970  45.8740234
  83.4778214  30.6251335  34.2534685  83.2696629  31.4536095  34.6853590
  84.3497562  30.3987885  34.5770764  71.6629219  44.6759129   2.6761380
  72.2012329  45.2096939   3.2605463  71.7595530  43.7838888   3.0095845
  43.2251549  58.1527233  40.6023407  43.7279081  58.9627743  40.6877375
  43.8318777  57.5363922  40.1921558  33.3338952  12.5501823  35.3797889
  32.6148129  13.1412649  35.6028962  33.7351656  12.9430687  34.6046400
  60.6087780  73.0913877  31.7691183  60.3692532  72.5611067  31.0090756
  60.5535746  73.9948606  31.4578056  72.1161175  64.4582272   1.0994854
  71.9078493  63.5614491   0.8374767  71.3574457  64.9713373   0.8213434
   9.6099120   0.2951851  29.6720982   9.6845120  -0.6586324  29.7020841
   8.7373674   0.4560103  29.3128872  75.3212929  77.0955849   7.7663440
  74.9478436  76.8918133   8.6238092  74.8726130  76.5033865   7.1628332
   6.8461931  60.9510708  45.5490875   7.3827231  60.3591871  46.0763836
   7.0133263  60.6845427  44.6450615   9.7482288  71.0322046   2.8711665
   9.9192041  71.9709826   2.9466486   9.0266854  70.8705282   3.4790054
  12.2672451  56.2106752  16.3390636  11.9632149  55.6289816  17.0357919
  13.1069720  56.5442848  16.6549671   5.2617520  49.3681955  22.9141212
   4.5754191  48.8649368  22.4760461   5.8241725  48.7064123  23.3165646
   6.9551170  26.6502190  25.2281857   7.1352428  27.5170636  25.5920100
   7.7056122  26.1185217  25.4933023   4.9867973  39.2240071  25.6948709
   4.2332387  38.6384392  25.7689691   5.0140136  39.4632745  24.7684574
   9.4360352  44.1687918  15.6294608   8.6377239  43.9845753  16.1244297
   9.8491442  44.8917246  16.1016250  55.9765244  70.5444813  40.4058933
  56.7193699  70.8673239  39.8958111  55.9826136  71.0769987  41.2012672
   7.6932460  15.9217691  21.9498134   8.0060965  15.7473886  22.8374791
   6.7949182  16.2301493  22.0687294  61.5724564   6.6343099   9.0211976
  61.1392832   7.4878627   9.0148538  61.3946772   6.2819737   9.8932558
  10.4397607  71.5707922   0.4044706  10.0478792  71.1957932   1.1931629
  11.2811828  71.9201946   0.6979980  62.2449875  58.4052277  47.1872568
  61.5548086  58.0576038  46.6224194  63.0267859  57.9100990  46.9425821
   0.8781715  55.8895397  32.2986293   0.1881888  55.9844875  32.9552412
   1.6854620  56.1017942  32.7670979  13.0246031  20.2270722  61.6789675
  13.2687795  20.7817626  62.4198627  12.0867324  20.3801179  61.5640402
  66.6360760  48.3233452  56.6050291  67.4894857  48.1571436  56.2046528
  66.2106371  47.4661589  56.6266251  47.9395485  23.4710288  17.8228247
  48.5176039  22.7684665  18.1203008  48.4895420  24.2543721  17.8334522
  60.7406855  52.3732710  34.4676805  60.6857872  53.3199310  34.5982432
  60.9788418  52.2720051  33.5461259  71.9107008   3.6232036   0.4020448
  71.2790298   3.1909794   0.9768550  72.3578072   2.9049045  -0.0455864
   3.6604440  56.4791775  27.8996348   2.7918595  56.3696527  28.2866716
   3.9191300  57.3689651  28.1396127  12.2770059  59.2231846  40.5922985
  12.7770293  60.0269032  40.7345772  12.9356194  58.5285950  40.5900002
  84.1086674  33.7540197  53.1173754  84.7069168  34.4877028  52.9758024
  84.1584492  33.2448459  52.3083687  63.5376167  78.6254644   5.7456160
  63.3977032  78.6983585   6.6897255  63.7133932  77.6957798   5.6006110
  40.9575129   1.5985867   1.2196653  40.2556849   2.1318340   0.8464180
  40.5206776   0.7989365   1.5128624  43.7202168  69.0441608  27.6305985
  44.5217133  69.4930220  27.8995824  43.3902693  69.5624161  26.8965840
   9.3155229  73.5273361  36.0171103   9.1916990  72.8698444  35.3325605
  10.2336109  73.4372187  36.2725019  78.9233589  41.7005920  55.7881784
  79.0795374  42.6323605  55.6344271  79.7358179  41.2735415  55.5165672
  37.3144197  11.0675335   8.6323869  36.3810754  10.8574903   8.6637503
  37.4164963  11.7967618   9.2439735  21.7911220  68.0113935  52.8751040
  21.3094354  67.3613119  52.3636293  21.4114046  67.9554987  53.7519884
   1.0791919   6.4133656  41.9024181   1.9851536   6.3463485  42.2040367
   0.5793132   6.6250074  42.6908064  59.9798870   7.9528683  27.4121332
  60.4005098   8.6076421  26.8548369  60.4780483   7.9780573  28.2290983
  13.2765603  39.8022676  27.2801852  12.3849440  40.1446533  27.3436356
  13.2309902  39.1421795  26.5884948  81.2268448  29.4937277   4.3705970
  81.0919189  29.0436959   5.2045631  82.1458054  29.7609663   4.3885791
  57.5167179  57.7608776  46.1686611  57.4813795  57.3712492  47.0422554
  58.4095287  58.0975008  46.0924768  82.8692436  49.3020153  47.3493671
  82.2512054  48.9672565  47.9991245  83.3763504  49.9636793  47.8197670
  63.1373167  46.0380459  25.2370667  63.5583162  45.1784611  25.2471209
  62.5965834  46.0491610  26.0268211  41.3688660   5.8385408   6.0053897
  40.9200144   5.3351307   5.3261685  41.5927887   5.1916271   6.6744137
  61.9527197  43.0637217  52.6257420  61.7830849  42.5641775  53.4244347
  61.0925961  43.1617451  52.2173214  80.6767654  35.6603885  20.3410602
  81.1672974  35.1553845  19.6925437  79.7601032  35.4453015  20.1687074
   9.0243345  61.6502476  24.3821955   8.4872144  62.1233797  25.0177097
   9.8385733  61.4627600  24.8492026  74.0649414  54.4973564  27.2916269
  74.8681593  54.0247583  27.5100827  73.3625269  53.8735819  27.4753547
  40.9745407  31.4238405  55.5964661  41.0810566  30.7141995  54.9629879
  40.2820587  31.1193848  56.1829901  68.8748646  70.4576063  65.3561687
  68.4704447  69.9133778  64.6805239  68.1502533  70.7032776  65.9313345
  65.6131887  63.0562305  60.9739113  65.9956646  62.3196459  61.4507627
  66.3457918  63.4316969  60.4854965  42.3701000   6.2445074  22.3860383
  41.8802023   5.9834439  23.1658316  42.3313999   5.4797447  21.8116927
  83.3487415  37.8648710  32.3045921  84.1845989  37.6212478  31.9068313
  83.4742641  38.7696862  32.5905752  73.9735651  65.2334929  38.4562922
  74.8984957  65.0907230  38.2554150  73.8700151  66.1850023  38.4445190
  27.8719211  14.5623827   3.8430580  28.1993365  15.3495514   3.4078607
  26.9457626  14.5243502   3.6042830  23.2926464   2.8600743  58.2400799
  23.6945534   2.1065301  57.8077936  22.5340557   3.0718029  57.6960754
  42.9333019  71.9638157  44.1180325  42.7973747  71.1423731  43.6458158
  42.2045231  72.0076513  44.7370529   3.5488018   0.1168646  13.8285816
   3.6879230   1.0327487  13.5876799   4.3734869  -0.1523090  14.2331457
  61.1808777  52.4355984  49.2838240  61.8751574  51.7818928  49.3667889
  61.2915754  52.7920055  48.4023762  50.7452297  78.2171011  22.1861243
  50.3630209  77.6848698  21.4883542  51.3164997  77.6140547  22.6617479
  17.3088288  74.7224474  16.3689578  17.3981202  74.9413013  15.4414010
  16.3657808  74.6280766  16.5030742  16.3492119  51.3466978  40.2418137
  15.5684614  51.6266060  40.7196283  16.2949288  51.8064260  39.4039965
   2.5312626   5.6951481  29.2422986   1.7599985   5.2489710  28.8925695
   3.1001529   4.9877009  29.5458007  68.3421421  40.6833887   3.5325316
  68.0952549  40.3820562   4.4068766  68.2565594  41.6358328   3.5744056
  63.1649160  63.1280327  38.2071543  62.2292805  63.3036184  38.1071949
  63.4994650  63.8817358  38.6932039  55.0646067  41.8844557  63.8870287
  54.6126747  42.0887041  64.7057295  55.6662655  41.1760187  64.1158581
  81.6659260  40.9333515  42.9683304  80.8230972  40.5670452  43.2360983
  81.4380360  41.7097139  42.4568987  29.2992568   5.0833541  10.8775210
  30.1759338   4.9875122  11.2496507  28.7648964   4.4505197  11.3573265
  51.1619568  18.1169724   2.8686589  50.5218649  18.0863345   3.5796970
  51.7061758  17.3410296   3.0027121  69.8579311  20.9933162  54.2613745
  69.6626711  20.0883389  54.5045280  70.8125687  21.0237241  54.1983032
  71.5039492  44.9426126  54.6312952  71.6349554  45.4938745  53.8598204
  70.7925463  44.3513680  54.3851852  73.9475536  52.2010899  61.9335556
  73.2015467  51.8198490  61.4705658  74.5199108  51.4567232  62.1194363
  69.0188026  38.0287957  22.3377109  69.1839266  37.0877862  22.2788382
  69.4337177  38.3941245  21.5562916  50.1881742  60.4096222  49.4465208
  49.9836540  61.2572289  49.0515995  51.1277246  60.4490852  49.6251726
  77.3005676  60.3612995  26.9576931  76.5004778  60.3926277  26.4331865
  77.1580076  61.0059500  27.6507568  43.1098843  48.1703138  68.4883881
  42.7919388  48.8484001  69.0844965  42.6375484  48.3291864  67.6711416
  51.9981337  56.4206362  32.4790072  51.2271786  56.9850159  32.5367761
  52.2672415  56.2889671  33.3881140  56.6513109  49.5109367  26.7745233
  56.2946272  49.2022085  25.9416389  56.6171122  50.4653931  26.7106366
   5.9274834  43.7761974  65.0589609   6.3741100  44.4002533  64.4868469
   5.3918773  44.3209076  65.6357193  21.3799405  13.8327813  45.6018209
  21.2037444  13.4407866  44.7465277  20.6852150  14.4813251  45.7157516
  68.0746603  49.0177584  41.0118532  67.6592255  49.5419979  41.6965532
  67.5180435  49.1431475  40.2432919  61.8319607  30.9881926  20.8014798
  62.3010302  31.8224192  20.8179688  62.2966242  30.4396129  21.4334488
  15.2956820  39.6745372  23.1462336  15.8580208  39.7898507  23.9122033
  15.6926477  40.2264452  22.4724030   4.1933286  57.3883438  52.0084476
   3.2563549  57.5832129  51.9900560   4.6144342  58.2140923  51.7696095
  11.1626506  30.9197330  33.9433980  10.6832290  30.8254933  34.7665048
  10.9607089  30.1211643  33.4558129   1.8804479  21.9729519  22.4674511
   1.5263589  22.4022961  23.2462406   2.4268696  22.6408744  22.0532846
  27.4296594  58.1917286  56.0870934  27.3776269  57.5544643  56.7994213
  27.3929596  57.6633024  55.2898216   9.4438988   2.9176804  14.6825302
   9.1037458   3.6778527  14.2106557   9.9401182   3.2904777  15.4112422
  61.5140533  48.4812927  33.8252878  61.9216681  47.6153135  33.8127613
  60.5874968  48.3123779  33.6544371  65.2287817  47.2322798  20.8295655
  64.8273277  47.0760965  21.6843605  64.4879436  47.3465157  20.2342987
  72.0448923  44.2960787  46.8830442  72.9675293  44.0650082  46.7754173
  71.5873003  43.7645292  46.2316608  22.5033212  79.0131092  32.3594213
  22.5503302  78.8433266  33.3002710  23.3787227  79.3235302  32.1280241
  14.5761883   2.9534715  25.2300167  13.9990211   2.2741476  25.5787706
  14.8654890   2.6109821  24.3842983  26.1385894  75.1181746  44.9797440
  25.3769493  75.2961111  45.5315399  26.8607855  75.0048351  45.5976629
  18.1927860  39.4219112  15.4645157  17.3556292  38.9600086  15.5097413
  18.0270183  40.1614428  14.8798406  10.3271043  14.4556510  13.7740099
  11.0397089  13.9459443  14.1595304  10.3626370  14.2487550  12.8401136
  61.7664242  57.0167589  20.7281423  61.0701180  57.3124361  20.1416588
  62.2806644  56.4057398  20.2004647  32.1418118   2.5514272   9.0527111
  32.8870893   1.9606009   8.9444709  31.8244195   2.7022150   8.1623417
   9.7935086  36.9258785  45.8812857   9.8617321  36.7548656  44.9419641
   9.9409264  37.8679872  45.9645462  77.3288012  65.0232315  15.3826737
  77.0938206  64.5303965  16.1688888  78.1751919  64.6628475  15.1181340
  24.3212128  19.4712424   3.3209214  23.6242247  19.9603534   2.8836474
  24.4507241  19.9294341   4.1512942  74.3418217  70.6097889  34.0633416
  74.8906946  70.5013752  34.8400116  73.6720467  71.2397385  34.3294191
   2.3955798  52.8716850  35.5958366   2.3735264  51.9526148  35.8624005
   3.3165210  53.0415869  35.3977656  54.0023184  79.6733570  33.4651875
  53.1105614  79.5421219  33.7873292  54.2719126  78.8111973  33.1485844
  61.3562107  48.4415579  23.7251496  61.2264442  49.3715477  23.9109230
  61.8624687  48.1169224  24.4698286  25.9587526   1.0540941   6.4023912
  25.7882261   0.7220027   5.5209899  26.5232563   1.8150908   6.2665600
  81.3805676  59.3588734  40.5765104  82.0187759  59.1570091  39.8922825
  80.7028866  59.8662424  40.1297855   1.7718394  -0.0503875  32.2686887
   2.4756680   0.1553058  32.8839517   1.3388360   0.7885697  32.1109223
  14.2022371  16.1902463  28.9271927  13.7308288  15.9090543  29.7113729
  14.9946749  16.6101563  29.2617798  80.2677536  69.0578890  19.6372259
  79.9320316  69.2055702  20.5213714  80.0870037  68.1340790  19.4636023
  65.6855154  26.7048788  54.1549158  65.4171753  26.9682622  55.0351715
  65.4278994  27.4383664  53.5964680  60.1686764  34.9405789  49.2414618
  60.6149006  35.1766157  50.0547266  60.0669193  33.9901066  49.2912483
  75.5387449  47.0567751  33.0723810  75.3407145  47.2934866  33.9784622
  74.7484112  47.2904825  32.5855684  54.6634674  63.9754295  36.7992377
  54.5578194  63.2486057  36.1853981  54.1114569  64.6717119  36.4432836
  56.4381409  18.7570012   9.1405469  56.9941473  19.5358467   9.1627067
  55.5464745  19.1007471   9.0858102  78.1797266  56.4207745  54.5298672
  78.0010605  56.8161058  55.3831100  78.9645147  56.8707371  54.2170238
  36.2850142  69.9552107  49.3586159  36.4710927  69.1955662  49.9104691
  35.8691835  69.5883560  48.5784006  42.1382236  33.8367486  62.6791286
  42.7242374  33.2884741  63.2008648  42.5872469  33.9359665  61.8396282
  70.4695415  65.0894213  13.5791552  71.0856199  65.5538177  13.0125737
  70.0752831  64.4267845  13.0119646  16.1571443  34.4836497   6.6848624
  15.5065477  34.0298629   7.2206163  15.6495631  34.8814988   5.9775364
  76.5204382  57.1417809  52.4548769  77.2629118  57.4469662  51.9335079
  76.9150877  56.8037796  53.2587671  34.8341846  45.7311487   2.0376173
  35.0874853  46.6305256   1.8298076  34.9723411  45.2489567   1.2223654
  27.9895639  47.3286867  -0.0571848  28.4407401  48.0728722   0.3413907
  28.1269693  46.6080236   0.5576326  18.6564445  74.8134232  60.2810764
  19.0056348  75.5207014  59.7388029  17.9282868  74.4580412  59.7714472
   4.0527555   7.2884697  42.3527050   3.9103678   7.7205884  41.5105486
   4.9620393   6.9913471  42.3187399  11.0167015  31.7635822  28.1631279
  10.2673709  32.1668029  28.6014771  11.6805565  32.4528122  28.1409454
  47.1875191  57.7922392  11.2556410  46.7134762  57.0813560  11.6871071
  46.6237307  58.0474949  10.5254245  74.7703028  37.3284292  47.4884701
  74.8576546  36.3807845  47.3856497  75.6325436  37.6747727  47.2586536
  37.6141191  65.4720306  31.7761660  37.1895599  65.1878452  32.5856233
  37.0539808  66.1743784  31.4457297  72.7426672  57.4951029  25.3114152
  72.1451283  57.2198820  26.0067058  72.9007530  56.6998100  24.8027372
  55.9282923  46.8835497  19.2660546  56.6938257  47.1207476  19.7894335
  55.9007645  47.5405788  18.5705066  51.7040253  52.5656843  37.5792480
  51.2323475  52.1080875  36.8832946  51.1412430  52.4769688  38.3484244
  58.7296772  44.2973185  56.0746622  58.0866861  44.4455910  56.7680693
  58.8307142  45.1516771  55.6550312  52.6059389  39.9964333  54.5392609
  53.3342600  39.5608258  54.9820089  53.0186892  40.4989433  53.8368702
  71.4563942  51.9074059  42.7510071  71.7243385  51.3084507  43.4479237
  70.9191799  52.5646067  43.1934118  46.2650585  67.2080231  50.9590244
  45.3668404  67.2413111  51.2881470  46.1763239  66.9252062  50.0488758
  24.9886775  12.4205256  16.9408679  24.7567010  12.9927254  17.6723075
  24.4465041  12.7284408  16.2145984  69.9175072  53.6005497  52.0777559
  69.0104246  53.4850788  52.3607683  70.4253006  53.5853577  52.8890133
  66.1678267  36.7111230  59.1333961  66.1523390  37.6668739  59.0830708
  67.0176506  36.5055346  59.5229673  17.9994309  76.5676260  27.5411844
  17.9070044  77.1799994  28.2710409  17.2932303  76.8035889  26.9396567
  35.5005527  32.2510552  30.0909972  35.9099817  32.7852225  29.4103622
  34.8616266  32.8340459  30.5010271  67.2523642  48.3414221  25.5832982
  66.5721416  47.9988146  25.0035191  67.7088928  47.5632095  25.9029770
  52.6396036  43.3100605  61.4545584  52.0816898  44.0715408  61.6130304
  53.0970192  43.1715298  62.2839022  58.7439251  71.5606356  26.9086409
  58.7864780  70.6507158  27.2026992  58.5634899  71.5009737  25.9704947
  20.3791213   2.8561941   5.0667232  20.5265760   2.8368735   4.1211459
  21.0258865   2.2468022   5.4224873  78.5438299  22.5370717  53.7337017
  78.7612581  21.7261648  53.2739353  78.9790297  22.4553299  54.5823240
  19.5201683  42.7929688   6.0326725  20.2277017  42.9790449   6.6499287
  19.9632025  42.6516533   5.1960242  43.3529615  62.6464415  22.5114298
  42.5024033  62.8034067  22.1013808  43.2952881  61.7521620  22.8478384
  27.6357555   4.2291757  47.0049810  26.7318106   3.9258429  47.0892525
  27.6491690   4.7160906  46.1809874  71.2137938  69.6051550  44.6391249
  70.7196617  70.0871992  45.3022194  70.5820370  68.9866924  44.2722082
   9.9565065   4.0465471  31.4641142  10.5645025   4.7839054  31.4104843
   9.4838005   4.0648764  30.6319833  64.5508718  55.5601454  28.5547876
  65.1677608  56.0046244  27.9733086  63.6973715  55.9268093  28.3238554
  83.1449795  35.6855607   9.4278002  83.5688591  35.5518532   8.5800511
  83.1451130  34.8192596   9.8349339  65.7699966  29.8284435  53.9258099
  65.6505156  30.1427794  54.8219967  64.8887205  29.8292947  53.5521984
  57.3067045  75.4495668  14.0261066  57.2037935  74.8015356  13.3291876
  57.4473238  76.2766457  13.5652447  27.3136568   3.5198295  12.6108110
  27.6025987   2.6800802  12.2536480  26.3944721   3.5865575  12.3522019
  53.8421011  63.3445740  47.3849440  53.3343124  64.1458035  47.2568178
  54.4583941  63.3319235  46.6526508  41.6181755  72.3875570  64.1861010
  42.0374870  71.7332172  64.7448921  42.2510004  72.5450802  63.4854174
  37.8350139  20.5690050  42.5948668  38.6329865  20.0897169  42.8179216
  37.1666455  19.8903978  42.4999666  75.9215641  24.6241856  39.9926186
  76.2671185  25.3839397  39.5240021  75.4057264  24.1533232  39.3380737
  13.5135508  53.9855576  37.4707651  14.3353975  53.6428022  37.8219342
  12.8328085  53.5126257  37.9494643  45.4533005  17.5245631  21.2046027
  44.6333647  18.0177855  21.2303519  45.2612209  16.7694461  20.6486034
  78.3193445  46.5206337  58.5396004  77.8090477  47.1588993  58.0411577
  79.1973829  46.5681028  58.1614113  52.4503326  70.5652761  34.4715190
  52.1567822  69.7004128  34.7580051  52.6733398  70.4487419  33.5479832
  52.5966930  57.4338865  67.4722624  52.9095745  58.3302402  67.3502445
  52.5273800  57.0815277  66.5849781  36.1891317  31.9939899   8.1118369
  35.6667924  32.7956295   8.1396151  35.5632472  31.2937737   8.2967669
  21.8359399  69.1295385  43.3250618  22.3107576  69.3297482  42.5184059
  21.8421364  69.9507761  43.8167477  15.4245985   2.6650801  42.6102877
  15.7653642   3.2782874  41.9590712  15.1063168   1.9226712  42.0967150
  24.9387264   1.5283948  45.6609583  25.8735275   1.3412458  45.7466984
  24.6478868   0.9702660  44.9397564  30.1544118  64.5425081  59.0801382
  30.7349920  65.1985025  58.6943579  29.2803931  64.9269390  59.0127563
  50.4945469  64.8810768  38.1507826  49.5933199  64.8740053  38.4732366
  50.6029940  65.7489824  37.7619290  67.4958181  21.7208886  16.3148308
  66.9381475  22.4260783  15.9862816  67.5336027  21.8661118  17.2601950
  24.8361826   4.0549845  60.1121187  24.4641352   3.5136482  59.4158649
  24.4561577   4.9220008  59.9703598  45.2941322  67.0523643  19.5939350
  44.7691298  67.8441906  19.7106409  44.6552420  66.3395929  19.5914948
  29.4312906  22.0178413  66.9748831  29.5285678  22.6479363  67.6888514
  30.1847291  22.1806955  66.4073992  35.5298972  68.7281036  46.9673443
  35.1789546  69.5999193  47.1490097  34.9252892  68.3554745  46.3256025
  50.7021332  65.4769182   8.7162429  50.9267139  65.6747580   9.6254480
  51.2274027  66.0892487   8.2010996  14.8621345  73.6766005  35.5248356
  14.1161311  73.9545536  36.0562992  14.6764684  72.7622414  35.3110504
  28.2177520   9.0732855  67.1680689  28.2574558   8.5415477  67.9629946
  29.0719247   9.5030797  67.1244955  68.1358194  22.5971055   1.6103517
  68.4272671  23.2371163   0.9609856  67.4448347  22.1043777   1.1676474
  75.6705046   0.5602081  32.2387242  76.3408852   0.6450120  31.5607643
  76.0903311   0.8898845  33.0332613  39.4597507   6.2464172  12.0648205
  39.2633891   7.1685863  12.2299802  39.5507145   6.1875075  11.1137748
  67.9417086  63.8408422  19.6480143  68.5561609  63.3695889  20.2106905
  68.3362007  64.7054768  19.5339274  22.7280426   5.4290396  40.4556751
  22.8735590   4.8654440  41.2155533  23.4609270   5.2365148  39.8708248
  36.1005163   8.5771418  54.0782928  35.1898408   8.3426023  54.2568779
  36.0439849   9.3820786  53.5633993  38.4677052   6.6969657  38.7290335
  37.7815843   6.5930539  38.0697370  39.2722201   6.4364290  38.2805848
  47.8510141   2.4805316  62.4615383  47.5441504   2.5329286  63.3666992
  47.3510170   1.7586802  62.0805359  77.8279209  38.2076335  14.3037891
  78.5233164  38.7956309  14.5986009  78.2069635  37.7437854  13.5571957
  38.1130171  52.8948927   7.1608841  38.7979674  53.3584213   6.6789967
  37.8928280  52.1475554   6.6047996  67.3153448  29.6471119   0.6804659
  68.2025957  29.5205402   0.3443218  66.8896580  28.7985039   0.5584419
  78.5570383  41.6810417   3.4915358  77.9383326  41.9712734   4.1617611
  78.0138063  41.5093374   2.7223504  80.6239700  26.7521596  30.7848024
  80.5185890  25.8564353  31.1054349  81.3576317  27.1026111  31.2899280
  46.5004539  44.4454384   9.9908137  46.3044930  44.8509407  10.8354449
  47.4245262  44.2029667  10.0501823  80.0242519  75.5561256  56.6455650
  79.9514484  76.4817381  56.4128160  79.5310307  75.4749107  57.4618769
  77.8347111  66.5880966  54.1867685  78.4406948  67.0762444  53.6293411
  78.3544064  65.8584356  54.5240355  70.8723497  76.4695120   6.8257362
  70.4290628  76.2261629   7.6384526  71.4458609  75.7274532   6.6342682
  73.2816935  14.2886233  37.7606559  73.4237623  15.1214325  38.2106304
  73.8666725  13.6741006  38.2038212  74.0512180  67.2245741   4.0421745
  73.4302425  67.6994371   4.5945588  74.5598459  66.6937971   4.6552065
  44.9018097   3.5798472  26.1717772  45.5450821   4.2824629  26.2654185
  45.2423096   3.0365306  25.4610753  43.8234043  10.4228163   6.0962206
  43.3667898   9.5912504   6.2236363  44.7503710  10.1855516   6.0703421
  69.2890072  58.9848566  42.1102095  68.5734892  59.4833803  41.7155743
  69.9876499  59.0101480  41.4563751  75.6618071  55.4699612  47.9545116
  75.3475761  56.3725424  47.9012203  75.4022789  55.1771784  48.8281012
  27.7973914   0.5812076  21.6004825  27.1534491  -0.1156025  21.4738941
  28.1563234   0.7372139  20.7269478   5.4846323  74.8935652  11.7343605
   5.8599651  74.4797039  10.9571362   5.5795944  75.8326387  11.5751493
  14.2534006   8.6771631  31.4269328  14.0678966   9.0157050  30.5510283
  14.2010438   9.4447315  31.9964314   5.5040759   5.8087641  39.7015405
   5.0002807   5.0925982  39.3148518   6.3038915   5.3926456  40.0230551
  40.4660130  76.2551165  15.7708299  40.8168650  75.4020405  16.0265601
  39.5885086  76.2773991  16.1525571  14.2818069  58.4435129  43.4212971
  14.0755928  57.9522085  42.6261044  13.6320150  58.1495667  44.0597296
  41.9805288   0.7292148  31.5248299  41.1079931   0.7963203  31.9126582
  42.4943209   0.2473973  32.1729827  14.2860591  71.3625956  28.8925052
  14.1201460  70.7165956  28.2059312  14.4266474  70.8413315  29.6829152
  78.2311106  50.6269169  21.7111659  78.9879990  51.1112928  21.3814235
  77.5533533  50.7617855  21.0488319  82.7577019   4.9083242  43.7184811
  82.4666691   5.7505572  43.3689404  81.9476509   4.4363266  43.9115286
  64.8168993   1.8957429   2.9953656  65.0419378   1.2495279   2.3260418
  64.8080587   2.7312085   2.5282991  11.5479231  51.5149307  28.0786157
  11.6463733  52.4667597  28.0550480  11.2660241  51.2813234  27.1941972
   0.5446029  79.1957958  63.2210588  -0.3221988  78.8938290  62.9495764
   0.4970145  80.1496320  63.1565332  40.9292221  25.3777599   3.8530129
  41.5730524  26.0857224   3.8755527  40.9911442  24.9701166   4.7168556
  82.8910351  28.2605338  23.4062719  82.3840904  27.7984571  22.7386451
  82.9251385  27.6523972  24.1446733  58.9108324  49.2128563  37.0585346
  58.0135965  48.8806152  37.0871425  59.4554281  48.4275389  37.0044637
  40.5801630  57.5456905  23.6251187  40.5198908  57.7793741  22.6988411
  40.0851440  58.2289219  24.0772033  64.7377157  72.9489231  27.4401069
  65.1309395  72.6009941  28.2404542  65.4842663  73.1881905  26.8908811
  11.0125506  61.5350485  65.0386524  11.1141574  60.7111692  64.5620728
  10.6632841  62.1457195  64.3895578  50.1959610  21.8707228  60.7331181
  49.9401331  22.6240778  61.2653208  49.6610212  21.9431639  59.9426603
  67.1807909  63.8050175  51.1969662  67.3178196  63.8816118  52.1412039
  68.0364704  63.9988804  50.8142662  63.0054617  72.6943064  52.0100498
  63.3233833  72.9486752  51.1437654  63.2297230  73.4342909  52.5742865
  63.9019060   2.9173490  45.4383039  64.8002815   3.2030910  45.2724409
  63.9923382   2.1836783  46.0464001  18.4783399  14.0059602  25.7560921
  17.9330397  13.8279521  26.5223765  17.8597975  14.2881644  25.0822997
  10.6308508  12.8450990  58.4858751  10.0217581  12.9891634  59.2100906
  11.4733565  12.6827145  58.9101934  23.2638121  76.8411255  63.5978937
  24.0458727  77.3224688  63.3278465  22.9005122  77.3583841  64.3167067
   1.0235178  50.8535051  27.6353240   0.2084800  51.3254404  27.4643755
   0.7838604  49.9292755  27.5675511   9.3711191  74.2155075  56.0560703
   8.8268274  73.4289122  56.0914183   9.1709316  74.6072865  55.2059698
  35.0902653   2.8721109  54.0116358  34.5342708   2.1418676  53.7398863
  34.8311710   3.0466250  54.9164295  73.8573122  63.1352234  47.0143700
  74.3496990  63.7820625  47.5197268  73.6903954  63.5637283  46.1748743
  56.0443878  74.2547417  38.3251381  56.4088202  74.1796398  37.4432206
  55.4493618  73.5089779  38.4027219  64.2653799  44.8213911  67.5102425
  63.5865784  45.1655722  66.9297266  64.0833807  45.2265024  68.3581734
  56.6204262  63.3396864  38.9014053  56.1562300  63.5667229  38.0956721
  56.0387850  63.6316681  39.6033120  46.7436457  28.3477879  54.9190569
  47.3702621  27.6269460  54.8560286  46.8200541  28.8054609  54.0818405
  12.4692416  31.9815254   1.9839492  11.6417611  32.2197962   1.5659359
  12.9455101  32.8082585   2.0608462  74.0593815  43.4686852  11.5141404
  73.4868193  44.0366459  12.0297182  74.0961790  43.8841915  10.6526113
  15.8636355  26.6553664  50.3767347  15.1829803  26.7254448  49.7073841
  16.6346192  26.3438559  49.9026299   3.2244441  40.1363373  55.4769850
   2.3305407  39.9418259  55.7586479   3.4246942  39.4590974  54.8308611
  77.6036215  59.7752762  31.8078613  77.7886724  60.6864643  31.5804267
  76.8399429  59.5465231  31.2780547  63.3950377  78.8481760  26.4869285
  63.0309963  78.5580349  27.3233032  63.1426573  78.1648779  25.8659291
  25.9740925  79.1958714  21.9999623  26.8213630  79.0007925  21.5995741
  25.4072857  78.4755611  21.7240739  82.6184845  71.8588972  40.2482319
  83.2315636  72.5892830  40.3313541  81.8785381  72.1028328  40.8042860
  84.0046692  68.2796431  48.9272690  84.7535324  68.6656332  48.4729052
  83.6949921  68.9727831  49.5102739  70.4484701  36.3388896  14.6573758
  69.8563194  35.6174421  14.8697460  70.7114792  36.1742449  13.7518632
  31.3694978  23.3478379  49.7371674  32.0824194  23.0047679  49.1983938
  31.0013628  22.5759125  50.1670980  47.8570461  23.2381439  21.7641234
  47.4538279  23.7571263  22.4600434  47.1194792  22.8236604  21.3164353
  59.8128462  27.5543952  14.0848660  59.5260763  28.4311247  13.8292515
  59.6035385  27.4962306  15.0170887  61.6878080  70.5758715   4.1165307
  62.2402811  69.8313761   4.3547222  60.8930063  70.4606390   4.6373376
  82.5033855  65.4951477  54.5779085  82.4390888  66.0553646  53.8044405
  82.3331165  66.0827684  55.3140783  75.6125498  39.0255880  50.6168032
  75.0981712  39.4150758  51.3238716  74.9639082  38.7733436  49.9596357
  70.3927517  60.5230665  44.6479464  69.7695827  60.1012135  45.2394962
  71.0499573  59.8496294  44.4724655  42.7222824  11.3114429  53.3341932
  42.5172949  12.2433877  53.2587433  42.2016287  11.0112333  54.0791941
  68.0287886  34.4230890  15.1919687  67.7234697  33.9715624  15.9788203
  67.7103567  35.3202248  15.2918553  19.3916404   1.5428478  33.2396722
  20.3030300   1.4173193  32.9753923  19.1252387   2.3524117  32.8039336
  15.1339436   5.5033112  41.3307667  15.2805209   5.0881350  40.4808378
  16.0084593   5.7527757  41.6294670  82.4394989  19.9839091  13.4164989
  81.7394924  20.0186658  12.7645707  82.3506451  20.8009863  13.9071321
  55.1457071  49.4313526  24.3360925  54.8712015  49.1517258  23.4627748
  54.7361851  50.2886152  24.4528484  79.0010500  66.1258793  37.5219393
  79.6425915  65.4177189  37.5782490  79.5109272  66.8901873  37.2534513
  56.3418961  36.7337894  68.1329966  56.4030123  36.7698503  69.0875626
  57.2513771  36.7349839  67.8345490   7.3404348  31.6723013  42.8900337
   6.7499363  31.2227058  42.2855425   7.4697810  32.5367951  42.4999666
  17.6689029  61.3754082  65.1827812  18.4039235  61.4273071  64.5718098
  17.3342252  62.2708702  65.2314568   0.7021710  78.2020712  32.5248861
   1.4024541  77.5951958  32.2850108   0.7934548  78.3110285  33.4714723
  64.0653038   0.9857850  42.0487404  64.1442919   1.2394117  42.9683399
  63.1965256   0.5893234  41.9834042  17.1107817  33.7529945  68.2582474
  17.8150892  33.4010291  68.8025856  16.3219798  33.3103991  68.5715055
  75.9350920  45.7860327  60.0361490  75.0065994  45.8370066  59.8091269
  76.3924646  46.0102797  59.2257452  56.8210077  38.9740133   3.1122261
  57.1510983  39.2785168   3.9575356  56.7436028  39.7690606   2.5848389
  52.7442169  16.0592937   3.6212516  52.7333450  15.3406894   2.9890165
  53.6413813  16.0714006   3.9546859  79.2354488  60.3064346  39.1492486
  78.7701988  59.7220945  39.7478533  78.7535477  61.1320639  39.1976714
  70.7820988  48.7465382  63.3503866  70.5513048  49.2667675  62.5807571
  70.0127316  48.8028908  63.9170742  47.2821188   8.5601544   0.4045052
  47.6443863   9.2935210  -0.0926556  46.5278435   8.2717395  -0.1094162
   5.7058001  14.5867670  38.7425876   5.0908208  15.3115654  38.6298990
   5.2900130  14.0184760  39.3909693  81.6576958   8.6794788   9.7345197
  82.2406197   8.0854911   9.2616493  81.8620110   9.5459569   9.3828052
  75.3911352  18.8495505  24.0541720  75.3554773  18.7020302  24.9992633
  74.5947313  19.3432343  23.8585997  67.2940159  57.1936893  28.5528755
  67.6132059  56.2945366  28.4762812  66.9361258  57.3952675  27.6882863
  47.0797586  64.5770788  53.4456348  47.0584583  65.3277445  54.0391636
  46.3872004  64.7551250  52.8093243  64.7357512  76.7677784  38.1640840
  63.8212729  76.9995356  38.3260942  65.1829243  76.9682455  38.9863253
  28.5793900  62.7687788   5.9868348  27.7030134  63.0549860   5.7293838
  28.7568617  63.2422638   6.7995775  59.5651054   5.4406881  17.1210361
  60.2879047   6.0058153  17.3938501  59.3724775   4.9086699  17.8930998
   4.5332548  60.4674435  14.4066274   4.1433802  59.7538519  13.9016342
   5.3182340  60.0834227  14.7972274  19.2416239   3.1314209  47.6822472
  19.2970169   3.4234425  48.5921288  18.4080446   2.6636973  47.6311398
  37.8083277  60.0389147  10.3268456  37.8779387  60.5891323  11.1070037
  37.1432638  60.4687929   9.7891426  82.3387337  42.8600979  45.2544260
  81.4593697  43.1369638  45.5119085  82.2166920  42.4329376  44.4065619
  69.5617533  76.0818052   4.4420826  68.6765432  75.7826805   4.6498400
  69.8732948  76.4880371   5.2508771  17.6390874  25.3838682  48.6204624
  18.3308423  25.9941983  48.3651114  18.0713940  24.7640586  49.2079830
  73.5960865  38.4405088   4.5557648  74.1427708  38.6554098   5.3115320
  73.7477112  39.1567135   3.9390865  78.1906176  77.1661377   8.4262937
  77.9343557  76.7504263   9.2495477  77.3690891  77.2757387   7.9474330
  36.0292697   6.0576510  29.9837565  35.6726813   6.4870220  29.2061210
  36.0553026   5.1288486  29.7537994   2.1240284  44.4354391  66.7338705
   2.0975710  44.1289186  67.6402807   1.2613273  44.8232222  66.5868902
  10.9503078  50.8316708   1.1183950  11.5317070  51.5122652   1.4575070
  10.5024219  51.2451458   0.3803793  57.1890068  73.2345533   6.2583703
  57.7916098  72.9356384   5.5773771  56.7448759  72.4388266   6.5512949
  42.1378708   8.1055272  40.4504919  42.9059649   8.4905249  40.0285435
  42.1144152   7.2042966  40.1288319  28.4364605   9.0981257  46.3557482
  27.4828911   9.0747112  46.2758207  28.7421012   9.3824011  45.4943514
  11.1317265  71.3502121   6.7261004  10.5511916  71.1494827   7.4602109
  11.1250865  70.5562687   6.1914599  30.4359770  71.0289145  27.0019293
  30.8351398  70.1680565  27.1277189  30.1128602  71.2721777  27.8694820
  13.8899302  50.2598715  55.0323296  14.7362947  50.7068920  55.0406837
  13.5674679  50.3742409  54.1383648  60.3691149  72.7534628  55.1576233
  59.4606352  72.6398993  54.8783398  60.5462217  73.6845684  55.0237989
  18.8811147  14.0021956  37.0818233  18.4784818  14.8484898  37.2765112
  19.3440235  13.7665689  37.8858304  73.6833525   1.6589333   2.2480792
  72.9397106   1.1531162   1.9203955  73.3186388   2.1895219   2.9563797
  42.8146696   3.6501899  30.6322098  42.0158720   3.9330572  31.0773373
  43.1524706   2.9383498  31.1757207  36.1379647  13.5074544  22.9825664
  35.9838200  14.2254686  23.5965085  36.9920230  13.7016726  22.5964355
  13.4535289  76.7847586   5.4776257  13.1053996  75.8976984   5.5679995
  14.1079926  76.8571424   6.1723709  78.1197262  56.8470955  39.1030240
  77.3378706  56.7707443  39.6499252  77.9149580  57.5528002  38.4896040
  79.2331553  65.1437664  40.5788612  79.1376495  65.7392836  39.8355722
  78.5688066  65.4329538  41.2043571  82.8485394  75.2455521   7.3659122
  83.0342102  75.9567976   7.9790109  81.9378090  75.0092602   7.5418943
  64.1533709  36.6117930  62.6205063  63.7105083  36.2989640  63.4093332
  64.9366951  36.0658097  62.5531197  60.7767439  77.4977589  46.3894224
  60.5961084  78.3143234  46.8550730  59.9418163  77.2633648  45.9842205
  27.4824572  35.4751372  49.5961237  26.7182922  36.0511780  49.5746374
  27.5102496  35.0814795  48.7240648  79.0576601  63.5530329  36.4380717
  79.8692083  63.9033985  36.0708332  78.8281250  62.8250217  35.8605409
  21.1889148  14.4028783  29.2826748  21.0533762  14.2677510  28.3448029
  22.1379185  14.3527913  29.3971920  63.5517216  17.4630582  59.2620850
  63.5180664  16.9253981  60.0533009  64.3917894  17.2437859  58.8590527
   7.3775446  42.3999262  28.7238359   7.0443076  43.1215429  29.2571759
   7.7655238  41.7944622  29.3555951  20.7318020  17.3038244  51.2604237
  20.7733130  17.9367495  51.9773006  20.4595613  17.8193402  50.5012369
  42.2799921   5.7883739  46.2753677  42.5730467   5.3415614  45.4811954
  43.0546379   5.8109492  46.8371964  67.0119858  65.7675600   3.2224557
  66.4671183  66.1963606   3.8823634  66.8162107  64.8355818   3.3189911
  17.1212959  77.1719646  51.1517334  16.5272295  77.6615667  50.5828667
  17.8296685  76.8905067  50.5727482  19.8800278  64.1531420  53.4001398
  18.9557195  64.0266752  53.1859159  19.8766363  64.4484663  54.3106365
  31.2640810  23.5514879  56.2265825  31.2245679  24.3967485  55.7791376
  31.0274315  22.9130554  55.5537987  64.2794991  19.5562804  19.2074168
  63.5301161  19.1089094  19.6004999  64.1614771  20.4758048  19.4456959
  24.1484523  11.2809670  36.1069083  24.8296976  10.6809914  35.8033252
  23.9351821  10.9748864  36.9884205  58.1015158   7.0136684  23.6136746
  57.4948406   7.1327960  24.3444204  57.9027605   7.7354836  23.0172586
  83.1462002   6.6969943  23.1490445  82.9104328   5.7810980  23.2966185
  82.3620796   7.0868856  22.7625656  41.7584658  24.5825505  36.6671515
  41.9889832  23.7406158  36.2744188  41.3567781  25.0778508  35.9533191
  81.9430065   8.9653283   5.5967051  81.8058872   8.5037351   4.7694427
  81.5158844   8.4139526   6.2522846  15.0031614  39.4884419  57.4704981
  14.8356092  40.3911018  57.1996450  15.3864145  39.0736914  56.6976261
  18.3120191  23.3507204  39.7381616  17.7096629  23.3536983  38.9942598
  17.9927659  24.0507078  40.3076601  16.7797375   7.7282566  58.8643837
  16.2479091   7.1175891  58.3540154  17.2409105   7.1750879  59.4949055
  54.6170855  53.0371475  41.8669796  53.9834642  52.3914957  41.5541029
  55.4236412  52.5381279  41.9961166  44.5624447   3.9938757  61.2249899
  45.0097799   3.4370455  60.5877590  44.0979433   4.6405122  60.6936407
  40.0335741  13.6794591  49.8478317  40.8382320  14.1508973  50.0634766
  40.2663612  12.7552462  49.9365616  76.7113113   1.5540598  22.6566672
  75.8487558   1.9421735  22.5097060  77.0989132   2.0874995  23.3505273
  37.1320558  15.9596705  30.5132318  37.1467423  16.5697372  31.2506819
  37.6426554  15.2079785  30.8140254  45.5225277  17.4609721  31.9216514
  45.5630445  17.7612662  31.0136795  45.7315683  16.5280461  31.8749285
  66.2466383  73.8110542  56.9462776  67.1181822  73.4192896  57.0025301
  65.8886194  73.4814310  56.1220169  49.6602631  21.9615555  34.2788863
  49.6160460  22.6062059  33.5726976  49.3680716  21.1441040  33.8756061
  30.9643745  13.7862945  36.4519262  30.5296230  12.9398787  36.3479877
  30.6716585  14.1025484  37.3066378  62.0660448   4.1106841  14.3628824
  62.3411655   3.6626065  13.5630286  61.4955568   3.4822014  14.8053575
  50.9529972  16.0286105  28.6235952  51.4027262  15.9377158  27.7835250
  50.9704781  15.1491332  29.0010166  60.8004427   7.2514606  44.1160488
  59.9216604   7.5905150  44.2863750  60.9001160   6.5247065  44.7309685
  36.5201354   9.7705835  19.5313764  35.9697175   9.6744734  20.3085732
  36.1723614  10.5429661  19.0856087  40.3327894  41.7402077   3.9318570
  40.6843996  41.1886692   3.2329971  39.5929575  41.2427330   4.2802864
  30.5690885  65.5471516  35.4918551  29.6374655  65.3303528  35.4556775
  31.0033536  64.8102188  35.0622344  62.2822618  35.6182861  64.8726368
  62.1776628  35.1308799  64.0554905  62.3000717  34.9448299  65.5526161
  55.2669001   1.6228321  28.5255003  55.8545399   2.0798168  27.9237771
  54.9585009   0.8645235  28.0294228  60.0358677  78.2086992  30.8504844
  60.3785610  78.2439375  31.7435431  59.0955782  78.3585310  30.9486723
  35.8735847  72.5558186  20.7351375  35.8975840  71.6488171  21.0401082
  35.8205986  73.0766344  21.5364981  82.3203373  12.5346100  58.6801243
  82.2571278  13.0050373  57.8489017  81.4116287  12.4035358  58.9508677
  12.2387266  74.0510941  58.0358315  11.7369282  73.4956264  58.6323929
  12.9234767  73.4768867  57.6928520  38.4909320  65.7837534  51.5696716
  39.3007970  65.7681084  52.0796776  38.2549644  64.8618412  51.4665747
  45.7823753  63.3825588  59.5129776  46.5624666  62.8431129  59.6421576
  45.0634956  62.7534580  59.4523382  56.3578892  17.7830875  36.0472775
  55.8402252  17.7977693  35.2422667  56.7502975  18.6548162  36.0956311
  69.8581886  10.2020669  35.6137681  69.2055845  10.9022546  35.6051373
  70.6012297  10.5730522  36.0896826  18.2714760  74.8318815  25.3306103
  18.8817739  74.1443443  25.5971932  18.1308985  75.3482628  26.1242223
  42.5783253  22.7954268  23.3030725  41.6277599  22.8585505  23.2099199
  42.8163052  23.5474491  23.8453436  56.6801786   0.6378801   7.5711209
  56.0744858   0.7902604   6.8457615  57.3405361   0.0456541   7.2113580
  27.7754879  34.2703128  47.2224951  27.7253652  34.5438075  46.3065672
  27.2487664  33.4721065  47.2632790  31.1602044  76.3360023  68.4202766
  30.6051660  76.8304825  69.0233183  30.8311534  76.5635204  67.5506830
  35.7532167  10.4540122  61.6543388  36.7098117  10.4381311  61.6844749
  35.5456114  10.6524134  60.7412291   7.8650016  68.1176615  57.9688501
   7.7789247  68.9912891  58.3504295   8.8091928  67.9652977  57.9298592
  63.5256386  40.2145910  66.6188765  64.2617893  40.7488680  66.9169807
  63.2833624  39.6925497  67.3837328  53.0124140   8.8013178  45.0618982
  53.5483837   8.6919767  44.2763996  52.1334791   8.5361993  44.7909451
  42.9191446  28.9285588  11.2004697  41.9944906  29.1113448  11.0336447
  43.0618477  29.2184973  12.1014714  18.8935149  38.4011388  61.9092846
  17.9801869  38.3265781  62.1858788  19.3982339  38.1085086  62.6681376
  64.8891211   9.5906931  31.2029457  65.7231855   9.2845249  31.5590811
  64.4935513  10.0916195  31.9162679   9.3499529  77.8292751  33.1472397
   9.8956066  77.9748297  32.3743820   8.4557778  77.7994442  32.8069568
  11.7315686  52.8363514  59.8905230  12.0620036  52.0031071  60.2263021
  12.1538985  53.4991598  60.4369259  13.1544113   6.0420305  51.3656902
  12.7260196   6.0247427  52.2214985  13.2996094   5.1203859  51.1518621
  31.7678881  24.6699357  13.0818355  32.3519778  24.2521429  12.4489689
  30.8878016  24.4842482  12.7544224  59.7370529   9.8619807  23.5699677
  60.1173830  10.0881565  24.4187474  58.7961912   9.8050588  23.7366199
  20.6150699  65.6850052  41.0749054  20.6402087  65.8262157  40.1285124
  19.7145224  65.8926058  41.3242054  81.6955471  43.4851313   1.0239773
  82.4814034  43.9734459   1.2693760  80.9810638  44.1137362   1.1269186
  13.4951234  70.2625942   3.9530143  13.3420551  71.1871862   3.7582374
  14.4380200  70.2031231   4.1067663  75.2642965  12.2537851  12.6316619
  75.9194708  11.7316294  12.1686971  75.7446051  13.0222619  12.9398489
  10.0745094  48.0430031  48.5827208   9.8707873  47.6207018  47.7482224
  10.8736718  48.5408783  48.4104013  17.6273108  75.9580946  13.8922417
  17.7013874  75.7012606  12.9731226  18.5285568  76.1264753  14.1672623
   7.5092155  75.7200336  39.4675589   7.0897889  74.9970770  39.0010333
   8.2035649  76.0146236  38.8782144  63.4925127   7.6145190  36.0943270
  62.8681517   6.8948972  36.1867976  63.8891888   7.4783742  35.2338934
  27.7624989   6.3118571   9.1493970  28.0555654   5.7175189   8.4586680
  28.4513831   6.2667006   9.8124456  79.8557901  68.4748602  36.5932107
  80.6505489  68.6884403  36.1043620  79.9408245  68.9615154  37.4130678
  20.7528114   1.4336030  28.5014534  21.0326791   2.3370916  28.6484742
  21.2917137   0.9156238  29.0993786   6.2800634  23.9936948   7.8146988
   5.7783437  24.6076822   8.3509141   6.2102211  23.1588531   8.2777256
  63.0828238  17.6571369  39.1260791  62.1457529  17.6686001  38.9311457
  63.3887768  16.8179274  38.7820578  58.1103468  25.7266378  63.8919210
  57.4129772  26.3805914  63.8444328  57.7744865  25.0615382  64.4928122
  54.0776062  15.5483401  34.0071011  53.6609697  15.9496415  34.7697330
  53.4726763  15.7203376  33.2854986  28.3447599   8.4361106  60.1626730
  28.0200076   7.9173392  60.8986378  28.6385465   9.2563838  60.5589962
  35.9044433  72.8190660  40.5038023  35.5327392  73.6757803  40.7138252
  36.7661762  72.8231907  40.9204960  17.1535337  61.6989946  60.3684187
  17.1679437  60.7540751  60.5205727  17.5690889  61.8102694  59.5133352
  19.0812969   9.2877060  19.5750952  18.6313426   8.8381696  20.2904201
  19.9995792   9.3073279  19.8445463  31.0349011  31.7820263  31.6489267
  31.9118738  32.1608758  31.7091179  30.4563308  32.5351548  31.5294123
  64.6022367  15.0661433   7.3998368  65.1434183  15.7823002   7.7322078
  64.9056911  14.2946422   7.8783071  79.9196005   8.1942362  45.1320028
  79.5288754   8.0343992  45.9910822  79.1878033   8.4809309  44.5856380
  18.9499664  74.5090342  47.9226112  18.9513636  75.4080391  48.2512760
  18.1122923  74.4216061  47.4677610  57.9383564   6.6749340  14.3806958
  58.5750055   5.9602010  14.3890953  57.6101875   6.7139387  15.2790356
  66.7162561  20.8768415  48.0060863  66.9294453  20.6291890  47.1063948
  65.7785797  21.0681272  47.9860640  31.2072229  72.2359848  37.3568153
  30.6494784  72.9869986  37.1540070  32.0999312  72.5711298  37.2732782
   8.1260055  77.6827431  46.3959742   8.0128312  78.5424328  46.8013859
   8.6708415  77.8504133  45.6270313  67.6209354  40.3053522   6.2497997
  68.0298519  41.1474609   6.4494711  66.7121267  40.5234289   6.0430562
  57.4187613  43.5385227  25.2187228  56.4722919  43.5982132  25.3485942
  57.5394297  42.7446890  24.6976686  34.2965174  19.3454587  11.9623971
  33.7488437  19.9544740  12.4577606  34.6298599  19.8642564  11.2303007
  31.5547156  79.3413019  46.2351131  31.0507798  79.4645834  45.4306984
  32.4651980  79.2973995  45.9430027  42.4109697  34.3824959  59.7860765
  42.2466040  35.2771068  60.0842142  42.8327608  34.4879150  58.9333105
  58.1420231  20.5635834  41.3895607  58.3083487  20.1519442  40.5415487
  57.5223923  19.9768496  41.8231869  46.9783783   7.0244658  55.8640766
  47.7509499   7.4097794  56.2774754  46.2625170   7.2141510  56.4705324
  22.4700165  42.1659899  31.1965299  23.0408025  41.4023781  31.2821507
  22.3627210  42.4864388  32.0920920  40.8731842  14.9113798  27.2803283
  41.7313194  14.4873071  27.2790766  41.0056734  15.7186270  27.7773499
  26.5910721  75.3155088  48.7746763  26.0159802  75.8810520  48.2592583
  26.0150957  74.9215460  49.4298649  16.1221588  48.6821127  19.1961133
  16.4906895  47.7992535  19.1647768  16.7270386  49.2126942  18.6776197
  58.4891844  17.6484036  25.0704336  58.4569550  18.0169261  24.1876078
  58.3757734  16.7067730  24.9411941  36.0650253  24.3747997  40.5260754
  36.7646289  23.7930584  40.2288198  35.2935529  23.8112092  40.5846167
  70.0249720  25.1099277  31.0705805  69.2579317  25.2993226  30.5302000
  70.6977367  24.8402476  30.4453683  37.6220560  72.2775555  47.0740128
  36.6860175  72.0935249  47.1527386  37.8725576  71.8903780  46.2352228
   3.9699107  65.9530544  29.2509127   3.4447417  66.7239809  29.4656134
   3.4675846  65.2164650  29.5992541  61.9863701  29.2162275  12.6097214
  61.3338232  28.8835645  13.2259607  61.9311047  28.6242199  11.8595850
  33.9568281  13.9827788  11.5381086  34.3689370  14.0643644  10.6780267
  33.2212996  14.5947087  11.5102828  24.3796611  75.5526543  33.1679392
  23.9660454  76.2916660  33.6140513  23.6798811  74.9059963  33.0764604
  36.7201495  75.5430126  21.7866755  37.3151207  76.2693071  21.9730616
  36.5126634  75.6359386  20.8568645  40.7033825   9.6535432   3.5761493
  41.6107512   9.4251400   3.3742988  40.4014587   8.9500505   4.1507545
  50.2443123  38.8853884   8.8495255  49.5665836  39.5013976   8.5712218
  50.4398823  39.1362524   9.7523272   0.3964645  69.6067286  58.7735891
   0.6647545  70.5048418  58.9676189  -0.0192044  69.3014240  59.5799637
  53.6018372  19.3996096   9.8589951  53.3244801  18.6107528   9.3931508
  53.2272577  20.1206946   9.3530732  66.5999079  79.7113895  59.7736120
  67.4378395  79.3026829  59.9905443  65.9476185  79.0385818  59.9687481
  67.4036169  34.5794749   1.8181682  67.4748659  33.6495209   2.0334467
  67.1086216  34.9914026   2.6302797  10.6903231  67.6094675  33.7100029
   9.9636060  67.6120663  34.3329859  11.4414215  67.3052263  34.2194366
  29.3267870   9.9581814  23.1508589  29.1971326   9.2450809  22.5256324
  29.0480280   9.5937967  23.9909482  53.8269043  65.0919819  39.6485972
  53.8329697  64.4318342  38.9554882  54.1153860  65.8958006  39.2162991
   1.5338092  73.1431389  18.2923198   1.2592041  72.9075336  19.1784990
   0.7150198  73.2473660  17.8076005  28.3444309   4.5136899  17.4496555
  27.5580096   4.0896180  17.7930701  28.7851596   3.8292474  16.9461393
  24.3942046  25.2292609   0.9734388  23.6974907  25.4468822   0.3541947
  25.0767422  25.8786011   0.8039371  25.2531338  12.7881241  52.4084854
  25.2276874  13.5330153  53.0090857  25.4669023  12.0390952  52.9648018
  29.9714828  73.7015867  31.2710595  30.3650427  74.4251394  30.7834029
  29.5260811  74.1225529  32.0063376  72.1395683  62.8473759  19.7246552
  72.3416281  63.7728453  19.8621511  71.6108418  62.6022720  20.4839993
  33.2708120  34.2244434  22.0158553  33.5988188  34.4674778  21.1500740
  33.6393428  33.3557487  22.1764278  58.1750584  31.1635756  62.3732615
  58.8797188  31.7489624  62.6507711  57.6773834  31.6738701  61.7343950
  66.2503910  19.0908742   1.8372321  66.3305330  18.1462419   1.7050275
  66.2443399  19.4568419   0.9527758  77.3563528  14.3136561   7.3688036
  76.4501476  14.0243089   7.2624981  77.6655626  13.8513625   8.1478459
  59.3761730  25.8932710   5.8015883  58.6470652  26.5110588   5.7470936
  58.9733744  25.0715423   6.0822099  61.6534901  22.5247002  55.9398031
  60.8122587  22.8319168  56.2777090  61.6185331  21.5733242  56.0392714
  35.0649095   7.4139154   6.3792938  35.8683705   7.0981860   6.7928118
  34.4926977   7.6430464   7.1116233  26.3363409   7.5391817  17.8330612
  26.6537213   7.2250253  18.6797059  25.5144906   7.0681310  17.6955724
  70.4466486  45.5224609  43.8080549  69.9925995  46.1954880  44.3151188
  69.9817181  45.4982710  42.9717064   3.2369852  65.8272791  64.6005774
   2.8024155  65.7686472  63.7497282   3.2566950  64.9258995  64.9220753
  19.9464226  14.7918105  51.8824816  20.2245498  15.6747901  51.6391230
  20.7144213  14.4065261  52.3043442  42.9157829   8.7712479  31.7928672
  42.0962238   8.2944703  31.9241548  43.4190416   8.2216102  31.1921501
   5.8597934  64.9851561   5.4522032   6.3891697  64.9672651   6.2494940
   6.1898392  64.2546177   4.9291202   4.2696309  37.4969792   5.0437158
   4.1750267  38.4492397   5.0217688   5.1843673  37.3416781   4.8084068
  71.4315081  29.8892069  24.3984962  71.8208122  29.1643715  24.8876715
  72.1549177  30.5005264  24.2599320  26.5658402  31.7452216  33.0268884
  26.8333530  32.6098251  32.7152348  25.9896493  31.4106202  32.3396635
  46.0668063   0.2210994   8.9189261  45.6420016  -0.6054692   9.1481739
  45.7500350   0.4166884   8.0370915  17.5900078  25.8910012  14.3033683
  18.3664989  26.0510302  13.7670064  17.8715944  25.2373505  14.9434340
  36.4670157   0.5345344  38.3601904  35.7973957   0.9768364  38.8819265
  36.1022758   0.5074339  37.4756217  58.2738781  68.1044817   7.2382122
  57.7758217  68.5058928   7.9502803  58.5466909  67.2553492   7.5857455
  23.4061980  13.4353423  41.9248962  24.0260816  12.7356565  42.1308517
  22.5558352  13.0893934  42.1958828  45.1923418   1.7327660  32.8899789
  46.0651541   1.4380066  32.6300812  44.6644735   0.9344143  32.9047966
  69.9518871  29.0170527  17.3642468  70.5987215  28.3392358  17.1682906
  70.3289175  29.8194289  17.0033169  76.4920330  67.9286098  11.8034267
  76.9249916  68.1248665  10.9726059  77.1996737  67.6406860  12.3801231
  80.4600430  60.4108906   4.2986625  80.7620049  60.9499264   3.5675737
  79.7927570  59.8409367   3.9164096  59.9300671  30.8109736  68.5380983
  60.0542164  30.3097701  67.7321148  59.2311096  31.4307809  68.3294582
  20.5341268  76.9362354  42.0704031  20.8463907  76.8007278  42.9650307
  19.6149564  77.1831417  42.1723652  74.6619749  12.6305914  17.0795429
  74.5603180  12.6625228  18.0307937  73.8659763  12.1998775  16.7679274
  18.7803352  51.3433123  29.0281773  17.8848898  51.6789913  29.0697360
  18.9111412  51.1234617  28.1057954  22.0641065   2.2415704  32.5465798
  22.4303031   2.9951322  32.0836782  22.8268504   1.7194878  32.7953434
  67.1424580  50.5209160  34.5569825  66.5734339  51.1592436  34.9870777
  67.2009706  50.8243275  33.6510324  22.7143312   6.7860931   1.6181578
  21.9440103   6.9769466   1.0829831  22.9961371   5.9175020   1.3311610
  21.9110441  21.9622040  24.9909329  20.9707904  22.0348167  24.8269725
  21.9973469  21.1925411  25.5534291   8.2109487  79.0124035  28.3567834
   8.9159906  79.1539049  27.7250195   7.5483483  78.5219097  27.8703594
  61.6058636   6.8610841  21.3922405  61.4522696   5.9198207  21.4738774
  60.9871340   7.1473396  20.7203293  79.2584324   9.8421198   3.9755201
  80.0952530   9.7651768   3.5172272  79.4079685  10.5194843   4.6351010
  83.2049656  22.1374130  14.9894369  83.6625576  21.3637638  15.3185463
  83.9004230  22.7727842  14.8194802  78.0049753  60.9814072  61.8745518
  77.6448774  60.1293612  62.1206808  78.0824661  60.9423590  60.9212923
  39.6206498   2.1684995  37.5366902  38.9547539   2.2831595  36.8587041
  39.3551373   2.7651361  38.2365203  13.0504131   5.5946231  31.6521072
  13.3609021   5.4687113  30.7554603  13.0473709   6.5441012  31.7734098
  37.2035551  15.0517440  44.0795135  37.5302219  15.7032883  43.4590244
  36.5691924  14.5399559  43.5776281  33.1991720  19.3128550  19.6431863
  33.1447744  18.6048961  19.0012610  32.4665999  19.8895454  19.4263959
  30.7229328   4.8886469  33.0246401  30.2670717   4.0745246  33.2382464
  30.0231719   5.5307895  32.9053926  55.5541420   1.2684093  50.0698614
  55.2702332   0.5910097  50.6836653  56.4021015   0.9610391  49.7493505
  78.9708042  73.3834314  18.8971865  79.5425463  72.7522755  19.3342066
  79.4713926  73.6716366  18.1339192   4.0064308  12.5684524  25.9140968
   4.7902900  12.8849649  26.3631153   4.3405360  11.9938982  25.2252626
  46.2233353  19.7009265  45.3389645  46.8849945  20.2663970  45.7373142
  45.4379225  20.2462101  45.2939606   7.3118293   5.8098793  55.0832415
   7.5096893   4.9788100  55.5149889   7.9558331   5.8726156  54.3778658
   9.3688875   7.8073591  56.3808918   9.9820697   8.5334641  56.4949608
   9.6846819   7.1308333  56.9799089  49.0355015  17.0931280  31.7711401
  48.5207415  16.9853675  30.9713650  49.8564625  17.4872470  31.4762974
   1.8825468  30.6383014  34.4889903   2.7725318  30.3518939  34.6942425
   1.9350675  30.9559751  33.5875702   3.8465816  65.5141020  55.7853222
   4.6659440  65.4969263  55.2907658   3.9352593  66.2670422  56.3696575
  20.4224586  72.1764469  34.9804163  20.6127429  71.2654734  35.2043581
  19.4666076  72.2241735  34.9629998  80.8521938  66.2882042  66.9580221
  80.1954746  66.9147158  67.2620535  80.3453827  65.5232668  66.6855335
  83.3556271  38.7505865  47.4857187  82.8497028  38.3618069  46.7721891
  82.6979351  39.0173984  48.1279755  39.8219299  12.1516979  41.6875410
  40.3555584  11.7215967  41.0193396  40.3995752  12.2204614  42.4476910
  26.8884730  25.4673624  18.0170822  26.9662213  26.1769199  17.3793411
  27.6838732  24.9486899  17.8964603  45.5408287  27.4609113  18.3154297
  45.0447798  27.8555250  17.5981796  45.5654430  26.5275574  18.1045401
  18.4349895  42.3464537  33.2060695  19.2929363  42.0211077  32.9334688
  18.5604703  43.2888556  33.3172703   2.5943542  61.2902403  57.4208927
   2.6866496  62.2387314  57.5107670   2.0625474  61.0290432  58.1726789
  66.2906313  14.9951971  16.0779738  65.8602476  14.6115160  15.3139126
  66.2037134  15.9401453  15.9524739  19.0451586  77.6608276   5.9742272
  19.0425467  77.3698187   5.0623399  19.0096807  78.6158848   5.9209555
  65.3018284  43.8007545  14.7391927  65.6828117  43.7357473  15.6148958
  64.8594332  42.9621840  14.6076083   3.5612622  16.4321327  48.8807154
   3.1153780  16.5389037  48.0404663   4.2104000  15.7468116  48.7220097
  62.1764612  76.9787121  43.5156775  62.3098516  76.7575645  44.4373798
  63.0037260  77.3751307  43.2423306  25.6989288  13.1137300  58.3722353
  26.2938261  13.7112308  57.9191113  24.9551821  13.6612797  58.6237574
  59.3978310  14.7489893  36.9073009  60.2159882  15.1528323  36.6178823
  59.6333694  14.2761958  37.7055621  42.9249859  10.9034884  28.4321189
  42.7593470  10.7078981  27.5098729  42.8020144  10.0666654  28.8802671
  32.2753859  49.5112896   6.0619962  32.2167587  50.2633667   6.6512126
  31.6992044  48.8548088   6.4535052  -0.0248476  76.4582920  20.9526014
  -0.0387331  76.7469263  21.8651390   0.9050898  76.4081478  20.7313776
  45.6454420  70.3952408  37.1954107  46.4567518  70.6779718  36.7734289
  45.6079865  70.9022808  38.0064201  52.8549385  12.2309709  42.0221186
  52.4405766  11.5135741  41.5426588  53.7179375  12.3220456  41.6181803
  19.5902431  53.2517862  12.7698040  20.1515484  52.4809933  12.6858640
  18.7833202  52.9188347  13.1625533   6.2244338  67.1648645  20.9808373
   6.6338164  68.0246258  20.8836150   6.4964098  66.6805506  20.2012873
  50.8857203  28.0460095  17.3666024  50.5727673  27.1792436  17.6254654
  51.5010166  27.8753805  16.6534913  22.8617597  61.5456772  67.9633045
  22.6003718  61.9393349  67.1308708  23.7009883  61.9571352  68.1697702
  48.2330084  76.1099529  53.3995152  47.9196262  75.2069473  53.4505987
  48.8912868  76.1745262  54.0914202  15.4924393  76.6826630  31.1148429
  14.6319997  76.8124533  30.7160568  15.3166199  76.1651754  31.9006705
  59.4875193  14.5194817  14.2658508  59.6547985  13.7024248  13.7960994
  59.2170382  14.2415643  15.1409709  51.7263317  12.5961518  21.8688846
  51.8463755  12.5705004  20.9195900  52.6124525  12.6837587  22.2200823
  56.0418606   8.1210124  30.3793788  56.4276886   8.7453955  30.9937978
  56.3200665   8.4302551  29.5172858  14.7595191  41.9639397   2.5758627
  13.9703202  41.7215586   2.0914578  15.3355873  42.3512602   1.9168030
  51.1180496  32.1226454  24.8887134  52.0033216  32.4821281  24.9461579
  51.0280561  31.5812016  25.6729150  44.8941040  25.4130793  32.8980136
  45.4215050  24.7390652  33.3267188  44.4989586  25.9028077  33.6193037
  19.5084321  58.4039783  38.0833125  20.4531217  58.5328054  37.9984570
  19.3215740  57.6375294  37.5412130  56.8942451  30.7720470  15.5628705
  56.5584183  31.5284443  15.0819206  57.5469828  30.3869748  14.9781609
  41.9036818   4.2310867  24.7328973  42.2187996   4.0433630  25.6170297
  42.3006725   3.5517147  24.1878486  60.8026838  40.5388975   5.5705917
  60.9998846  40.4003191   6.4969492  61.2760973  39.8409104   5.1179081
  78.5255098  16.7576098  56.2462473  78.7698984  15.8321357  56.2463617
  78.6924076  17.0495176  57.1424437  49.4797373  27.0302153  22.2123575
  50.2544260  26.4793277  22.1000695  49.8129606  27.8334379  22.6123929
  42.6367998  60.0028515  56.9955683  42.0157146  60.5734491  56.5429020
  42.8223133  59.3047380  56.3675117  19.9595857  72.9658604  63.1868362
  20.0382304  73.9062929  63.0267429  19.9653625  72.5730038  62.3139906
  29.8943639  74.3204260  57.6487732  29.6761727  75.2242613  57.4213886
  29.7273993  73.8247776  56.8470955  77.1188879  63.9251661  20.8403373
  76.2893724  63.8576651  21.3131785  77.7827024  63.6804819  21.4850950
  51.7958355  29.8752975   8.4585536  51.8025732  29.0553236   8.9523447
  52.5112963  29.7819805   7.8295505  71.0773611  24.4574618   5.4801112
  71.1788082  24.7014260   6.4001232  70.4623365  23.7241101   5.4932016
  11.7664289  72.4703217  49.2372179  12.3796713  72.1073723  49.8763037
  11.9845939  73.4014988  49.1979790  80.6285858  25.2340388  15.0726748
  80.2778912  24.5272303  14.5307708  81.2758541  24.8070002  15.6338453
  16.0707951  12.4015927  32.5904298  15.6354403  13.0860615  32.0822954
  16.5179944  12.8729188  33.2933497   2.2125256  62.3025322  14.4625199
   2.8765577  61.6145754  14.5073211   2.6925024  63.0805922  14.1788292
  78.2936001  15.1280725  28.1568789  78.0283213  14.2086482  28.1796026
  79.2438745  15.1060295  28.2696772  70.8336067  15.2550864  26.2526464
  71.4398527  15.8142996  25.7668734  71.2452936  14.3909895  26.2436533
  26.2952590   1.2527239  24.1789508  26.4756584   0.7615065  23.3774567
  26.6394019   2.1289076  24.0054584  60.9046507  34.7129512  16.3218808
  60.1215219  34.2140722  16.0893714  61.6285372  34.1036439  16.1770916
  31.3672733  19.6644080  14.7854030  31.0391927  20.5535913  14.9193716
  32.3072410  19.7749519  14.6423125  64.3277073  25.9902477  50.2744770
  63.9519024  25.1173997  50.1598549  64.9497509  26.0798955  49.5524931
  51.9502068  28.0176139  66.2446022  52.5003862  28.7412286  65.9447289
  51.7346954  28.2399845  67.1503258  81.5457249  19.3948448  19.8952103
  81.6698360  20.3090334  19.6400917  80.6489563  19.3586767  20.2279711
  35.5817413  30.3923225  47.6543665  35.8622837  31.2238598  47.2721672
  36.0145712  29.7255254  47.1211958  26.1785436  17.5348771  25.4318285
  26.3886499  17.1913099  26.3001895  25.4436326  16.9989693  25.1335979
  65.4203463  73.6085415  37.6770020  65.3024626  73.3397388  36.7659140
  65.6699991  74.5311022  37.6241446  73.3398104  29.3599033  40.9461164
  73.5316467  30.2975774  40.9319639  74.1501188  28.9451599  40.6501102
  83.7048817  54.4728184  59.8164129  83.4346962  55.2394962  59.3110037
  84.3584156  54.0412855  59.2660522  57.8265762   9.1870129  18.6623478
  57.6596355   8.3151668  18.3042324  57.4082899   9.7846389  18.0425823
  56.0514879   2.7240008  39.2459655  55.3347015   3.0592012  39.7845626
  55.7765770   1.8393603  39.0049982  22.3949957  77.7890539  47.3112917
  22.6772571  78.6389160  46.9732141  21.5610003  77.9689217  47.7452660
  29.0253115  27.3178887  29.5907021  29.1822052  28.2613087  29.6304083
  28.9264464  27.0528316  30.5051422  53.2150221  19.5663178  50.8796310
  53.7684155  19.8328590  50.1455021  53.4376669  18.6469424  51.0259533
   8.8732451   3.4892347  43.7863016   9.2811155   4.0152806  43.0984402
   8.9483386   4.0264505  44.5749664  65.9054995  10.4728544  37.8840256
  65.4889584  10.2642059  37.0478511  66.7991495  10.7239139  37.6503825
  17.9871213  76.4720058  34.6237850  18.8589108  76.6191721  34.2569637
  18.1503808  76.1919212  35.5244136  32.7787614  78.7237072  15.0856555
  31.8824649  78.6215830  14.7655690  32.7462173  79.4993925  15.6455481
  53.3231068  21.3423014  30.5218911  53.2523727  22.2786570  30.3362465
  54.2255974  21.1202335  30.2929163  29.7822094  70.0457573  31.3148332
  30.5689621  69.7461367  30.8593369  29.9872637  70.9414005  31.5831852
  56.3790512  39.8229504  64.9907494  55.6178141  39.4225025  65.4107332
  57.1313524  39.4096088  65.4143333  12.7401590  33.1976819  33.5798335
  12.1057010  32.5937748  33.9658284  13.5651863  32.7123404  33.5826421
  53.6588907  74.4304037  31.3636303  53.3092928  74.5452356  32.2472739
  53.3804464  73.5509062  31.1083150  19.9405491  22.5004578  58.0612183
  19.3393552  22.7912331  57.3754740  20.7556987  22.9680204  57.8791571
  50.0945902  12.0338118  19.3182206  49.8804903  11.2775993  18.7718379
  49.6927595  11.8390226  20.1648736  80.3150940  32.2403550  56.1164427
  80.1211452  32.0971131  57.0427752  81.0274887  32.8796673  56.1169624
  65.3369999   5.6626296  27.5548005  64.6282530   5.1616454  27.1511602
  66.1370277   5.2387577  27.2441196  82.0241642  33.6081767  13.8570201
  82.7512836  33.7492847  13.2507002  82.0023060  32.6602745  13.9883184
  43.6195517   8.1729114  17.0472515  43.5456324   9.1260040  16.9984412
  42.7329206   7.8548861  16.8770242   6.9782466  65.7918644  35.0325155
   6.7779589  65.6508732  34.1071844   7.5473005  66.5615129  35.0398326
  74.8173475  21.5278363  14.0075457  74.5191622  21.0369539  14.7732806
  75.4009199  20.9239197  13.5482454  23.9414144  29.6561861   0.7146394
  23.1062841  29.3918681   1.1005461  23.7984705  29.5961308  -0.2299199
  15.2708435   5.2471483   6.9644636  15.4571545   5.7959962   6.2026989
  14.3238342   5.1108682   6.9356167  50.2681684  10.1819789  22.9560494
  50.8730650  10.9057069  22.7930951  49.9890375   9.9022061  22.0842433
  67.8930807   2.3746911  53.3135080  67.8896618   1.5229903  52.8766727
  68.7719774   2.7203187  53.1575775  10.8364522  25.5904341  29.1786528
  10.0614643  25.1678896  28.8084078  11.3996983  25.7613611  28.4238195
  83.9767170   7.3905224  28.0569744  83.0208874   7.3559970  28.0191851
  84.2612171   7.1048623  27.1888185  15.5247903   3.6620873  46.4843321
  15.7550240   4.3638933  47.0931816  15.2593446   4.1162577  45.6846476
  30.7809687  79.0434027  11.5770972  30.1242924  79.6894598  11.3170612
  30.4975247  78.7488031  12.4426031  71.3655996  12.3767471  26.7156744
  70.4906559  12.0803726  26.4649510  71.9455433  11.6631854  26.4497304
  53.9073753  14.1509354   7.3848665  53.1863499  14.7160065   7.1072906
  54.6850443  14.7051156   7.3189175  30.3265905  10.3189588  64.0523386
  29.3719411  10.3176439  64.1221476  30.5605531   9.3964165  63.9503145
   8.9430970  54.4992113   3.8902417   9.2705399  53.8559628   4.5189252
   8.8625151  55.3082800   4.3953592  81.5832138  10.2859569  64.0869904
  82.4314117  10.5391622  63.7227440  81.3752270   9.4570404  63.6558628
  22.4181366  54.0973234  65.7132435  22.9436183  53.9367342  64.9294615
  21.6883039  53.4820414  65.6424999  73.7957048  53.7780809  23.1796551
  73.0401516  54.3396521  23.3528829  74.3804836  53.9274311  23.9225984
  67.7036333   3.8194147  35.6405830  67.5421143   4.2610368  36.4743161
  66.8395042   3.5222602  35.3555942  44.7450733  33.5706830  13.9307249
  44.8649263  34.0872598  14.7276032  43.7958431  33.4876108  13.8396454
  75.7260752   4.0157551   0.3555211  75.1380157   4.6162573   0.8135769
  75.7705212   4.3584129  -0.5371388  21.2442994  55.6571770  55.8666754
  21.3437176  56.5198040  56.2694407  22.1272850  55.4231930  55.5806351
  73.1173706   1.1164213  25.9062314  72.2514486   1.5242201  25.9168005
  73.1750345   0.6549834  26.7428803   5.0940591  62.6402473  59.7923613
   5.6392872  63.3950043  59.5703316   4.4858941  62.5596762  59.0575981
  33.7237096   7.4257350  12.6107192  34.0819860   8.2498968  12.9403079
  33.4322119   6.9606709  13.3949232  31.9895601  71.2392759   4.6931723
  31.3874936  70.5025673   4.5882326  31.9427013  71.7075014   3.8596249
  65.6442022  73.9349747  44.1058540  64.9345589  73.4673119  43.6654711
  66.4096022  73.3717299  43.9911938  76.0189056  72.9746199  36.7259169
  75.3234863  72.3489523  36.9287944  75.7369852  73.3901501  35.9109998
  67.2593260   3.6949304  18.8133883  67.3874331   2.9285279  18.2544184
  67.6732254   3.4579590  19.6433067  70.4485607  16.5303242  38.6671233
  70.5215311  17.1145415  37.9124069  69.7051334  15.9638727  38.4605360
  61.9921350   0.2449683  31.5843153  61.5175247   1.0760411  31.6014886
  61.5210199  -0.2866786  30.9427261  77.2279882   9.9462348  19.0294147
  77.9880285   9.9127889  18.4485042  76.5145016   9.5726842  18.5120869
  68.6280870   6.0622942  12.9909837  68.3494806   5.3946245  13.6177421
  67.8163767   6.3562918  12.5775588   0.1701419  76.3264942   3.5318294
  -0.5251395  76.8699646   3.9025757   0.7460500  76.1362600   4.2723507
  14.7926056  52.1480131  26.0910773  14.3794131  52.4328470  26.9061685
  14.7611213  51.1920404  26.1279178  23.6455250  45.8095932  31.5363264
  24.4622755  45.7667780  32.0336390  23.5956311  44.9670887  31.0847378
  49.5107412  20.6552744  39.8583317  49.6619225  19.7649682  40.1757145
  48.5586977  20.7541037  39.8667073  64.5214272   7.0360661  33.5821795
  65.2436495   7.6476389  33.7257433  64.9457693   6.1842728  33.4791446
   3.2441199  18.9959931  26.1168027   3.3098918  18.1333113  26.5262985
   3.9210582  19.5178699  26.5476513  56.4685535   7.3776734  26.2704301
  56.0529137   6.5524894  26.5205264  57.2303200   7.4462426  26.8459654
  55.3644419  22.1220183  10.4712021  54.5710230  22.6527882  10.5419064
  55.6454134  21.9894743  11.3765860  77.2771311  12.1485126  32.8419161
  76.9101858  11.4979088  32.2433352  78.2245827  12.0669925  32.7327132
  11.0839903  33.3023095  17.6555693  10.9524441  34.0978146  18.1714189
  10.9715426  32.5884748  18.2832837  74.9232149  21.5814281  64.6831369
  74.8876333  22.2241759  65.3915405  74.7723484  20.7405496  65.1148701
  46.8736553  19.6912992  37.3645139  46.6789913  19.8053479  38.2947445
  46.7705536  18.7520278  37.2116375  45.5745506  15.3135073  15.7981062
  46.1163521  15.7644176  15.1505232  45.7992792  15.7299840  16.6301382
  11.4514136  52.3389006  38.5134673  11.3392854  51.6398287  39.1576409
  10.9495020  52.0463514  37.7527213  65.8994961  16.6341937  20.3319740
  65.5094814  16.7439163  19.4647467  65.9113121  15.6872487  20.4712129
  47.6855993  16.0039008  22.8793979  46.8709087  16.3384688  23.2543349
  48.2660198  16.7644942  22.8504062  42.6386833  23.3036637   5.5732769
  42.6247978  23.8632250   6.3497639  42.2593927  22.4756765   5.8679128
  44.2601871  17.0487964  27.4587750  43.4594774  16.7553508  27.8935003
  44.6844959  17.6203346  28.0987287  41.9120741  23.9617252  44.7819567
  40.9762096  23.7617207  44.8016071  42.0540380  24.3592954  43.9228773
  45.0529957  16.3945770  41.7337704  45.4509163  15.8674109  42.4265814
  44.6105671  17.1053326  42.1977854  34.2360902  21.7013192  53.3541679
  33.5070086  22.2707534  53.5999632  34.8597336  21.7858839  54.0753794
   7.1719539  52.4799585  52.0858431   8.0272704  52.0607901  52.1805239
   7.2586662  53.0275917  51.3055849  32.6563978   3.7701607  64.4515371
  33.4881592   4.1907635  64.6694803  32.0228672   4.1687477  65.0481939
  46.6073036  14.5607162  37.6239467  47.3596096  13.9787614  37.7316475
  46.4886665  14.9607313  38.4854245  25.2117872   6.3210475  10.2750540
  24.5805836   6.6779339   9.6501964  26.0330129   6.2740564   9.7855520
  74.6816206  72.2216034  17.6147592  73.9556265  71.6761923  17.9175627
  74.2920637  73.0854368  17.4795794  67.0874786  41.7906427  19.3698323
  68.0274057  41.8395615  19.1955602  66.8798018  40.8585882  19.3036485
   2.8180850  73.0726385  63.9377880   2.7552554  72.2794819  63.4056377
   2.3764671  72.8473186  64.7565889  42.9655886  27.3821521  39.8782587
  43.6460066  27.9622626  40.2199221  43.3717155  26.9547009  39.1242170
  61.6893196  17.4523711  63.5127497  62.4915028  17.9684412  63.5927916
  61.0110378  18.0947876  63.3042574  75.0938272  24.6078944  32.7993274
  75.0773668  24.1325831  33.6300135  75.8392096  25.2031565  32.8787112
  82.1318245  47.6212549   6.0717160  82.1628284  47.9826403   5.1858985
  82.1661568  46.6731119   5.9449208   3.5107151  25.8181572  20.1373243
   2.6263607  26.0829306  19.8842573   3.5351998  25.9410691  21.0862851
  81.7461300  78.4110975  36.0472775  82.0207596  77.5979757  35.6234312
  80.7903862  78.3612680  36.0644913  71.8141031  45.7948399  38.6894894
  72.0060062  45.2026367  39.4166088  72.2297478  46.6207552  38.9371538
  17.9493439  23.8017845  11.3368857  18.6385953  24.4134450  11.5957963
  17.2738528  24.3545008  10.9438848  69.3350649  33.5419250  40.3554630
  68.8504648  33.8067627  39.5736337  68.7783432  33.8127232  41.0855007
  77.5587225  61.5553808  43.4063911  76.6039276  61.5390682  43.4722137
  77.8551865  60.9316254  44.0691662  12.2082591  59.0579176   2.8870553
  12.2366107  59.9618530   2.5734752  11.8818033  59.1257954   3.7843025
  77.3701620  15.5138111  31.9011998  76.9777107  15.3475535  32.7582717
  77.9832220  14.7897935  31.7739820  57.0807028  52.3276949  29.8226094
  56.8905878  51.6204977  30.4390168  57.2734594  53.0835724  30.3773427
  54.8202991   0.1044656  64.7445679  55.6530619   0.5023159  64.4906998
  54.9587059  -0.1863215  65.6459618  12.6873946  35.7276225  31.8786716
  13.2380021  35.5265880  31.1219358  12.7059782  34.9297309  32.4071193
  73.8872957  60.7997417   5.0594836  73.0780649  60.2896643   5.0249404
  73.6027098  61.6854286   5.2848774  62.6553631  63.4350061  35.1464820
  62.6828861  63.3206844  36.0964322  62.5518465  62.5481892  34.8014164
  43.1219053  66.9450521  17.2751975  43.1745720  66.4360142  18.0841100
  42.6433659  66.3808107  16.6678619  79.0299225  64.1596270  49.1971731
  78.5907078  63.3482695  48.9421749  79.3627501  64.5203018  48.3753681
  67.7797699  30.2558732  48.6953068  67.2172213  30.6035352  49.3873310
  67.9724550  29.3596792  48.9708853  81.1442852  70.6071472  57.0914507
  82.0108700  71.0135460  57.0811033  80.5453968  71.3252735  57.2960329
  42.2540092  19.8085654  11.2333524  41.3009310  19.8943603  11.2108660
  42.5720692  20.5259538  10.6852424  50.1201773  76.1699152  55.3566360
  50.7071304  76.4655447  56.0525656  49.4595385  75.6442499  55.8076954
  12.1882963  29.4575572  51.9044113  11.6599178  29.4413519  52.7023983
  11.5490425  29.5256495  51.1952209  61.8642330  36.2888527  13.2382667
  61.8004799  36.9180822  13.9567626  61.4966249  35.4801559  13.5947871
  67.4222469   5.2274966  48.3380461  67.7773094   5.7626539  49.0478134
  66.5316534   5.5553961  48.2133293  56.1680508  74.4223547  57.2995567
  55.8250427  73.5420847  57.1456051  56.6457367  74.3521118  58.1260633
  14.9978864  76.8768787  22.4906945  14.1828191  76.3782120  22.5475192
  14.9492657  77.3195457  21.6433954  55.2426338  71.7139101  35.8052611
  54.9844265  71.7952299  36.7233825  54.4341993  71.8631744  35.3149724
   0.5063308  29.1426420  37.4102879   0.8310948  28.8311410  38.2551122
   0.7235039  30.0748134  37.3991394  58.9176941  12.6122916  40.2754498
  58.4939766  11.8397009  39.9015522  58.2772684  12.9598784  40.8961535
  63.7080717  33.2862830  17.0751786  64.1708374  33.2567978  16.2377942
  63.3225393  32.4149394  17.1665835  79.0835953  37.6570749  52.1322918
  79.5389891  36.9418359  52.5764561  79.7847605  38.2151771  51.7959595
  63.5538340  74.9939632  33.9473033  63.8882589  75.6190491  34.5904684
  64.3131161  74.7780085  33.4059286  76.5186787  12.8654933  38.9972925
  76.3117886  13.4934986  39.6894169  77.4407673  12.6500392  39.1371751
   1.5073830  38.8213325  48.6472130   0.5912296  38.8002825  48.3707142
   1.6621941  39.7331238  48.8940001  82.2356987  30.5100703  54.3198109
  81.9851303  31.1885762  53.6928558  81.7222214  30.7065749  55.1033640
  67.0188856  62.2548628  42.3933458  66.8477917  63.1174755  42.7713108
  66.5694284  61.6440344  42.9773951  71.8413973  40.3962708   7.4025488
  71.5550280  40.1710176   8.2876945  71.3113928  39.8409629   6.8307483
  18.9550531  41.9399452  28.2337499  18.6877406  42.4208689  27.4504948
  19.7368264  42.3987055  28.5413241  62.2989559  34.9622488  29.1887784
  61.3680744  34.9516129  28.9661098  62.3333311  34.6415472  30.0900006
   8.5204089  28.8508248  39.0560389   9.4214720  28.8412166  38.7332010
   8.2351476  29.7575116  38.9430094  71.6464901  42.1692085  33.2849669
  70.9759045  41.5051270  33.4447932  71.2515974  42.7585316  32.6423240
  78.3630466  30.5541945  43.5188723  77.6040697  30.7037234  42.9551172
  78.4480524  29.6015954  43.5584307  56.3243341  29.1506028  12.4602628
  55.9462595  28.3170414  12.1801424  55.5705118  29.6802926  12.7199054
  72.4305201  23.2184768  23.2207584  73.0089617  23.5907531  22.5551367
  71.7868280  23.9062858  23.3904910  59.0548468  67.0276642  26.6459107
  59.6380424  67.7817965  26.5598845  59.5441675  66.4068222  27.1856785
  26.6376710  65.8029318  54.7434378  26.7871666  64.8575258  54.7339201
  27.0504451  66.1187935  53.9396477  55.4482317  66.0257816  44.7570658
  55.4903793  66.9524717  44.9930811  55.1218128  66.0224009  43.8572454
  53.4158134  74.2993259  25.8258915  54.2268705  73.8202763  25.6558013
  52.7812815  73.6212444  26.0578632  77.6626921  52.5666714  12.5264299
  78.0819321  51.7074442  12.4795473  76.7496586  52.3762560  12.7416921
  70.4490423  52.7004862  37.4650431  70.3964090  52.3838806  38.3668327
  70.9669399  52.0376062  37.0083141  27.3110342  70.8597803  27.4928784
  27.8003478  71.5050554  28.0031967  27.0110774  71.3415480  26.7220640
  63.0184460  55.2308559  18.7614715  62.6579332  55.8322287  18.1098461
  63.9367199  55.4884529  18.8429987  65.4704905  29.8489261  10.9907615
  66.2976122  29.5667529  10.6002736  65.5653143  30.7957458  11.0945380
  30.1514935  69.9987984  17.0935357  30.8924174  69.6509218  16.5973043
  29.5437193  70.3161383  16.4256024  28.3799601  18.9171255  38.3048296
  28.8592148  18.6362898  39.0843654  28.5996008  18.2640278  37.6404119
  39.7887540  11.6965246  31.8131757  39.5913124  11.2286866  31.0017729
  40.4445553  12.3466802  31.5612793  78.1099224  33.2660222  17.2958958
  78.3976793  33.8858867  17.9661143  78.7783194  33.3240581  16.6131759
  14.4391215  35.4824758  29.6970081  15.1461267  34.8372149  29.7003937
  14.7821689  36.2109327  29.1794181  55.7626915  35.6499481   5.0135648
  56.6696692  35.9227014   4.8748952  55.5057716  35.2430677   4.1861168
  74.9305725  42.6555252  42.1559000  74.5391893  41.9463348  42.6659012
  75.0542784  43.3644247  42.7870750  64.7249365  43.1834984   1.6564149
  65.5016899  43.6155939   1.3011974  64.3909502  42.6565313   0.9304754
  68.5046625  40.9144354  42.7238274  68.9149570  40.9542990  41.8599415
  68.8646698  40.1227522  43.1236649  61.8348074  15.4054737  20.3940105
  62.5598955  15.2359581  20.9954596  62.0613861  14.9177027  19.6021950
  70.3416538  32.1547341  20.1371193  70.8992863  31.4286804  20.4166293
  70.8954525  32.9303098  20.2266717  66.8058634  44.8070288  11.0570705
  67.2565556  44.6667719  10.2243400  66.4448977  43.9493704  11.2814724
   1.0651516  12.0156956  11.1516690   0.7706705  11.3697755  10.5095625
   0.2623086  12.4496651  11.4403641  16.7571199  77.2905302  10.4000437
  16.4359593  76.8848944   9.5947194  17.0094454  76.5530062  10.9555829
  76.6402388  39.7754145  40.5819321  76.4371777  39.0496087  39.9918461
  76.9057083  40.4888344  40.0015974  13.6603737  26.7349410  48.7931967
  14.0603101  26.0928869  48.2066393  12.8408337  26.9760180  48.3613777
  78.5654306  56.9200850   4.9041051  78.0264235  57.0568705   5.6832033
  79.4214725  56.6636276   5.2471060  59.6431398  37.7075267  28.2041550
  58.9272928  37.7638984  28.8371015  60.0028181  36.8290162  28.3269739
  20.1740503  43.5454798  56.5119457  20.3784084  42.6436853  56.7594147
  19.2703736  43.6740160  56.8001795  75.9768152  18.9683545   0.6653326
  76.9323492  19.0088820   0.7046738  75.6928682  19.1333830   1.5644275
  61.8934393  42.1746302  23.2017922  61.2606668  42.7751064  23.5958219
  62.2947359  41.7269516  23.9466262  63.6688805  46.3431644  52.7418041
  63.9846420  47.2018099  53.0233240  63.2579517  45.9713840  53.5222864
  82.6205826  54.5432186  24.8842454  83.5650349  54.6753740  24.8019958
  82.5342178  53.6888790  25.3071856  71.4641809  76.7618895  55.2089405
  71.1816454  77.6133251  55.5427980  71.5128183  76.8807077  54.2603874
  76.1398935  37.3418665  34.3512750  75.2678871  37.2971892  34.7435021
  76.3300514  36.4417410  34.0869927   2.6346329  40.6439209  34.0683937
   2.9637197  39.7993946  34.3761492   2.6337016  40.5673265  33.1142640
  25.9843898  54.8241711   2.5153244  26.8862033  55.1135921   2.6538935
  25.5556679  55.5693865   2.0945059  50.5485439  58.5287285  14.5015645
  49.8170328  58.0065441  14.8308837  51.2365103  58.4178782  15.1577997
  50.3793383  30.6600237  18.2216561  50.6707001  29.8627067  17.7793586
  49.4924545  30.4580808  18.5197997   7.1378213  37.2607780   4.9732062
   7.7529716  37.0902491   4.2599446   7.6651859  37.1824598   5.7681805
  31.0672092  61.7494869  17.9824388  30.9081936  61.7772341  17.0389473
  31.0442042  62.6663923  18.2562709  65.6316519  31.1883521  28.6086464
  66.3246489  31.2820530  27.9550338  66.0513449  31.4189649  29.4374466
  66.5029716  43.6236572  46.1213303  66.0009289  42.8316164  46.3133097
  67.3580503  43.4683609  46.5225267   2.8084287   5.9522074  13.8570917
   2.0492753   6.4835477  13.6171007   3.2818577   6.4855295  14.4955778
  68.5128450   4.2984119  57.9277420  68.4344482   4.0850624  58.8575602
  69.1696548   3.6861777  57.5960779  19.7425675  27.2235560  32.9665756
  19.9142027  26.8390965  32.1069431  20.4525757  27.8528285  33.0935979
  67.6867008  31.6998029  20.6054449  68.6227131  31.7322946  20.4078174
  67.4629259  30.7706118  20.5529094  83.1538868  39.9647331  13.7101638
  83.5533237  39.2997646  13.1493604  83.0642891  40.7321787  13.1451607
  68.6801434  76.8244648  56.1351871  69.0443516  75.9454870  56.2399912
  68.2480240  76.8044281  55.2813101  43.7456512  19.4283509  32.5231004
  44.5117617  18.8581133  32.4587941  44.0436602  20.2697468  32.1774483
  84.0621090  10.2337933  24.9301910  84.8829842  10.2709579  25.4211211
  83.9023685  11.1386061  24.6618080  60.2245140  52.2613096   4.0649906
  59.9142313  51.5112305   3.5577068  61.1705780  52.1312857   4.1305161
  63.0679798   8.8083410  48.0947542  62.4222851   9.2580235  48.6398220
  62.5586700   8.4458005  47.3699093  36.6247535  36.2395167  10.1203299
  35.9999013  35.5760312   9.8277944  36.1089873  36.8274927  10.6721461
   9.9079627  58.4841776  66.0146713   9.4400620  59.2583370  65.7016563
  10.8095121  58.6139441  65.7203913  68.5870314   6.3584054  25.7561064
  68.3586884   5.6295311  26.3330221  68.3172989   6.0678512  24.8848677
   2.8685462  34.6501994  25.0451636   2.9958746  35.0568819  25.9022689
   3.4581077  35.1292586  24.4627929   5.9786016   3.7752274  26.6479945
   5.4964817   3.1444448  26.1132932   5.9358209   4.5923805  26.1513448
  13.9131510  13.5561550  16.9252813  13.8803220  14.3378830  17.4766922
  13.6951792  12.8361952  17.5172091  75.3464174  24.4190550  25.5306101
  75.4331160  23.8213277  24.7880220  76.2117624  24.8186064  25.6187630
  56.3758230   1.1789946  47.1358824  57.1204901   1.4590585  46.6036510
  56.0649872   1.9818714  47.5542116  38.2861853  17.4819458  24.9172330
  37.7685595  17.4755394  25.7223773  39.0541935  18.0119765  25.1304579
  31.4212418   7.7777433  64.7853613  32.2397828   8.1823295  65.0726414
  31.2217379   7.1328455  65.4639864  21.5892172  63.1412601  60.2651596
  20.8474660  63.4787941  60.7672644  21.7082024  63.7753677  59.5580626
  29.8682833  12.4455845  10.1796579  30.4364324  11.6991925  10.3702843
  29.9915385  12.6076937   9.2443717  51.0749531  19.1268945  13.9494908
  51.1922979  18.2345176  14.2752600  51.9007111  19.3323708  13.5111558
  69.3289661  61.5537262  56.6565371  68.8748503  61.3642454  55.8354998
  69.9317360  62.2645617  56.4383268  38.8477993  73.4123659  21.4297056
  39.3152070  74.0497112  20.8897495  38.0831075  73.8881350  21.7539310
   8.1801170  43.9696550  48.5559273   8.6163247  44.7276354  48.9450502
   8.8955319  43.4169912  48.2413197  26.7827082  18.8149774  18.6335409
  26.9312501  19.7530854  18.7523794  25.8393264  18.7048995  18.7524843
  11.1502564  36.8072319  38.8595963  10.8058250  37.3928237  38.1852961
  12.0593834  36.6540599  38.6021924  83.6646938  35.4406118  48.4188128
  83.8139915  35.0987959  47.5372791  84.1669083  36.2549520  48.4481812
  83.5949230  70.3818750  37.7095366  83.5255241  70.8846712  38.5210848
  82.6879883  70.2169657  37.4516535  54.2989779  65.9348345  50.8424187
  53.5162401  65.6255007  51.2983418  54.8040724  65.1406956  50.6679153
  75.4706097  20.2240539  36.0520244  76.3620043  20.2085590  36.4004683
  75.4924440  19.6182072  35.3112769  68.5725689  56.3874388  66.4319658
  68.5976219  57.2733784  66.7935085  68.4929466  56.5165997  65.4868650
  12.3681188   6.0000682  54.0921164  13.2112801   5.7447803  54.4664669
  12.1386588   6.8095493  54.5485401  73.3240032  63.4007025   5.8711779
  73.4543037  64.3485069   5.9015995  72.8670740  63.1954527   6.6868496
  39.8959184  59.1996479  21.3359785  39.4651008  60.0191450  21.0929799
  39.3169427  58.5157204  20.9994245  41.0914707  70.9900188  61.8347025
  40.9405088  71.8521976  62.2221088  40.2445030  70.5482912  61.8959522
  30.5115581  30.8307528  51.4400434  30.1334333  31.5709615  50.9653425
  31.4161730  30.7846642  51.1305618   2.2607118  55.3929472  43.3873177
   1.6233024  54.7640753  43.0489922   2.4681133  55.9506607  42.6375389
  17.6243865  49.5628881   7.1282852  17.4712026  49.7593737   6.2040770
  17.0851541  50.1972389   7.6005828  78.9216042  44.6089220   4.0244099
  79.2246103  44.0838909   3.2836270  78.8254929  45.4922819   3.6684984
  52.6635790  64.0900040  26.8999362  53.4893942  64.3128204  27.3296094
  52.9097939  63.4669828  26.2162304   8.6248583  78.2280540  23.7772775
   9.3276942  78.8774920  23.7992620   7.8261447  78.7344170  23.9252138
   5.2162141  33.6737943   9.7648519   5.8766699  33.1062436   9.3674648
   5.3086901  33.5263181  10.7060909  26.6495037  26.2948656   9.4999278
  27.0843101  25.4735994   9.2703712  27.2532296  26.9762897   9.2042762
  48.4521103  66.4501238  27.0057893  47.5867844  66.7971611  27.2225857
  48.2727575  65.6342697  26.5384007  75.0622654  51.3271046  43.4012842
  75.7847309  50.6993675  43.4160757  74.2751837  50.7883692  43.4818697
  40.6129408   2.4182630  44.0008211  40.5690193   3.2645637  43.5557604
  40.1338530   1.8206182  43.4267759  61.5781212  55.0683737  59.9692059
  60.6336784  54.9671268  60.0875616  61.6764116  55.9214115  59.5462370
  82.4706173  49.2273331  10.6942725  83.0376339  48.6825800  10.1484108
  81.6358471  49.2481756  10.2263415  75.6249237  34.4091058  63.8373804
  75.7765818  34.9325037  63.0504370  75.9340715  33.5333061  63.6057949
  71.3911390  46.3962460  51.8121767  70.4406357  46.4132071  51.9239283
  71.5605831  45.5904055  51.3241768   2.7987358  70.2878618  44.4680309
   2.1299112  70.2270508  43.7859678   3.5822877  69.9090147  44.0695906
  54.0817547  67.7033186  33.6095381  54.5784998  68.4581852  33.9252138
  54.7212505  67.1815062  33.1247759  38.1655622  48.3244419  35.1332927
  37.8672123  48.3666039  36.0418320  38.2708430  49.2395544  34.8730588
  74.5005846  49.1029835  19.1822457  74.0816450  49.4499302  18.3946252
  75.0728559  49.8099899  19.4803691  37.7850962  15.0113940  65.5327797
  36.9477558  15.3283763  65.8713245  37.6537991  14.9519527  64.5864916
   4.5212671  37.4808860   7.8630269   4.5434698  37.1361947   6.9703192
   3.6794645  37.9323387   7.9245901  19.4179070  46.9420671  21.8960404
  19.7104073  46.0895300  22.2183108  18.5617352  46.7692184  21.5044737
  79.8486757  66.8373728  23.9296865  79.7662544  67.3840714  24.7110724
  79.3308640  67.2907686  23.2644510  42.9640770  25.2825832  24.5956874
  43.7166643  25.8658814  24.6936703  42.2216177  25.8707023  24.4574690
   2.7606937  20.6083155   0.8346993   2.2480103  21.0611939   1.5042429
   2.1497530  19.9802721   0.4492833  65.8241653  68.0172396   8.3488625
  65.1190853  68.6637163   8.3148450  66.3326359  68.2579231   9.1233069
  82.6782799  21.0340285  34.6255088  82.5392246  21.9804358  34.6603036
  83.6216545  20.9259534  34.7463369  18.5966337  77.1397448  48.5000134
  17.8420329  77.7019024  48.6754751  19.3556213  77.6959801  48.6754322
   2.9368222  71.8076658  58.5854912   2.3498830  72.3949671  58.1092453
   3.7499058  71.8204260  58.0805492  65.8131456  50.1928568   9.8907161
  65.6867504  50.0267220   8.9565569  66.0416317  49.3385983  10.2571464
  51.0110760  40.4928684  63.6850548  51.7682791  40.2271366  63.1632662
  50.4221249  39.7389531  63.6537075   6.0296392  55.3948307  28.7632489
   6.6862780  55.6310225  28.1080604   5.2782607  55.9523201  28.5610914
  44.3483543   9.1814435  67.4280119  44.6899843   8.6574745  68.1525612
  44.8457432   9.9982977  67.4677896   5.4527247  45.2909374  36.9932270
   4.6557498  45.2133799  37.5176764   6.0519105  45.7974625  37.5415373
  83.4688663  41.2815809  16.0858583  83.3060360  40.7394648  15.3139591
  82.6083088  41.6288757  16.3204908  72.2045374  35.3647065  32.3432040
  72.2146130  35.0989151  33.2627058  71.4598751  34.8958659  31.9665098
  76.7044735   3.1549919  30.8670616  76.2814236   4.0049037  30.9891677
  77.5973034   3.2836565  31.1872625  39.4689703  27.2734165   9.2940968
  39.6906328  28.0409527   9.8213416  38.5853195  27.4512100   8.9719468
   3.1087941  34.8688817  21.4212179   3.0750933  35.8043122  21.2210560
   3.7629303  34.7960782  22.1162271  74.2445183  53.4705353  18.7756920
  74.3855953  52.6283932  18.3431077  73.8816929  54.0333366  18.0917013
  39.5993328  63.8559723  30.6916142  38.8211060  64.2593718  31.0761380
  40.3333664  64.3205690  31.0935783  45.1085711  51.4456224  17.2853923
  45.0520706  50.7127810  17.8985691  44.4502020  51.2510920  16.6183507
  10.3618193  25.2136660  32.2473550  10.7014775  25.1465797  31.3549638
  10.8015680  24.5099974  32.7245378   6.5844625  18.5304320  36.1427641
   6.1802757  17.8885615  36.7266011   6.5372884  18.1283569  35.2753854
   3.1756842  45.0707579  38.4151387   2.5527215  45.7898426  38.3099508
   2.6291564  44.2871857  38.4747672  83.0201435  22.0147014  19.6644378
  83.7170887  22.2591949  19.0555692  82.4608803  22.7900577  19.7121561
  56.9951725  53.7732124  13.4331810  56.0863304  53.9481926  13.1890118
  57.3453236  53.2628202  12.7030241  82.8007030  29.9034071  60.8790398
  82.2090244  29.8994207  60.1266241  82.3624516  30.4568839  61.5254354
  19.3382668  68.1375265   9.0492105  19.6666241  68.5581970   9.8438507
  20.1076388  68.0568838   8.4854782  79.0813541  52.5455189  48.1621933
  78.9955807  51.7542267  47.6304722  78.5233974  53.1891441  47.7255440
  47.3002005  62.3265457  40.0179052  47.2518969  61.6330338  39.3599248
  47.1570635  63.1345987  39.5251608   0.5025886   6.6491139  21.0142612
  -0.0486324   6.5840250  21.7941022   1.1835165   5.9895128  21.1465311
   1.6786343  78.7659454  29.8753905   1.9291747  79.6879673  29.9331284
   1.0735665  78.6359835  30.6056190   6.4844376  21.6114187  23.0752277
   7.0917618  20.8958507  22.8872085   5.6544513  21.1761951  23.2700014
  14.1470897  47.4345732  10.7003725  14.7896051  47.7916527  11.3134778
  14.6732521  47.0285177  10.0115275  63.8005972  41.5078592  28.9750457
  64.4867086  41.9650412  28.4887671  64.0769720  40.5914259  28.9748621
  75.2540302  43.6094093  48.0081177  74.8997545  42.8002882  48.3769512
  75.7400608  44.0088129  48.7295628  47.2468281  46.8245554   1.8577528
  47.4577761  47.7094078   1.5598103  48.0874443  46.3667679   1.8628301
  14.4804919  57.2577763   2.2709808  14.2625785  56.9857931   3.1624800
  14.2637408  58.1897545   2.2451702   8.8037592  73.9705181  10.6445730
   8.8103914  74.9176025  10.5059624   9.6101695  73.6622906  10.2311337
  54.3915224  43.2650089  19.4545376  54.8705006  42.5591135  19.8887241
  54.9610853  43.5326290  18.7332809  75.3497219  47.5473166   8.5109967
  75.9503555  47.9102278   9.1619706  74.5796680  48.1142950   8.5532409
  78.5998154  57.5055456  25.5131745  78.9871311  58.3233976  25.2011895
  77.6636362  57.6937962  25.5792809  26.0192060  32.8776789  29.6473360
  25.8109307  33.5588980  29.0079665  25.3944135  32.1764994  29.4623637
  58.0477428  34.9551153   7.9366821  57.6119328  34.3132019   8.4972620
  57.3528433  35.5626059   7.6831096  69.1241121  38.9770436  11.3034189
  68.5636950  39.2581391  10.5801260  68.5270023  38.8796020  12.0451689
  30.4248953  21.0822344  43.1178904  31.0153961  21.5128493  42.4997377
  30.5809522  21.5296912  43.9495516   0.6620429  40.8735085  26.9705439
   1.1644483  40.7263041  27.7718878  -0.0460311  40.2306366  27.0102859
  12.5204921  45.8952236   7.5788832  11.9710839  46.1683989   8.3135653
  13.1068158  46.6369390   7.4295020  70.4655790  50.8580780  28.7242436
  69.9619341  50.9126902  29.5363975  69.8576832  50.4770184  28.0906081
  35.3492951  73.6282301  32.9162264  35.3198171  74.2914724  33.6057711
  35.4044390  72.7962589  33.3863425  66.4610100  39.1207957  41.8712091
  66.1884165  38.7890291  42.7266932  67.2332287  38.6011934  41.6477776
   1.3332359  21.2780142  34.0578341   1.1928135  20.4387689  33.6194515
   2.2467801  21.2497902  34.3422151  77.7879953  60.2566147  21.0136080
  78.7374210  60.1353455  21.0030437  77.6375151  60.9094524  21.6972733
  72.4599552  53.8962221  34.0100360  71.5073586  53.9899778  34.0103126
  72.7417421  54.3163967  33.1974578  55.1435804  42.2940254   5.2171773
  55.9867859  42.7462101   5.1895338  55.2615166  41.6072178   5.8733940
  78.6247110  75.3262043  59.2609739  79.1899395  76.0078192  59.6245050
  78.0398369  75.0907469  59.9811888  21.5691471  55.8135033  18.6375856
  20.6704974  55.5892086  18.8791418  21.5835023  55.7496834  17.6826239
  62.4815273  68.0827761  47.1095037  62.5146627  68.4660244  47.9860020
  62.3534107  68.8305378  46.5258265   6.5524507  47.2707891  33.3810425
   7.1202427  47.1998978  32.6136971   7.1034420  46.9937992  34.1131067
  12.4718511  74.4611788   5.8010614  12.5182498  73.5956240   6.2071323
  11.8078911  74.9283552   6.3081467  57.9207325  43.4601355  16.8303776
  58.8618565  43.5620213  16.9722843  57.8502083  42.7501631  16.1922598
  14.7778463   7.8468096   3.8967428  14.9695301   8.5386074   4.5299137
  15.5460918   7.2765273   3.9251697   3.0924809  37.3912215  26.1234522
   3.4511322  37.3182583  27.0079160   2.1435477  37.3713470  26.2473965
  81.1574268  59.7304821  44.8908186  81.2630939  60.4154778  44.2306328
  81.9628429  59.7686863  45.4066420  66.6490173  15.4154658  37.7347851
  66.4870834  16.1032736  37.0890856  66.2539959  14.6313095  37.3536158
  78.4799147  40.9924984  45.5781651  78.9391899  40.1527166  45.5862808
  77.8287840  40.9026718  44.8823261  77.9879379  62.6078320  23.2192922
  77.9370880  63.3611012  23.8077044  77.2134924  62.0863581  23.4303164
   0.7197914  58.7138557  40.7449484  -0.0291727  58.7562084  40.1503944
   0.3302700  58.6294413  41.6152239  17.9732478  69.4615936   7.0506203
  18.7432444  69.9495268   6.7586315  18.2743895  68.9761019   7.8186321
  18.9698613  68.5271549  38.4802556  19.8083353  68.7138557  38.9025569
  18.6550009  67.7337122  38.9133143  63.3804321  43.6071301  30.9272623
  62.5165796  43.1949711  30.9162784  63.8156080  43.2721663  30.1432657
  64.0203953  44.4816875  59.9810314  64.5762825  43.7968683  59.6092176
  63.9135122  45.1150274  59.2713213  79.5768785  40.3121567  12.1938396
  79.4451141  39.7277451  11.4472902  80.1310158  41.0144615  11.8533564
  70.0689220   5.1219678  31.5458369  70.2009678   5.9779787  31.9533181
  69.3139648   4.7525573  32.0038867   8.2254499  41.1468077  23.0830550
   9.0725619  41.5320206  23.3072114   7.7261227  41.8702126  22.7041245
  18.9023387  77.0982027   2.5191000  18.3673179  76.5183115   1.9771484
  18.5465622  77.9721451   2.3582336  60.3927183  63.5343122  37.9313207
  60.1810455  64.1707802  38.6142111  60.0091743  63.9012146  37.1347594
  63.8115692  50.1335478  34.6184230  64.2507982  49.3076038  34.8212051
  62.9236555  49.8776340  34.3687248  60.4724073  57.6131964  33.5927153
  61.1612272  57.0490026  33.2413673  60.7169437  57.7479315  34.5082903
  11.2546635  41.3352394  32.8768611  11.5021384  40.4758978  33.2182074
  11.9661713  41.5703535  32.2812843  55.5220985  78.7618923  27.1013117
  55.3968048  77.8968811  27.4915600  54.6347332  79.0932035  26.9633126
   4.7280866  73.7852240  20.5993629   3.8536918  73.5573435  20.9151721
   4.9079022  73.1459475  19.9099958   3.4675506  40.2042866   5.2227575
   3.9042768  40.7255745   5.8963758   2.7088422  39.8259330   5.6671017
  69.4461060  12.3315835  43.6376286  69.3010378  11.3889813  43.5558414
  69.8820496  12.5784814  42.8220129  67.4581814  60.1873493  48.0487967
  67.0743132  59.3617725  48.3442497  68.3875799  60.1100636  48.2643938
  56.8640900  17.7856135  63.1988621  56.7529106  18.1208682  64.0885115
  55.9718752  17.6368248  62.8857374  19.1266215  50.8724308  55.8256340
  19.8246324  50.7881737  55.1760817  19.1187346  51.8030787  56.0493898
  69.0502357  65.4263687  16.1055148  68.3641720  65.9806442  15.7335889
  69.6362400  65.2450180  15.3707087  67.6279688  43.7326956  25.3611159
  67.0167589  43.0668831  25.6763101  68.4893608  43.4137344  25.6303573
  19.1621256  41.8320417  23.9099574  18.3536887  42.0840359  23.4636855
  19.3446696  40.9473228  23.5934305   5.6156784  55.0422049  12.3875546
   5.9647399  55.7839441  12.8817272   5.0764161  54.5661592  13.0190682
  54.3660593  66.1782789  42.1441412  55.1124144  66.6467810  41.7703915
  54.0383244  65.6376648  41.4254189  67.9141283  55.5765295  14.4412673
  67.8637886  54.9849939  15.1921213  67.0016766  55.7765961  14.2323732
  84.2206097   4.6838450  17.8087938  83.8646603   5.5676520  17.9005563
  83.5532570   4.2068949  17.3154485  25.0073719  24.6784329  68.4574032
  25.1372147  23.7345505  68.3654404  25.8813739  25.0524354  68.3457041
  67.0953703  78.0186081  52.1300173  67.7791071  77.4665165  52.5094032
  66.5791321  77.4220419  51.5879536  54.3725157  51.0757542  17.3709047
  54.1781902  51.9694471  17.0884442  53.5178423  50.7002544  17.5824809
  48.1282520  75.1683235  65.9127426  47.4405241  75.5581141  66.4524889
  48.7084484  74.7360420  66.5394306  70.2928114  27.7141356  22.8403521
  70.6257963  28.4809446  23.3065653  70.1214361  28.0291533  21.9528699
  42.0512295  60.6464481  47.7190924  41.5881777  59.8185539  47.8471661
  42.5561333  60.5167770  46.9162893   0.4716690  53.6563921  51.5595198
   0.2773716  54.2373562  52.2950220  -0.3671978  53.2452488  51.3509655
  38.1562972  79.2529895  34.9283433  37.7061391  79.9600422  34.4661021
  38.0112481  78.4798458  34.3829608  72.7679062  39.2897916  16.3069916
  71.8381405  39.0672708  16.2595046  73.1904459  38.6846352  15.6975019
  83.8544846  30.7650423  24.6168613  83.9410591  29.9941397  24.0561032
  83.7807369  30.4098272  25.5026460  73.5651779  31.7354679  17.7946627
  72.9599714  31.8072295  17.0565510  74.3074417  32.2882915  17.5504017
  10.8673084  38.8176608  10.0103176  11.2355685  38.5163450   9.1797602
  11.5717745  39.3237281  10.4151070  25.4805994  57.7979565  10.7077777
  24.9713492  57.8412676  11.5171111  26.1653495  57.1543598  10.8898091
  47.9679108  66.6475821  14.8443711  47.3500395  66.0422945  14.4343817
  48.2876205  66.1781168  15.6148386   9.2442781  50.5206680  52.8607893
  10.1880658  50.5732822  52.7100277   8.9312464  49.8980665  52.2045851
  72.3157310   6.5500569  61.5213108  72.9241371   6.8932730  62.1757412
  71.4994335   6.4126527  62.0019388  25.2431870  34.4502807  27.3955822
  25.1473093  33.6384892  26.8975544  24.9464869  35.1352978  26.7964530
  77.0720482  44.1656494  26.9778538  77.0148373  44.0196180  26.0335922
  77.6913643  44.8895121  27.0711780  10.8870661   6.2899882  35.3638864
  11.1563385   6.3373101  36.2812114  11.5844131   5.7941461  34.9348426
  49.2905760  22.8242731   9.0152144  49.2492390  23.2584381   9.8672855
  49.5066404  23.5247684   8.3997035  28.4570885  30.4181337  44.5386219
  27.5502229  30.7236552  44.5165825  28.9707112  31.2053490  44.7194910
  61.2974405  77.5462008  67.4526930  61.8696260  76.8983650  67.0414257
  61.8917179  78.2328272  67.7553606  57.2708082  12.4820888  67.2550869
  57.9518938  12.0061791  66.7798328  57.6648617  13.3321357  67.4509811
  69.5037746  38.4253383  27.3137617  70.0805759  38.5446143  26.5592384
  69.9911308  37.8449178  27.8984189  77.8645229  61.6638374  48.2014084
  78.0227518  61.3433409  49.0893698  78.5789967  61.2943316  47.6825380
  81.5172482  24.2435646  19.1129732  80.5799484  24.1498446  19.2830229
  81.6038609  24.1107988  18.1689906  79.1451359  46.3366222  13.7694371
  79.4209814  47.1462727  14.1990948  78.3982944  46.5946150  13.2291603
  31.8971944  46.7895269  32.0715904  32.7760220  46.5918064  32.3953128
  31.9659758  47.6765347  31.7184281   1.2498544  64.6781969  19.6388829
   1.0080855  65.5791473  19.8535049   0.4207996  64.2539358  19.4177425
  53.5982418  71.3439608   2.1625909  53.0192900  70.5993986   2.3259073
  53.0495071  72.1126747   2.3181564   2.9775012  58.7673950  24.1926003
   3.5323492  57.9974556  24.3173862   2.6287571  58.6702299  23.3065033
  72.2701168  10.9439600  58.8835907  72.6052141  11.5529299  58.2254887
  71.3515902  10.8165073  58.6463118  75.5813551  16.0215855  39.8567724
  74.6875191  16.2999296  40.0563192  75.7085562  16.2639785  38.9395523
   7.7591223  37.1749735  47.7185154   8.4986401  36.8456030  47.2077703
   8.0767047  37.1839285  48.6214495  79.7328949  53.7909889   7.0478576
  80.0905132  53.3186293   7.7996659  80.1338959  54.6587276   7.0973575
  66.6742563  54.7528458  38.7949419  65.9278870  54.3252563  39.2148638
  67.3560143  54.7588158  39.4668055  67.5349522  24.1542387  27.5499296
  66.7554665  23.6271572  27.7254701  67.6957512  24.6239543  28.3683062
  28.1562304  11.0196137  20.3818560  28.1725240  10.0642824  20.4393768
  28.2443142  11.3156474  21.2878561  76.1289263  36.9585514  40.5997753
  76.0496187  37.1764755  39.6710944  75.9846783  37.7887893  41.0537863
  60.4750586  44.0325117  17.6240885  60.3790092  44.9841976  17.6601219
  61.2611389  43.8909197  17.0965850  73.8222361  47.7378893  35.6450605
  73.9300680  48.5324955  36.1677480  74.2211771  47.0471716  36.1741972
  58.9209700  24.3568254  61.3356209  57.9792786  24.4792032  61.2153244
  59.2071152  25.1427937  61.8010330  34.2908454  25.4444098  44.7075176
  34.6468735  25.9010124  43.9452934  34.5099831  24.5244527  44.5595646
  -0.0134611  36.5377784  43.1240225   0.8390319  36.8252015  42.7971029
   0.0864247  35.5951381  43.2570124  18.0647159  52.3991871  20.2062058
  18.1447315  52.8437328  21.0501313  17.1598840  52.5574064  19.9369919
  81.1798382  18.6797059  35.2144504  81.7275620  19.4044769  34.9128985
  81.1983013  18.7466395  36.1691284  62.7100658  63.4906244  30.0685024
  62.1751356  63.7319422  30.8247066  62.9490614  62.5771999  30.2258801
  43.3918619  71.6239309  55.6649303  44.0272999  72.3349714  55.5820656
  42.8592443  71.6850710  54.8719501  45.8912754  29.0935040   3.9695349
  45.8711147  28.1490088   3.8154247  46.5275431  29.2074633   4.6755153
  60.4346991  11.1123419  21.2099195  60.4844475  10.7095432  22.0768166
  60.6784153  12.0263684  21.3561702  58.0996799  27.5968027   9.7969133
  58.7092495  27.7348137   9.0719229  57.2893000  28.0192447   9.5121944
  63.8128328  24.7883558   6.0994345  64.7611332  24.8501897   5.9848344
  63.6975861  24.1461802   6.7998344  70.1472807  46.0466242   5.9568250
  70.5152369  45.1630163   5.9481877  69.1999292  45.9113693   5.9784448
  55.8929253  21.5973616   7.8104436  55.6063795  21.7924953   8.7026584
  56.7512608  21.1877775   7.9187298  62.7979279  15.1649809  66.7428493
  63.5226727  15.6750083  66.3811255  62.1208811  15.8137846  66.9349337
  83.3165932  57.5242758  50.6689739  83.3594608  57.9793215  49.8279428
  82.8053665  56.7353725  50.4886675  50.0018835  27.8001070  60.4454088
  50.2734137  26.9439960  60.1143837  49.4366360  28.1541014  59.7588110
  62.3763514   8.7106198  32.8030968  62.9449606   9.4365782  32.5463843
  62.9592800   7.9524595  32.8433204   2.3112507  55.1470995  48.1002522
   2.1088746  55.5448055  47.2534323   2.2147043  55.8617496  48.7296867
  62.9608917  44.2302465  20.1749182  62.7686501  44.6449041  21.0159492
  62.4910975  44.7622395  19.5326483  14.0811563  65.9783840  45.8628654
  13.3779073  66.5522718  45.5590105  14.2067492  65.3543139  45.1480246
  64.2451954  60.6283522  27.9761386  64.5901489  60.2680016  28.7930775
  63.2949209  60.5544233  28.0641484  33.2787943  21.4930654  13.1138754
  33.9916945  21.6836405  13.7235367  33.2061005  22.2817159  12.5763094
  73.5788631  39.4337845  23.6131573  74.4884253  39.1355729  23.6117530
  73.1963682  39.0396404  22.8292060  21.2074804  61.0867167  46.2813807
  21.7644358  61.6660786  45.7614040  20.3610516  61.5326118  46.3124800
  13.7477612  61.3209391  64.0180302  14.4346833  60.6543398  64.0219116
  13.5332298  61.4491749  64.9420261  51.2470102  26.1490631  39.6632862
  51.3985634  25.5275536  38.9512563  52.0732498  26.6253161  39.7454214
  76.9458532  19.3499064   9.4222069  76.9511366  18.6287618  10.0516140
  77.3495865  18.9839351   8.6352551  61.3759565  10.4056120   2.9368320
  60.8477211  10.2931321   2.1465462  62.0553827   9.7348607   2.8682628
  81.6789341  54.7237349  44.4323778  81.9905186  54.2256212  45.1880455
  81.0310650  54.1526270  44.0196609  61.4547014  39.5895338   8.0793667
  61.9681072  40.0324202   8.7550151  61.4516687  38.6699700   8.3451223
  77.9342651  59.3119335  54.4254494  78.5966206  59.6119833  53.8029623
  78.4344244  59.0405989  55.1951551  10.8204353  60.4268217  57.9691887
  10.7369471  59.4797993  57.8577709   9.9278414  60.7589006  57.8731155
  83.9047241  68.7423754  19.0271044  84.7626114  69.1389370  19.1787481
  83.5740471  69.1796684  18.2424688   3.6030272  66.3309288  25.8061767
   3.1151074  66.3349295  26.6296744   3.4328365  65.4668617  25.4311347
  47.8235626  66.7449999  34.1856241  47.1322107  66.6205883  33.5354018
  47.8779268  65.9048939  34.6411490  11.1376190  67.5741577  41.4030695
  10.4222035  68.1027174  41.0494661  11.1583352  66.7958975  40.8461857
   4.3644249  38.8234544  39.4125152   3.6830744  39.3945026  39.7673345
   4.5277107  38.1852913  40.1070070  69.9857998  77.8857517  21.1387515
  69.2852974  77.4917793  20.6188345  69.5916176  78.0342388  21.9982886
  56.4956617  48.0323076  44.0017271  56.6939020  47.0982361  43.9350557
  56.5419626  48.2206678  44.9390697  20.0973797  54.7926378  10.6718278
  19.7556639  54.3448782  11.4457619  20.9745550  55.0777006  10.9278226
  30.2200818   3.8115332  20.1721764  29.5471334   4.0986952  19.5549977
  29.9865603   2.9061332  20.3769970  32.3224807   9.0482330   3.9258465
  33.0999184   9.6053243   3.8875273  31.5947771   9.6599275   4.0377003
  75.1725197  60.9579897  47.8028536  76.0061598  61.3887882  47.9917812
  74.7171116  61.5635729  47.2179651  14.7216034  19.7998536  35.2621365
  14.3713999  20.3740883  35.9431982  14.6638095  20.3176904  34.4591832
  11.3330245  52.5308228  41.5943575  10.7227540  52.2347069  40.9189939
  11.5328956  53.4361410  41.3562727  10.3903091  51.8382645  44.4676352
  10.3056276  51.9157028  43.5173368   9.4954950  51.6978312  44.7771788
   1.7827371  59.3113518  47.0189810   2.4157575  58.7496710  47.4662304
   2.1484286  59.4341040  46.1429501  37.1597719  77.7357817  54.7256041
  37.9106498  77.1461296  54.7943449  36.4439845  77.1776533  54.4216633
  81.8074799   9.3567026  23.7786984  81.9558144   9.0212375  22.8945661
  82.6827812   9.5629865  24.1065907  53.1324100  77.7755499  37.5168896
  52.1954393  77.9555416  37.5938392  53.1781435  76.9334412  37.0641351
  82.5879955  24.7292113   2.1912749  81.6427803  24.8166871   2.0682511
  82.7903557  23.8490152   1.8741967  32.5468087  76.9000101  23.0317903
  33.2335424  77.3561907  22.5454497  32.2560239  77.5340366  23.6872959
  76.1009836  34.2205977  53.1528187  76.5702105  33.4070492  52.9678917
  76.4065456  34.8311424  52.4819279  58.6447096   4.7570345  47.1630573
  59.2317438   4.1735733  47.6438856  58.2556963   4.2017427  46.4873695
  69.0294695   3.9294478   6.1567044  69.1453600   3.5544664   5.2836692
  68.3194351   4.5629448   6.0529560  48.7701130  23.6948061  29.7187471
  49.0567303  22.8082943  29.4992423  48.7848425  24.1646385  28.8849163
  26.5274286  13.0256581  46.9204283  25.7143688  13.4547651  46.6539001
  26.7822051  13.4747469  47.7264309  55.3833103   9.2104644   4.1871181
  55.5171108   8.2657319   4.1108939  54.6847868   9.3019211   4.8351398
  70.7051039  22.6682425   9.3020922  71.1122751  21.8241215   9.4967842
  69.7727346  22.4699855   9.2148775  80.6387520  46.8998861  67.6812220
  79.7512007  46.9613886  67.3281002  80.8764362  47.8032064  67.8903723
  62.9811096   4.7735769  47.0806026  63.2671690   4.0135944  46.5738201
  63.7879753   5.1330525  47.4493504  23.3970022  33.2893729  35.8377361
  24.0538239  33.1617308  36.5222239  22.9873896  32.4302864  35.7356524
   3.9706799  20.5749893  23.7949038   3.7592497  19.7202802  24.1704059
   3.2676530  20.7412434  23.1669354  57.3241854  18.8206637  27.3913503
  56.4122868  19.0646946  27.2328591  57.7757978  19.0393841  26.5762186
  72.1028662  26.0636234  66.7280579  71.8492270  26.3045049  67.6190519
  71.8827057  26.8313861  66.2005138   6.8433613  74.4413519  37.1982121
   7.7302474  74.2498684  36.8932557   6.4018059  74.8111296  36.4336705
  -0.1727269  51.7040682   9.6692997   0.1911617  50.9413147  10.1187789
   0.3072687  52.4480247  10.0331151  46.7487049  16.9314957  36.1461973
  47.2763777  16.5493953  35.4449201  46.9614840  16.4077210  36.9186068
  69.4487906  52.4180603  67.8982019  69.7000217  52.9765034  67.1624994
  70.0882626  52.6197720  68.5812998  77.5241041  28.5736966   2.3211180
  77.0126200  27.8552365   1.9490543  76.8987465  29.2931938   2.4076346
  70.3925371   8.9595699  39.7068286  69.9528265   8.7458599  38.8838983
  69.7293663   8.8057506  40.3797150  71.2296009   9.1099137  22.8037095
  70.6097364   9.6660089  22.3317337  71.6765976   9.7059572  23.4046698
  18.1100881  63.9749527  11.6575730  18.9787698  63.8473129  11.2763488
  18.2812512  64.3265152  12.5312662  60.2846813   1.5028243  16.2181199
  59.4649649   1.3957605  15.7355964  60.1440382   1.0283454  17.0374608
  75.6959057  25.8297086  22.9199743  74.8520184  26.1081982  23.2756829
  75.6544781  24.8734236  22.9258633  54.8315954   7.3396349  11.3182807
  54.0914106   7.2969455  10.7128596  55.4936218   7.8496921  10.8516014
  38.2579637  57.1112776  20.4213643  37.3606062  57.4255085  20.5320120
  38.2418895  56.2163401  20.7605577  16.4025247  41.6339874  67.1738768
  17.1166313  41.1897326  66.7168045  15.7454538  41.7914343  66.4958668
  78.5098600  12.2285724  16.1926007  77.9639101  11.5761399  15.7538497
  78.2565260  13.0606687  15.7930148  65.1767540  10.8441687  65.3728342
  66.0534286  10.4599178  65.3677034  65.2702284  11.6606247  64.8820210
  65.1090431  17.0459449  48.2442474  65.2338934  16.1023426  48.3455324
  65.9886265  17.4142277  48.3275032  20.5484676  -0.0293709  18.4957671
  21.4522552  -0.0451246  18.1808794  20.1965117   0.7998699  18.1721675
  83.9587116  19.6435487  17.1854246  84.5446396  20.1479435  17.7497840
  84.4777489  18.8849545  16.9182968  75.7883072  23.2487059  35.3478360
  75.8802938  22.3944569  35.7697725  76.5727711  23.7307787  35.6094599
  73.9014387  45.1538134   8.6843795  74.4804668  44.3921995   8.6542773
  74.4827652  45.9021425   8.5491139  38.6292911  69.4907045  61.8348742
  38.7640285  69.3079758  60.9049892  38.8999104  68.6868906  62.2785854
  14.5001972  49.8934555  65.6180668  14.9664998  49.4221592  66.3084793
  13.8532400  50.4228592  66.0843420  44.0019989  61.8124628  27.6834726
  44.3827391  61.3648176  28.4390402  43.1165695  61.4553690  27.6146626
   3.4525564  23.3064747  14.2661643   2.9153794  22.5302458  14.4247198
   3.2175386  23.9086676  14.9721122  60.6950283  12.4627590  13.1041956
  60.9361649  11.5391850  13.1755674  61.0330582  12.7332771  12.2505033
  74.5449209  24.4975543   2.5933024  73.8544226  24.9825120   2.1413457
  74.6676111  23.7081337   2.0660535  73.4516001  21.8084502  43.8038301
  74.1323709  22.1003699  44.4101000  73.6104250  22.3115015  43.0051136
  29.8267913  34.6533036  36.6442418  30.3788161  35.4255819  36.5214062
  29.9185252  34.4385171  37.5725126   6.2212688   5.4292798  23.5613585
   5.3497094   5.6416702  23.2274342   6.5395308   6.2493169  23.9388227
  29.5212221  10.1408255   3.1416127  30.2705455  10.6936646   2.9199913
  29.3910599   9.5924121   2.3679639  16.9034588  71.8610573  67.0744562
  16.0988057  71.9143629  67.5901365  17.4940753  71.3279009  67.6065731
  82.9216766  21.8693805  58.9596796  82.5762367  22.7598643  59.0224457
  83.5169315  21.8956423  58.2105398  16.4058566  42.7548981  23.2312417
  15.8826506  42.5813246  24.0137744  15.9939444  42.2284603  22.5460935
   4.1962731  40.8658409  67.1384907   4.1359454  41.2460423  68.0148697
   5.1328140  40.7203722  67.0044708   7.8398919  63.1581974  54.9139309
   8.0798131  62.9749203  54.0055943   7.3555684  63.9827633  54.8720312
  67.5361490  22.0835900  19.5471632  66.8586636  22.7531910  19.6414196
  67.2852612  21.3999224  20.1683617  55.6442785  16.2229669  16.7613578
  55.9627533  17.1061671  16.5749061  54.9229002  16.0935271  16.1456525
  45.5791330  12.3059285  25.1575756  45.6211042  13.0583727  25.7477427
  46.4082861  11.8476617  25.2944160  26.7324114  78.4663725  13.1234097
  27.3824334  77.8245783  13.4094238  26.4055610  78.8542986  13.9351451
  64.7370768  22.8458023  24.4916391  64.6427870  23.3926487  25.2715755
  63.9210415  22.3473454  24.4485259  19.7624278   7.8961766  32.6206899
  19.1231716   8.1274426  33.2945585  19.3568778   8.1755286  31.7998838
   1.7517549  33.3665752  15.1518369   1.3909693  33.6419225  14.3090737
   2.6421991  33.7177300  15.1574039  72.1623755  24.2751908  29.3738604
  72.5310993  24.8006296  28.6637974  71.6692209  23.5852075  28.9300680
  43.1084347  65.6380510  28.4524655  42.5730419  66.3679266  28.7637019
  42.6377821  65.3043985  27.6886654  79.1150570  10.6703281  26.8945742
  79.2068100  10.9708512  25.9904194  79.9895096  10.3642356  27.1351385
  35.6807375  76.2045574  19.3035889  35.2577305  75.6422186  18.6546874
  35.2621055  77.0578718  19.1903090  39.0558910  64.8233986  10.1512551
  39.6781516  65.0210190   9.4512761  39.2707300  63.9293814  10.4173589
  78.8389683  28.4556150  50.3689384  77.9645777  28.2057238  50.6676483
  79.2030859  28.9646816  51.0931635  10.4904962   5.6710523   5.2451038
  10.9827805   5.7466489   6.0625219  10.9854972   5.0379872   4.7250703
  51.0457277  36.8301320  59.5029402  51.8226719  36.3516045  59.7920752
  50.5332470  36.9593549  60.3009987   8.4280759  21.7964435  50.7121086
   8.5837513  20.8626413  50.5706453   7.7264017  22.0177364  50.0998020
  10.1412475  14.8701012  18.6880982   9.6500212  15.3840387  18.0471647
   9.9354810  13.9601600  18.4738576  77.7193260  39.4762635  56.9343138
  78.4181118  38.9210582  56.5883780  77.9378891  40.3559446  56.6267109
  21.8308115  56.3999271  52.8653622  21.9268131  57.1213245  52.2435904
  21.0958266  56.6589832  53.4211683  49.7703981  77.2071934  33.2613659
  50.0943089  77.8967810  33.8408303  50.0045443  76.3919640  33.7049985
  36.4569187  29.9704409  31.8035316  37.3966956  30.1226759  31.7041492
  36.0485458  30.5921841  31.2011218  16.6554701  56.0067320  67.0311403
  17.2074389  56.3224411  66.3156700  16.3826537  55.1317692  66.7550182
  80.2292347  17.4650156  61.2248564  80.9555149  18.0863893  61.2762594
  79.7367382  17.6047969  62.0336485  58.4522200  12.6936865  10.2255976
  59.0560341  13.4364057  10.2222455  58.3104038  12.4961257   9.2998064
  81.5755081  73.1215239  22.1477008  81.4252758  73.9444399  21.6824317
  81.5128517  72.4483681  21.4700818  33.6609674  16.4729381  62.3922682
  34.2374516  16.1172915  61.7159462  33.5956764  17.4052227  62.1853542
  69.6171951  78.6512852  43.2619619  68.9550304  78.4936953  43.9349604
  69.1770840  78.4396267  42.4387169  82.8906918  57.2120285   4.1488215
  82.9199791  58.0089903   3.6194584  82.2618008  57.4086571   4.8431370
  36.5075970  72.9391098  17.8775346  35.6660104  73.3187819  18.1301439
  36.8455124  72.5482082  18.6832893  43.2542610  26.7474222  34.5484877
  42.3847389  26.4090419  34.3348145  43.1860685  27.0229340  35.4626417
  63.2398272  32.1741486   9.9111432  63.2140112  33.1246257  10.0214040
  63.9667845  32.0227551   9.3071175  36.9823432   2.3117067  25.0907230
  37.2783756   1.6705266  25.7368541  37.2600746   3.1558758  25.4463577
   4.4114855  34.7923326   2.1883745   4.8759204  35.6288338   2.2166605
   4.6549079  34.4116449   1.3445419  13.1072199  13.4288323  27.6083231
  13.8701081  13.1801856  28.1302500  12.6257753  14.0412569  28.1645417
  14.7016323  25.6378150  31.6531944  14.4232845  24.8112655  31.2587714
  14.3445528  26.3115525  31.0745716  43.9050007  18.1367838  43.5592127
  44.2785120  18.1611288  44.4401932  43.1742001  17.5221884  43.6257982
  43.6817980   8.9113528  62.8096199  43.3915472   8.7777150  63.7119102
  44.5597601   8.5310495  62.7816248  72.5208855   5.6140649  15.7131147
  73.3159065   5.2119499  15.3631532  71.9657755   4.8736754  15.9578812
  61.7292118  51.8775463  66.5441370  62.4294090  51.9075346  65.8921766
  62.0407534  52.4363899  67.2560835  43.6984158   2.2188278  12.5885284
  44.2513132   1.9310373  11.8620896  43.1283712   1.4707856  12.7666080
  47.2419119  64.2073011  35.4552102  46.4882660  63.7596989  35.0706244
  47.9707861  63.5995340  35.3303695  64.6697617  14.4579995  14.0157127
  63.7410402  14.6603072  14.1287851  64.8938084  14.8300540  13.1627131
  81.9979763  15.2745247  39.7612143  81.2128353  15.7416415  40.0468540
  81.6974258  14.7177923  39.0429163  68.2560110  15.0295818  33.8774204
  68.5430861  15.2967227  34.7506070  68.6651182  15.6621110  33.2868505
  70.9403467  18.8550377  29.8496842  71.4622068  19.6545696  29.9178004
  71.5760326  18.1454587  29.9425983   1.1910407  74.1475487   7.2208887
   1.7990854  74.8287249   6.9336379   0.3240394  74.5368528   7.1069437
  65.2404070  71.4345789  62.5628328  64.9313641  70.6014299  62.9186249
  64.4699478  71.8156815  62.1416616  19.9244237   3.5408944  38.5268879
  20.0283742   4.2658490  39.1432214  20.4966855   3.7661803  37.7934074
  16.9255781  65.0588655  45.6733751  16.6424358  64.1918755  45.9638739
  16.1544240  65.6139612  45.7892275  45.9750462   5.6849927  62.8936243
  45.3753996   5.4250729  63.5929775  45.7737255   5.0894076  62.1718359
  45.2447891  16.5537214   4.1057926  46.0904551  16.6922092   4.5322931
  44.7753716  15.9600258   4.6917978  32.1610737  68.0991793  22.0418119
  32.6321912  68.2180929  22.8665185  31.5671396  68.8483763  21.9950867
  81.7014217  38.7092495   3.8788494  81.9879055  38.5658360   4.7808430
  81.5123558  39.6465087   3.8337478   0.3058815  25.5083203  17.1226525
   0.5086043  25.8117247  18.0075717   0.4048139  26.2864876  16.5741098
  67.6753044  27.9783344  57.8477049  67.7282763  27.2762656  57.1992254
  67.9690361  28.7597060  57.3792934  51.0492563   0.6959473  37.9939842
  51.8870068   0.2330301  38.0049467  50.5114746   0.2331835  38.6365366
  83.1208515  35.1203609  64.4336081  83.9451694  35.5253148  64.7033119
  82.6136494  35.8386135  64.0553379  72.2829866  16.1253524  31.2538815
  72.1286488  15.7072723  30.4067564  73.1780100  15.8762801  31.4843750
  53.6580276  30.4297757  12.8600562  52.8743792  29.9862075  12.5354433
  53.5375071  30.4651117  13.8089812  81.1496353  21.1740541   4.3138802
  80.5189419  20.4813290   4.5103362  81.9625187  20.8818817   4.7262961
  25.6879807  68.7680387  46.3864374  24.9768353  68.3471823  45.9033394
  26.4671588  68.6070156  45.8542871   1.5205252  16.8906820  58.9398432
   1.6835473  16.2689519  59.6491432   0.5905581  17.1037900  59.0171576
  13.3339155  35.9107947  23.4857583  13.6767578  36.5160799  24.1432691
  14.1055381  35.4448962  23.1636262  32.1694541  67.1839046  34.0249801
  31.9525480  66.3629484  33.5831451  31.3317394  67.5047922  34.3588877
  68.8197660  11.5700388  25.7782173  68.3616018  12.1680772  25.1877356
  68.1229353  11.0575449  26.1881089  66.6140175  67.2184753  21.4960814
  66.5019512  67.6758718  20.6627369  65.8757448  67.5105286  22.0307684
  39.5805764  16.2303019  22.8109264  39.0065265  16.8582094  23.2495952
  40.2718210  16.0517073  23.4485102   4.1010368  32.4977207  47.3657227
   4.6983606  33.0908370  47.8214121   3.5967869  32.0817804  48.0649805
  80.1562214  25.5929995  40.9828997  80.7381916  24.9818635  41.4346218
  80.6405830  25.8492947  40.1980877  66.6733408  11.4891386  41.6894102
  67.2047520  12.2195399  41.3726330  66.3796473  11.7654383  42.5575304
  16.1075079  21.7998481  30.5884361  16.9948399  21.4459777  30.6488562
  15.9118068  21.7970109  29.6514583  83.0550480  26.6843557  25.9314036
  82.4725437  26.0413194  26.3356638  83.7487030  26.1605310  25.5305624
  43.7749147  65.8912563  51.9027090  43.6479902  65.7030201  52.8325987
  42.8991604  66.1029196  51.5794754   7.1562117   6.5673906  65.3694868
   7.8572810   6.0704494  64.9478436   7.1846819   6.2915635  66.2856436
  61.5951967  76.9491959  19.9313152  61.8183661  76.2511492  20.5470705
  60.6956482  77.1876478  20.1553392  43.8279581  67.0490456  60.7659626
  44.3943405  66.2795448  60.8234787  43.1093788  66.8632555  61.3704109
  69.2187071  39.6170616  56.5963459  69.9398088  39.9769545  56.0798979
  68.5595608  39.3699741  55.9477329  70.6954813  21.1413431  43.9018488
  70.4690886  20.2995181  44.2972088  71.6356802  21.0813308  43.7325668
  41.3266230   8.6686492  35.3221774  40.6318808   8.6017221  34.6671295
  42.0390272   8.1343085  34.9711895  60.3398371   5.6030506   6.2343538
  60.7981443   6.1736894   6.8512452  61.0054588   4.9786079   5.9458244
  65.7244396  40.7989740  25.2912712  66.3665342  40.4143143  24.6946335
  65.8826733  40.3615379  26.1278391  50.9859562   4.8603690  37.6666403
  50.8595371   5.4880762  38.3781409  50.1953506   4.3209225  37.6798606
  77.5080061  63.4057951  57.7115679  77.9011011  64.0063763  58.3448267
  76.5646648  63.5209417  57.8259087  53.4485626  70.0220966  48.6954069
  53.8841295  70.4898167  49.4079733  53.3970881  70.6618118  47.9852343
  52.9967690  76.9794846  52.1466017  53.1724167  77.7106714  51.5543652
  52.0432472  76.8956709  52.1474409   9.5273012  77.2672749   1.7296402
   8.5906410  77.3779297   1.5663753   9.6813220  76.3295650   1.6147007
  82.5196171  47.8058767  24.5790458  82.6791286  48.1359911  25.4632449
  81.5666771  47.7417898  24.5156026  77.6377201  26.7237234  29.2735958
  78.2048178  26.0196781  29.5881677  76.7536592  26.4427018  29.5095825
  61.7784691   2.7827701  19.4350803  62.3379374   3.2993066  18.8550663
  61.9918108   1.8733235  19.2262185   1.7180364  11.3589895  52.7748251
   1.5029421  12.2811782  52.6350641   2.5730354  11.3749850  53.2048893
  34.8546386  48.2740164  17.8234398  34.3566942  48.5934687  18.5759246
  35.7359385  48.1241083  18.1655943  68.2189035   1.6996385   0.4822445
  68.2586861   1.7779598  -0.4709161  67.4194336   1.2001542   0.6483592
   6.0915774  48.5835361  65.0247431   6.9887972  48.5025644  65.3482771
   5.8489215  47.6943398  64.7665262  27.7422523  66.2735224  67.8934097
  27.8539133  67.1904373  67.6423597  27.3324251  66.3100243  68.7576675
   6.5130436  17.1664822  30.1040268   6.4605367  16.3657391  29.5822167
   5.8866936  17.0305705  30.8149719  50.7044792  73.1954002  41.9456387
  50.5060387  72.3752165  41.4938116  49.9735689  73.3180523  42.5514078
  62.4676037   3.9622343   5.9960014  62.8151560   4.5414117   6.6742265
  63.1716919   3.3345622   5.8331668  50.7944679  10.5208528  40.4928923
  51.1128855   9.6258616  40.6104994  50.3390217  10.5043674  39.6511531
   6.1250585  65.9736156  58.3972216   6.5117973  66.6965342  57.9032040
   5.1849115  66.0473013  58.2331276  62.7270651  11.0659599  41.8307018
  62.7439070  10.7458353  40.9287739  61.9295979  10.6900072  42.2034359
  57.5750589  28.5147238  20.8564734  57.4544573  28.4166074  21.8009639
  57.9284859  29.3979669  20.7506251  17.1343315  58.8342571  57.4236727
  17.9467225  59.3065929  57.6057482  17.3570502  57.9133368  57.5598097
  83.0702686  43.0768776  35.7422447  83.7141705  42.5944090  35.2237511
  82.6535225  42.4097347  36.2876534  69.4071150  49.5127153  26.5329576
  68.7865591  49.5307732  25.8043861  70.1947355  49.1104460  26.1668086
   2.4818812  42.0895576  38.3745456   2.2753832  41.2592697  38.8037443
   3.3870929  42.2711611  38.6272192   4.0700850  11.5073442   5.0434780
   3.7858936  12.4133587   4.9226284   3.4641132  10.9930718   4.5100415
  82.7548027  17.4197829  18.2670784  83.0178452  18.2037389  17.7849424
  82.3266506  17.7553689  19.0546703  10.9730303  62.3483181  42.0699596
  10.5543518  61.5496302  41.7489576  10.8322263  62.3287296  43.0165434
  83.3894253  72.3198843  57.4466658  83.1206799  72.3975182  58.3620739
  84.3190861  72.5478315  57.4498224   0.8533058  26.7644072  10.4523230
   0.6368131  26.3029981   9.6420985   1.5110144  26.2116361  10.8743358
  14.3098772   7.4551284  38.7848210  14.2269814   6.5074563  38.8910198
  14.7525203   7.5640076  37.9431295  74.3949842  20.7235265  48.6337519
  73.7625456  20.5423975  47.9384470  74.9708652  21.3934016  48.2651567
  82.5513649  72.3058319  54.7819901  83.0362701  72.4697113  55.5908442
  81.6718960  72.6401663  54.9580526  64.5643425  56.2513733   6.9104272
  64.4659376  55.3260851   7.1349102  65.4327297  56.3101530   6.5120816
  75.1813269  17.9008162  59.1335630  75.9440660  18.3892226  59.4432688
  75.2693367  17.0376360  59.5377970  27.8034639  33.5557675   1.6868490
  27.1479273  33.7823963   1.0271935  28.0481052  32.6534772   1.4812943
  67.5302315  16.8460071  62.1963692  68.0121469  17.4519873  61.6335440
  66.6093969  17.0142245  61.9963646  12.8498745  35.9916139  14.1536748
  13.0141699  36.5807652  13.4173739  12.7260351  36.5738416  14.9032795
  71.8234396  41.8649483  16.7486954  72.2506380  41.0691786  16.4317083
  72.2538519  42.5742531  16.2713492  27.8511882  47.6878452  33.8252211
  27.0029855  48.0549002  34.0743303  27.6392651  46.8431759  33.4279132
  10.5567443  22.4415970   9.9188524  11.1419034  23.1954098   9.9936140
   9.8295081  22.7553034   9.3813133  68.4813404   0.1194625  20.2090526
  69.2697287   0.5101148  20.5859637  68.8039827  -0.4275671  19.4928873
   5.1754493  27.0940804   2.0761587   6.1197591  27.1244550   2.2297424
   4.8189890  27.7811956   2.6392204   9.9562943  25.7822227   6.6377741
   9.2051959  26.2551785   6.2794507  10.5711663  26.4691091   6.8953604
   0.5259787  23.9565516  13.9955223   0.8390070  24.8502278  14.1354799
   0.8344857  23.7293267  13.1183553   9.6804005   8.4335339  38.4488344
  10.1760924   8.8627440  39.1461873  10.1563001   7.6198226  38.2826257
  38.1718063  14.6008289  21.1829686  38.8975024  14.9743116  21.6830730
  38.0607271  15.1957905  20.4414058  68.2227468  34.6041465  10.3868890
  68.6701393  33.7934494  10.1443088  68.8590193  35.0777459  10.9227002
  76.4743614  17.1079040  27.6258659  77.0678234  16.4397407  27.9687786
  75.9693098  17.3932099  28.3872819  -0.2304951  10.4073131   8.9648384
   0.2402912   9.7790301   9.5124257   0.4499850  10.8156538   8.4296405
  81.1156750  29.2190909  12.8666270  81.8138695  29.6814919  13.3302450
  80.3218746  29.7108150  13.0771327  78.1205511  37.7798104  21.3975120
  77.6300669  38.3945608  21.9431639  77.7447128  37.8830051  20.5232525
  70.5968523  40.8758354  24.3071795  70.4171801  41.7220497  24.7168970
  71.0141659  41.0966730  23.4745240   2.7219135  43.1066227  29.3982482
   2.2232927  43.6937237  29.9665070   3.5426301  42.9584455  29.8680353
  78.3934689  18.6168194  16.0248804  77.5495815  18.7589443  16.4536953
  78.8806629  19.4258583  16.1808693  73.2046938  39.4470406  35.3098178
  73.4657574  38.6778593  34.8034215  73.2332182  39.1549540  36.2209177
  66.2862635  12.8987372   8.9313293  67.0180416  12.5141823   9.4138712
  66.5506220  12.8455150   8.0128992   9.0849161  35.1168990  21.8440723
   9.3135190  34.7004938  22.6750851   9.0257210  34.3923211  21.2214041
   0.5886817  33.7940955  39.5584321   1.0142100  34.5794249  39.9025488
   0.8072894  33.7920570  38.6265302  75.9294844  54.7437477  50.5210829
  75.9746122  55.5716515  50.9993792  76.8247604  54.5933580  50.2175999
  50.4941845  13.7472034  24.1220856  50.7864189  13.5595870  23.2301021
  49.5809650  13.4609556  24.1401291  68.0750179  13.2216227  56.7088890
  67.3134470  12.6932955  56.9478750  68.1739473  13.8402975  57.4325514
   6.1348653  23.0295229   0.9538749   6.1045128  23.8816714   1.3887954
   5.4238510  23.0618215   0.3138382  10.0641942  20.1679754  25.4404140
  10.5668795  19.3569660  25.5165863  10.7020867  20.8617568  25.6077218
  63.5832882   9.7342861  67.9527426  63.0225849   9.8666960  68.7171459
  64.3822050   9.3434054  68.3065510  64.8270988  37.3308587  21.6680956
  65.7766438  37.2249889  21.6099048  64.6865892  37.7771449  22.5031495
  40.9034920  21.5179420   2.6575211  41.4133453  22.2331619   2.2770754
  40.2657413  21.9530249   3.2233867  15.6217933  26.4688063   0.2123808
  16.5553403  26.2950778   0.0917995  15.5925357  27.2198081   0.8051477
  26.1268902  63.3621311  51.8177271  26.4479470  64.2593718  51.9077730
  26.9074321  62.8172398  51.9181347  51.3848400  67.1090364  42.3935699
  52.2026014  67.3708105  42.8166151  51.3304663  66.1648226  42.5410175
  60.6797314   9.4558686  19.0064716  60.9871864  10.1366603  19.6049905
  59.8041201   9.2353064  19.3241036  63.5762596  22.0255017  20.3293204
  62.6625967  22.2795558  20.1993036  63.9796925  22.7871060  20.7457733
  22.8436399  48.1237221   2.6236054  23.0876231  48.8456202   2.0443203
  22.6367092  47.4008036   2.0313241  59.0604591   8.6072451  67.1057510
  58.1527281   8.4754777  66.8320990  59.4465113   7.7316040  67.0845890
  53.4925556  55.9292459  18.8763797  53.9762449  55.2834463  18.3613849
  52.8384113  55.4160690  19.3506968   1.6489227  14.8510873  41.9082117
   2.5469735  14.5306671  41.9922733   1.6201800  15.6313109  42.4619770
  41.0124922  67.3655510  36.5558600  40.9413147  67.3951483  37.5099516
  41.9542170  67.3380566  36.3866758  83.6615562  23.6955476  21.8952107
  83.3004951  23.4308529  22.7412605  83.7543392  22.8770161  21.4077401
   0.5327366  15.9956503  21.9742656   0.0282383  16.8072712  21.9196343
  -0.1193867  15.3014278  21.8792772  34.2317748   4.6768415  50.6434488
  33.8307571   5.1477468  49.9129248  33.7270284   3.8664269  50.7119513
  41.7797565  65.4109049  67.2719765  42.3672676  65.8534241  67.8845406
  41.1327982  66.0762787  67.0375395  43.6375904   2.1078324  42.1859884
  43.7851286   1.6828045  43.0308676  43.7960100   3.0367136  42.3542595
  69.3313265  28.4113073   5.1778728  69.9685478  29.0480256   5.5015606
  69.8403311  27.8280354   4.6148980  83.0320358  51.5372229  38.9067006
  83.1170368  52.3796844  38.4603071  82.9706478  51.7630768  39.8348451
  40.0470924  21.9651484  29.2309880  39.3255925  22.3903251  28.7674212
  39.7135234  21.8263149  30.1173782  54.3306541  31.2864304  10.3573179
  54.2315674  30.8681989  11.2125933  54.7745323  30.6303978   9.8198885
  66.8004465  11.4774895  46.5713644  67.4077892  11.1548471  47.2371531
  65.9373188  11.4034414  46.9784975  64.4547749  68.2159424  22.5904250
  63.5104418  68.0746460  22.5233674  64.5446396  69.1512728  22.7729654
  74.1794443  31.4674544  29.5230746  74.5718241  32.2502518  29.1364264
  74.8629856  30.8004260  29.4592524  35.6122756  70.9482288  67.1920347
  34.8362899  70.9424686  66.6316366  36.3204503  70.6454992  66.6236401
  24.4667482  40.2273226  23.7245202  25.2329683  39.8209000  24.1294408
  23.7234378  39.7300625  24.0657759  24.6067095  48.4192848  59.7669315
  24.8492527  49.1165590  60.3762007  23.9020777  47.9475641  60.2110100
  73.7024927  37.2031474  14.6312594  73.3898306  36.4480615  15.1295733
  74.3746519  36.8455744  14.0511060  73.2515669  18.7904167  32.9970527
  74.0138912  18.3033872  33.3099294  72.5015545  18.3252883  33.3676839
  65.2186251  71.6519117  29.8585892  64.5310354  71.6578579  30.5244827
  66.0270929  71.8047047  30.3477430  36.6897511   6.1128759  52.6743507
  36.5227103   6.9619614  53.0834770  35.9399819   5.9741879  52.0956945
  11.3115406  23.5002041   6.7464870  10.7925439  24.2995548   6.6575307
  11.4897811  23.4335184   7.6845783  55.3823900  15.4541457  21.8623638
  55.4074430  14.7419131  21.2233591  55.1895285  16.2349331  21.3433170
  53.1407785  68.9867258  18.6523497  52.5080395  69.2812538  19.3074250
  52.9038858  68.0747843  18.4835792   2.1451668  30.4578900  56.8256283
   2.5519130  29.6685934  57.1831226   2.0842211  30.2909398  55.8850718
  72.8402758  57.4691105  46.5372467  73.1880331  58.2086325  46.0388470
  73.3098555  56.7081213  46.1957407  57.0553780  62.7635574  30.7785916
  57.9167318  63.1058168  31.0176682  57.0138836  62.8625536  29.8274302
   2.0245206  40.9003210  60.6110668   2.9556993  40.8085108  60.4093027
   1.8899783  40.3450489  61.3790560  79.0839005  35.9410334  64.3650866
  78.7265778  35.2280855  63.8356924  78.6005402  35.8924341  65.1898479
   3.4433323  13.0273390  20.6854939   3.9935440  12.7658188  21.4238071
   3.3192584  13.9693928  20.8011246   1.1587298   6.6462666  38.1249881
   1.1446244   7.1227652  37.2949386   0.2535378   6.6777039  38.4346199
  61.8184805  26.7718840   6.4519531  62.3001385  25.9666896   6.6414213
  61.0341358  26.4783502   5.9884095   0.5772228  39.1686654   4.3206039
   0.1436527  38.3779097   4.6414700   0.3175311  39.2279172   3.4012121
  80.5139065  12.4205709  12.4163043  81.1487198  12.2023773  13.0986726
  79.8635721  11.7196572  12.4612212  59.3762875  41.0115242  29.1893673
  59.7544765  41.2687206  28.3485007  59.3940401  40.0545645  29.1772938
  80.7286930  74.6741438  -0.0691578  81.1889648  75.0790262   0.6659986
  80.1244354  74.0539646   0.3388640  70.5521107  17.5000179  34.2315316
  70.3830481  17.8840673  35.0918555  70.1612425  18.1169891  33.6128235
  79.7284174  18.7865996  68.6861372  79.8908663  18.6924839  67.7475309
  79.0691710  19.4779205  68.7469769  58.1415844  15.3139436   7.3276210
  57.3138666  15.5687964   7.7352548  57.8978634  14.6432805   6.6896212
  41.6413498  32.6086259   9.8832572  41.6647005  32.4675155   8.9368033
  41.6761971  33.5598135   9.9845332  60.0227785   6.0157245  30.9532833
  59.3054390   5.9334964  30.3248739  60.7110023   5.4478014  30.6068087
  70.6659174  33.4090543   6.3607961  71.1184120  34.0298891   6.9318026
  70.7293129  33.7964940   5.4878098  83.6799526  20.6571960  37.3659110
  84.0121555  19.9752975  36.7820525  82.7346420  20.6615949  37.2155905
  79.4078684  39.2284608  37.9333496  78.6617470  39.1591454  37.3377538
  79.4895506  40.1662636  38.1068015  21.3077259  39.3482375  12.7686524
  21.8020225  39.6134877  11.9930589  20.7319069  40.0907564  12.9512107
  78.7454176  21.7730975  25.4171467  79.4568300  22.3488307  25.6976056
  78.2682991  21.5722394  26.2222838  75.0789165  52.7853298  59.1220284
  74.9164581  53.6713934  58.7984037  75.4678392  52.9138708  59.9871540
  68.6718512  50.5469275  10.8941805  68.2181120  50.5440855  10.0513625
  68.4556341  49.7005320  11.2854540   1.6646753  19.0092719  30.3494978
   2.0598987  19.8808372  30.3294230   1.2796742  18.9409339  31.2231874
   2.4004158  53.4532261  68.7451124   3.2551989  53.7204647  69.0829897
   2.4208671  53.6992025  67.8202820   6.7866242  28.0910158  29.0115905
   7.6761979  28.0698395  29.3643546   6.5682828  27.1719432  28.8571167
   7.6818204  35.8911610  12.0254099   6.9675875  36.0841370  11.4180684
   7.2783637  35.3527784  12.7062917  56.4798737  27.6452351  14.9433994
  56.6514874  27.8983164  14.0363550  56.1072683  26.7657948  14.8802793
  63.0141497  18.2087266  53.5491133  62.9076052  17.2790885  53.3474874
  63.2539940  18.6091065  52.7134085  32.9057574  58.0406570   9.6642649
  33.2552981  58.1909370   8.7859321  32.2057581  57.4002838   9.5371455
   8.5613906  72.0274258  25.6330323   9.3514800  72.5602531  25.7229614
   8.6290205  71.6444921  24.7583771  11.4930904  13.2268476  38.0947971
  10.8365750  12.5335503  38.1623149  11.4372325  13.6917281  38.9296603
  64.2990351  10.2686405  35.7214880  64.0383148   9.3579060  35.8586740
  63.5971785  10.7816350  36.1220765  20.7003570  16.6074216  22.0477581
  21.4858413  16.9940901  22.4347162  20.0312662  17.2863376  22.1350646
   7.6384008  29.3816447  19.5485628   7.6223248  28.4599400  19.8063159
   6.9068605  29.4723821  18.9379489  31.7540693  68.5216761  27.0945764
  32.0365310  68.5365391  26.1801219  32.0578575  67.6763868  27.4253774
  52.9420757   0.8547010  30.8175611  53.4644365   0.4573181  30.1208138
  53.4924650   0.7871402  31.5977764  30.7845592  71.5998888  65.5899048
  31.4511251  71.8005657  64.9329042  30.4688358  72.4557114  65.8799410
  78.7678862  68.6791468  65.5111599  79.3828440  68.7132025  66.2438965
  77.9955673  69.1498184  65.8245802  55.1710987  75.3290319  27.7958274
  54.4511795  75.1613426  27.1876931  54.7845030  75.8759546  28.4796739
  41.2750816  17.2985268  67.2948647  41.1362314  17.1014607  66.3685179
  40.8590412  18.1509519  67.4233723  35.7071018  38.2070279  68.1021309
  35.0665379  37.4978685  68.0473232  35.3956199  38.7560582  68.8216972
  67.7673054  12.1987677   6.4147311  68.3870077  12.4381328   5.7255965
  67.1227837  11.6441357   5.9751797  59.6792459  19.0924847   1.9703543
  59.7923040  19.4408917   1.0860116  60.5706596  18.9351809   2.2815908
  56.7474270   7.3433143  65.6530428  56.1503935   6.7813587  66.1469984
  56.2638187   8.1607997  65.5344105  75.0444460  61.4658642  60.3567076
  75.3807640  61.9205904  61.1289406  74.8529577  60.5800676  60.6648207
  65.4705811  23.4009004  15.5513966  65.0368834  23.6495924  16.3676608
  65.3286791  24.1463900  14.9680066  52.4016762   2.8119037  33.4088564
  53.3326674   3.0343235  33.4137034  52.1423817   2.8464317  34.3296194
  39.5664954  28.6553931   4.0775084  39.6169853  28.9933920   4.9716228
  40.1522255  27.8983331   4.0742093  55.6813240  45.7171249   5.3099161
  55.0754452  45.5420446   6.0299742  55.9534121  46.6253853   5.4413116
  51.9187737   9.4334638  61.1982489  51.1346340   9.1017294  60.7608604
  52.3267794  10.0108874  60.5530071  71.5904236  22.5752950   2.3060982
  71.6340828  22.2468972   1.4080560  71.6753721  23.5246730   2.2183463
  35.7178926  13.4023416  13.7481630  35.3251219  12.6129830  14.1208231
  35.2217436  13.5604811  12.9450059   6.3013250  27.2483945  17.0284355
   7.0037466  26.7737961  16.5839231   6.2986457  26.8945026  17.9178083
  61.6281652  46.0733747  22.1617174  61.5783739  46.7978048  22.7853751
  61.1112404  46.3671637  21.4115787  82.0352364  59.9242687  12.9120779
  81.7399406  60.1386595  13.7969887  82.9850101  60.0393867  12.9420519
  31.2687802  67.9855776   7.5990850  32.0262098  68.4798622   7.2856951
  31.0909152  67.3530102   6.9030583  79.9650097  65.1337099  14.2717552
  79.6381664  65.9218216  13.8378406  80.1280308  64.5173359  13.5577977
  81.4449310  32.0051527  23.5157466  81.9799805  31.2422800  23.7347889
  81.6703796  32.2027874  22.6067138  31.9143653  61.8941975  65.6365776
  32.3967814  61.3262033  65.0358391  31.0121799  61.8687820  65.3177500
  81.1198235  44.4360590  34.1234994  82.0634747  44.2756033  34.1256499
  80.9580326  44.9023724  33.3033752  58.3850336  34.0579176  23.9218426
  57.5009298  33.8515544  23.6185098  58.6620378  34.7906709  23.3717775
  73.8291454  73.8723898  20.2058291  73.0935335  73.6487341  19.6356690
  74.2009830  74.6643496  19.8175323  38.8623428  11.5035808  57.5362587
  38.3001041  10.7315564  57.4722528  39.6743703  11.1770403  57.9238367
  61.1130142   4.9543431  49.3458891  61.2871599   4.0776986  49.6885300
  61.3765383   4.9089855  48.4267998  59.5266151  20.2604532  37.8294969
  60.0463247  21.0331273  37.6078844  58.7761641  20.2984309  37.2365308
  41.2650394  35.2876282   5.6898767  41.0786152  34.5942879   5.0568247
  42.2039223  35.2108026   5.8596790   2.3945276  32.4916673  23.0305600
   2.4196164  32.9464293  23.8724566   2.8999442  33.0512357  22.4409246
  57.2826195  52.8427219  16.0854602  57.2732210  53.0523634  15.1515484
  56.9395590  51.9504356  16.1340976  59.7349977  73.3653212  22.0859027
  60.3586483  72.6832819  21.8366861  60.1304436  73.7835979  22.8506899
   0.9697157  51.3303518  14.9780297   0.8707860  50.6464195  15.6403565
   0.1000173  51.4124155  14.5867217  52.8679132  71.5351534  15.5910599
  53.1809568  72.2201204  16.1818659  52.0618677  71.2176847  15.9981728
  69.3270206  22.3152256  25.9232402  68.5744095  22.8229380  26.2266111
  69.9554300  22.9730535  25.6255913  61.9133854  41.4645910  33.7582040
  62.7876711  41.8542290  33.7645173  61.5438795  41.7190170  32.9126501
  56.9427013  11.6714084  63.6206961  57.8207159  11.9277823  63.9028263
  56.5430546  12.4848175  63.3126688  62.0666742   7.6103878  66.7719603
  61.8622446   8.5224354  66.9783831  62.9871941   7.6246548  66.5099096
  82.2599602  52.0840406  26.0011363  82.2958660  51.2652016  26.4955521
  81.7570305  52.6782608  26.5580940  67.3612976   7.5022501  45.3030872
  67.9169464   6.9521970  44.7508812  67.5606585   8.3970076  45.0275946
  63.7973452  25.0512362  17.1712399  62.8796816  24.9612308  17.4281967
  63.8781261  25.9614825  16.8863547  71.9474840  20.4316950   9.8667520
  72.4737883  19.9409890   9.2355305  72.2652960  20.1404190  10.7213783
  38.1811333  31.2543845  23.8048482  38.3228111  31.9915724  23.2109499
  37.3528028  31.4539886  24.2410350   4.7424591  31.9486189  55.7646370
   5.6976658  31.9907737  55.7195282   4.5029554  31.2661552  55.1376534
   9.7349346  32.4268603   1.3733201   8.9694357  32.9205203   1.0791340
   9.6193707  32.3475242   2.3202005  50.6194258  65.7106924  64.7083235
  49.6862459  65.9049273  64.7959328  50.6995821  65.3047848  63.8451672
  10.6302226  65.0652027   5.1982188  10.8811665  65.0154161   6.1205965
  10.6620169  65.9992552   4.9914283  54.5221853  58.4428883   1.1894533
  53.9523506  59.2104626   1.1409448  55.3486300  58.7333632   0.8036534
  38.8728356  19.8329782  21.7224693  39.4421935  19.6045756  20.9876943
  39.1618752  20.7063198  21.9869781  53.0754757   8.1538981   2.5300381
  53.7735510   8.7268066   2.2127089  53.4711361   7.6749903   3.2582769
   0.5752624  11.7116058   0.3583919   0.1386788  11.0565209  -0.1861173
  -0.0747712  11.9434857   1.0216565  13.9151418  26.5703249  44.3345261
  14.4440174  25.8002949  44.5432758  14.4591522  27.3128653  44.5970488
  73.6659765  52.0036268  47.4157858  74.3448544  51.8869162  48.0804157
  72.9496288  52.4379921  47.8788233  29.5531297  71.2962437  14.6202135
  28.7777424  71.4290953  14.0749097  30.2799916  71.2606335  13.9984143
  83.5801506  31.9614625  43.3811188  84.3098545  31.4041734  43.1105614
  82.8389359  31.6563225  42.8579330  29.6343923  22.0885015  14.4801807
  29.3173552  21.2841225  14.0694594  28.9084935  22.7058434  14.3896580
  73.3355236  11.5816438  10.7344592  73.7586975  12.2391820  11.2865448
  74.0126991  10.9215593  10.5863011  73.9593887  57.7313328  56.1403322
  74.5483828  58.3408213  55.6955385  73.0894899  58.1150723  56.0296726
  73.7954044  45.8721495  66.5498209  74.1360426  45.1897430  67.1281958
  72.8875828  45.6164455  66.3864040  26.7759013  60.5292368  37.1855044
  27.3295546  59.7584343  37.0607281  26.2172699  60.3049421  37.9297161
  81.1446953  41.4185619  65.3787947  82.0591450  41.1537504  65.2793121
  81.0181141  42.0965528  64.7150660  56.0080147  74.6978998   3.9409509
  56.1831093  74.4421196   4.8465726  55.2346706  75.2592802   3.9958712
  76.8651533  35.7247710   5.7320154  76.2466383  35.3051090   6.3299733
  77.5561476  35.0743127   5.6068504   4.8633331  42.5625467  39.9710226
   5.7292843  42.2531128  39.7052908   5.0306523  43.1175852  40.7327127
  59.2189741  13.3331561  27.9445028  58.4525108  13.8999784  27.8580499
  58.8556385  12.4587989  28.0849266  64.8332787   9.7998959  17.7521169
  64.2644739  10.5041814  18.0630398  65.7187128  10.1551175  17.8299570
  76.5098381  11.6543043  -0.0488048  76.4931536  11.0893917   0.7237412
  77.4008751  12.0032740  -0.0711457  41.2900925  20.2527189  15.9654903
  41.3048935  21.2088490  15.9227288  41.0167074  19.9780273  15.0902545
  74.7664881  15.7293344  63.2208538  74.7845030  15.4432261  64.1341162
  73.8381577  15.8639550  63.0303049  71.5488720  16.6622651  18.0812323
  70.8112288  16.1147094  18.3501112  72.2848892  16.0544527  18.0100012
   4.9414313   4.1446459  46.6129494   5.5183494   3.4576175  46.9467020
   5.3221035   4.3880814  45.7691145   6.9430107  68.1818247  55.1042271
   7.6890069  68.3205748  55.6877279   7.0339257  68.8591671  54.4340229
  36.6564798  66.2572670  42.9524279  36.1082149  65.5444765  43.2804012
  36.9022107  66.7501307  43.7353277  25.3512144  68.9345455  53.2544374
  25.1505780  68.7706375  52.3329639  24.7105002  69.5918655  53.5258198
   5.8179730  69.5943546  59.7620535   5.4109532  68.8108253  60.1317120
   5.4537231  69.6596956  58.8792801  81.4572716  10.7790875  68.7421799
  82.2760963  10.6558967  68.2619905  81.7218113  11.1896658  69.5653915
  76.7951345  75.2838135  54.2713070  77.4217606  74.8240471  53.7125683
  76.5237617  74.6298265  54.9154234  22.4141312  65.8844090   8.9130628
  22.1980715  65.3121519   8.1768072  22.2619653  66.7692947   8.5813224
  27.7377820  63.5962343   9.6904159  27.2486210  62.9094982   9.2372686
  27.4181557  64.4120455   9.3050230  17.8722155  74.9632502  11.2511206
  18.7923741  75.0396109  10.9987116  17.6044726  74.1046047  10.9235895
  67.0659733  25.6741810  35.3041315  66.5335941  26.3749504  34.9276614
  67.6271582  25.3865051  34.5840311  54.9661255   5.0050467   2.6671511
  55.5752134   5.5728215   3.1392542  55.3778601   4.8691437   1.8137822
  22.9207182  52.0997143  41.6349745  23.2420063  52.7768564  42.2303581
  23.3658719  52.2782755  40.8066082  71.5625572  69.9928188  11.8860638
  70.9785128  70.1141119  12.6346707  72.4388981  70.1483154  12.2383153
  63.3434772  20.7484674  16.3436484  64.0101242  20.8934402  15.6722355
  63.8050938  20.2870631  17.0438242  28.3916450  67.4237967   5.5924755
  29.2086244  67.9152536   5.5073512  28.0839562  67.3129797   4.6928769
  48.8697863  42.3620081  10.0117755  48.5164976  42.4812746   9.1301888
  48.2825232  41.7266178  10.4212093  50.8288383  62.4026632  23.3443856
  51.1210346  61.6774607  22.7921772  49.9886036  62.1109152  23.6981010
  71.1931324   3.0403820  26.8403697  71.5857983   3.3492634  27.6568460
  70.5132675   2.4267411  27.1186876  66.5234900   5.5605370  41.4999151
  67.3591614   5.8315986  41.8799305  66.5179968   4.6074620  41.5885115
  39.0047240   4.1342977  67.1736622  38.3379555   3.5898972  66.7549944
  39.1059160   4.8832431  66.5862322  57.0377588  51.7468643   9.1668481
  57.3318052  51.3650084   8.3398324  57.6625681  52.4507380   9.3412161
  50.3649712  18.9739275   9.7943223  50.9137154  18.2052469   9.6386176
  50.3332853  19.4208944   8.9484799  58.9454174  55.3699589  50.2183867
  58.4508038  55.8197737  50.9034109  58.2838869  54.8865414  49.7234917
  76.9862032  19.3767226  64.2460060  76.0731840  19.2112279  64.4810343
  76.9457626  19.7144902  63.3512926  57.1240330   1.1719228  10.2855027
  57.0532322   1.1006060   9.3335932  56.2254858   1.3158143  10.5823970
  82.4266243  28.3456850  16.6829455  82.2633457  28.6304092  17.5821126
  81.6006470  27.9512739  16.4028788  54.2583561  26.8382335   5.3821957
  53.8101292  26.0006428   5.4995096  54.5165157  26.8447018   4.4604886
  77.8951502  26.9636154   4.4280091  77.7470207  27.3982930   3.5881612
  78.0944300  26.0565042   4.1963479  37.2558284  13.8695085  35.8784580
  36.6872883  13.0998158  35.9023118  38.0818486  13.5689652  36.2573981
   3.2163382  60.0610971  68.6493540   2.3085746  60.3400087  68.5293293
   3.4120688  59.5408154  67.8701019  47.9329348  33.2152700  66.1629725
  47.6028299  33.6260128  65.3638792  48.8553476  33.0386662  65.9780502
  68.1462526  73.8692617  60.3877306  68.0640030  73.5338783  59.4949913
  68.4580374  73.1210756  60.8968878  53.3803988  17.6191342  39.9566388
  53.7809849  18.3960950  39.5666480  53.3453655  16.9833767  39.2419243
  11.9808483  69.0965176  65.2927637  12.3005748  69.9878311  65.4326391
  11.0380709  69.1530704  65.4483461   5.0576079   4.5389405   9.3624830
   5.4173785   3.6639473   9.5080298   4.9060950   4.8849562  10.2419996
  51.4066553   2.5919601  35.9523916  51.4155769   1.9862720  36.6935349
  51.4059114   3.4611219  36.3533759   4.9458537  21.7326641  33.3699727
   4.4290155  21.9081473  32.5836420   4.7226578  22.4463654  33.9675045
  23.4150934   6.4538777  60.4500961  23.7643385   6.9640809  61.1808157
  23.6839843   6.9383425  59.6695662  54.5871258  68.5818243  59.4476986
  55.4485750  68.9557648  59.2624712  54.0856171  68.7266254  58.6453581
  71.4608049  55.2351904  23.5602379  70.8946753  55.6336737  22.8992176
  70.8717537  55.0250244  24.2848611  81.0786533  39.8732042  48.7127304
  80.1309109  39.7461939  48.7561798  81.2083721  40.7914448  48.9498854
  81.1396313  23.9458656   5.2362555  81.3307667  23.0273342   5.4259825
  80.3303814  23.9215851   4.7256112  14.4460416  35.1469445  61.8679285
  14.0570331  34.3006182  61.6473961  15.3859496  35.0192952  61.7394352
  72.7998257  50.9247828  54.8759985  72.8952122  51.0303068  53.9294243
  73.6282682  50.5373335  55.1584864  64.1930914  53.9094114  54.8290682
  63.7907028  53.2983494  54.2118788  64.8505211  53.3872843  55.2888441
  33.3851838  68.8654375  24.6933246  33.3566999  69.8221588  24.6833539
  34.2676663  68.6552620  24.9987531  55.9401369  11.6650069  30.3873777
  56.5479326  11.0150969  30.7401323  56.1633015  11.7221940  29.4583154
  74.9176168  13.2197976   6.4295882  74.3299866  13.9565229   6.5973985
  74.3861675  12.4440050   6.6083127  74.3270206  42.7887392   1.0324733
  73.5469484  43.0242205   0.5302062  74.5915413  43.6032915   1.4599866
  12.8455377  48.5137415  60.5841160  12.4098217  49.3654919  60.5540705
  12.7819991  48.2444000  61.5004396  62.4759531  70.3892136   0.4274036
  63.3022451  69.9225807   0.3020061  61.8032646  69.7580719   0.1716903
   0.5988682  64.1461658  33.2983351   0.7376264  64.9980021  32.8843856
   0.0244433  64.3316031  34.0412211   7.6555228  24.9041581  16.3320863
   6.9719577  24.2384911  16.4086103   8.4741551  24.4081044  16.3336444
  18.9945018  56.5865183  57.8255749  19.6675742  57.1495628  58.2079172
  19.3994260  55.7199478  57.7892590  21.1665106  66.8281984  66.8779373
  21.6339684  66.6157913  66.0701036  21.1198068  65.9984541  67.3528814
  21.7649865  38.7662601  66.0955811  22.5762749  39.1328573  66.4472246
  21.7884159  37.8440595  66.3509750  52.0207548  11.1284304  16.6010857
  52.3454475  11.9674087  16.2740982  52.6108599  10.4782450  16.2199461
  20.5109739  37.4892831  41.4918184  20.5559850  37.5482416  40.5375004
  20.8998942  38.3074594  41.8009472   1.3996163   8.5784012  22.7946258
   0.9251921   8.0227804  22.1762109   1.2783679   8.1509185  23.6424422
  26.2906146   8.5189360  29.3522954  25.8812284   7.6632410  29.2241526
  25.9791994   9.0460396  28.6164880  47.9727459  21.3995481  46.6024303
  47.9674959  22.3373890  46.7938995  48.2949734  21.3405156  45.7030344
  55.1981163  75.1441288  51.9115067  55.4694986  75.8934259  51.3812828
  54.3205214  75.3727341  52.2177744  41.1940861  14.4871140  57.2355366
  41.3631678  14.6022272  58.1706238  40.2701378  14.2416406  57.1876431
  37.3726273   4.2193496  56.8134642  38.0410767   3.8446075  57.3870325
  37.7710414   4.2097682  55.9431744  69.5615149  47.5279856   9.4513965
  70.3825665  47.9062653   9.7660589  69.1934919  48.1989717   8.8764459
  51.4475870  25.4004073  21.9480157  51.1373997  24.7365808  21.3321018
  51.9265509  26.0261393  21.4046168  16.4850342  46.2436914   0.9997776
  17.1143818  46.2672758   0.2789459  16.9862688  46.5263510   1.7646958
  13.5049140  35.8675575  37.5307894  14.4310999  35.6898713  37.6946211
  13.5042775  36.6614938  36.9960976  11.8616056  67.2361231  60.0143385
  12.0846272  66.3170815  60.1621819  11.5237212  67.5391579  60.8570910
  51.0021019   3.2965803   5.4009598  51.7765570   3.7061322   5.0153285
  50.2740049   3.8527983   5.1239592   6.2165731  55.5067635  62.9838943
   7.0005411  55.0109196  62.7477503   6.1583072  55.4237032  63.9357042
   3.0414045  11.1977196  39.6439099   3.2743323  10.3068578  39.3824887
   2.4018647  11.0816514  40.3465843  10.7800353  34.1292381   5.9126741
   9.8888898  33.8488674   5.7041425  11.1558580  33.3932018   6.3956213
  61.9005156   7.9337758  17.0939994  62.2606087   8.6268204  16.5405977
  61.3482618   8.3943677  17.7257442  72.2146988  28.4161878  15.4716980
  71.4269161  28.1259561  15.0119174  72.9360485  28.0119324  14.9895585
  10.9509122  46.7957497  59.5707369  11.8348551  47.0342159  59.8500443
  10.6081986  47.5883770  59.1577959  34.6912479   3.7838310  47.4723959
  34.0471697   4.4339156  47.7530813  35.2771831   4.2642349  46.8874836
  67.4763727   3.9968538  27.0059538  67.6097012   3.0720106  26.7983031
  67.5210428   4.0366906  27.9612803  61.9439220  13.4223044  27.5868154
  60.9874439  13.4331679  27.5512171  62.1524715  12.7278864  28.2117319
  74.7860289  64.9303865  28.3373713  75.4108953  65.5661583  28.6860371
  74.0097857  65.4488659  28.1255817  54.7443342  39.6814156  57.2608757
  53.9090967  39.5092368  57.6955795  54.6931505  40.6007528  56.9992733
  55.9324026  56.4593840  67.5790215  56.7422056  56.6737080  68.0421829
  56.1616516  55.7093477  67.0302773  71.5575886  49.1923428  32.5921082
  72.1993494  49.6713114  33.1164742  72.0812941  48.7225342  31.9430757
  80.4403973  57.2776699  45.4975080  81.0424137  56.5973568  45.1958752
  80.7552814  58.0788708  45.0789928  10.5967224  57.1388912  59.0095377
   9.6495724  57.1470118  59.1476393  10.7991838  56.2291193  58.7914801
  82.3214149  58.2606411  32.3886251  82.5274277  57.5656033  33.0136943
  82.3757839  57.8364611  31.5322685  24.1436577  10.5898499   2.9414308
  23.4807897  11.2482858   2.7333441  24.5971775  10.9404862   3.7079853
  47.7211523   1.8057352  46.6700888  47.2260380   1.7100948  47.4836922
  47.9708481   2.7295500  46.6488552   8.1161159  16.0431957  17.0973635
   8.2359612  16.2172091  16.1637747   7.7657139  15.1531124  17.1320474
  66.1747932  27.1516705   0.2486509  65.7433605  26.9887137   1.0874256
  65.4664850  27.4189830  -0.3370713  72.5263596  42.1326828  67.3477411
  73.2426739  42.2660542  66.7269850  72.3366880  41.1958408  67.2969151
  83.0037785  34.6734238  33.5261059  82.5351238  33.9745903  33.9824176
  82.5122547  35.4677057  33.7352943  19.2236006  63.6373234  33.7473822
  20.1629233  63.5549927  33.5826731  18.9748156  62.8000784  34.1389918
  38.7819123  65.4931164  41.0973930  38.1346631  65.6023121  41.7940855
  38.4150434  65.9697628  40.3527832  79.0235138  29.8741984  24.9855018
  79.9287653  29.9965811  25.2714586  78.5925627  29.4520617  25.7286811
  70.0745201  62.2567558  42.4445486  70.3463984  61.7491198  43.2091522
  69.2109251  62.5973225  42.6778984  80.3356266   0.6825212  66.5301657
  79.5821476   1.1385155  66.1552334  81.0942364   1.1729166  66.2135363
  16.4881182  21.0723329  65.4685879  16.9651735  20.4112625  64.9669552
  15.7209909  20.6096792  65.8057785  18.2703626  51.4297533  50.5335236
  18.1474972  50.4822779  50.5920410  18.2033908  51.7362642  51.4378452
  31.0542798  70.1943779  60.4042387  31.0481286  69.5653200  61.1256838
  30.1290989  70.3523159  60.2162886  -0.0849369  23.0041075  40.6663990
   0.6684002  22.4205232  40.5761623   0.0642203  23.6901116  40.0157213
   5.1764524  58.9870501   9.8633033   5.3779000  58.4230185   9.1166288
   4.2563421  59.2225266   9.7442293  36.7283201  31.1344934  60.6680393
  37.5330400  30.7628345  60.3067589  36.5338683  31.8810868  60.1014566
  25.5056238  65.1660061  12.0893300  25.4971218  65.4634857  12.9990911
  24.7036886  65.5272865  11.7116988  23.1965089   4.3986213  21.6954994
  22.9206824   5.0991499  21.1043906  22.3824167   3.9612591  21.9448996
  67.1754265  45.4747725   6.1190748  66.2454176  45.2486324   6.1057645
  67.2025013  46.3930559   5.8502704  71.6631126  14.8355174   4.9868655
  72.2011900  14.9688482   5.7672012  71.9920778  15.4765344   4.3567008
  71.5154362  11.3308132   5.2914232  70.7080936  11.4487934   4.7909153
  71.2460184  11.4214933   6.2054384  36.6913223  -0.1151511  52.5420284
  36.1680865   0.6462004  52.2914314  36.4528441  -0.2799019  53.4542894
   4.6197149   3.6988929  20.2515531   3.8525996   3.7297949  20.8232284
   4.6660042   4.5735019  19.8653567   8.4625602  38.1552434  58.5054684
   7.6705170  38.1963110  59.0413904   8.1638134  37.8146815  57.6622581
  12.3966312  26.5611768  61.7690516  12.9487908  25.9426284  62.2473335
  12.4954283  26.3099313  60.8507156  70.6161928   1.7391793   1.7290238
  70.3619909   2.2069000   2.5245428  69.8041630   1.3410524   1.4154337
   5.4637504  69.7137451  57.1583986   5.7470369  68.9194107  56.7056179
   5.1997465  70.3084087  56.4563227  80.6482601   7.3204809  19.0026700
  79.9963856   7.6472175  18.3825660  80.1513672   6.7618877  19.6004152
  10.0848007  61.6416264   9.4368058  10.5548549  61.3343096   8.6616677
   9.1983294  61.8215084   9.1236883  70.4851389  68.0694485  32.6432371
  69.7914648  68.0936289  31.9840980  71.2431192  67.7125835  32.1802664
  77.8060007  56.1560392  58.8534832  76.8765545  55.9899473  58.6960697
  78.2549620  55.4229355  58.4325027  66.5136480  19.9812829  21.0568738
  65.6311178  20.1297903  20.7172799  66.3994122  19.9285173  22.0057678
  13.2667613  32.4329352  62.3767042  13.4953475  31.5909719  61.9829035
  12.6008523  32.2188234  63.0301237  59.3239689   2.5322539  11.5101254
  58.9245844   1.9082484  10.9040391  58.6363983   3.1766930  11.6779792
   7.9139864  58.9009619  47.0642614   8.5352319  58.2422924  46.7537117
   7.2035003  58.3937693  47.4569416  79.5357656  65.8524990  46.9794178
  80.4118729  66.2283230  47.0655584  79.5110941  65.5042601  46.0881567
  76.7944574  19.7839677   4.0099332  77.0234060  20.6913614   3.8088128
  75.8559227  19.8094213   4.1962907  11.3251984  70.1729631  44.3426991
  10.4881918  69.7537947  44.5425797  11.5889585  70.5854368  45.1652098
  18.7263072  53.0188274  67.3634434  19.2903244  53.7756062  67.5228167
  19.0798688  52.3330688  67.9299784  25.9385753  15.9460759  41.4106607
  24.9941730  16.0792744  41.4918423  26.2493086  16.7171800  40.9362411
   1.6366826  66.7067003  32.0339084   2.3128220  66.5335321  31.3788676
   1.8676072  67.5620937  32.3961329  20.3082228  43.7565088  52.4780846
  20.0057888  44.3921518  53.1267166  20.9091210  44.2507219  51.9204950
  15.9714222  32.0025444  63.7805319  15.4241753  32.6575351  63.3472443
  16.6085410  32.5144482  64.2787933  27.7475715  18.2021260  46.7765522
  27.5591326  17.3384392  46.4094448  26.8866301  18.5737669  46.9686317
  55.6906843  12.5262392  27.2109914  55.7511759  12.7867508  26.2919140
  54.8939371  11.9978464  27.2582245   8.4023982  25.7241464  52.8728104
   8.9189935  24.9676704  52.5951385   7.5499386  25.3583884  53.1089592
  60.7194901  13.6151290  22.7795291  60.7101536  14.5720351  22.8013086
  61.3541269  13.3664429  23.4515572   1.1653959  62.6103830  49.4970322
   1.2899666  63.5551977  49.5867300   2.0383301  62.2714710  49.2986488
   7.1888924  59.9978733  62.9992914   7.9862702  59.4688606  63.0231285
   7.0974904  60.2521038  62.0810080  48.1497908  10.3964341  57.4603224
  48.2659006   9.6427637  56.8817616  47.3375607  10.2130723  57.9324389
  35.1100898  67.3879194  21.9535780  34.8397446  66.8057537  22.6636696
  34.4314837  67.2833681  21.2866473  41.3497734  69.0982962  68.5076523
  40.6302309  68.5868454  68.1376314  41.2525797  68.9981747  69.4546270
  43.3430290   5.2592474  54.4803572  43.7821913   5.0610179  55.3074455
  43.4694529   4.4739684  53.9478302  39.4402814  70.3093672  48.1543016
  38.6117005  70.7075548  47.8875923  39.4720149  69.4801140  47.6772594
   1.2226238  47.9012394  55.3783655   2.0515764  47.8546286  54.9020243
   1.1791339  48.8032532  55.6957150  22.9323006  17.4933267  48.7502670
  22.0291090  17.6236272  48.4613132  23.0690241  16.5478623  48.6899757
  21.8746853  17.4972451  65.4258442  22.5388169  17.6867461  64.7630835
  22.2219348  16.7445731  65.9045219   1.8139802  10.5199730  31.5524840
   1.7112041  11.3340569  32.0453691   2.7048939  10.5612612  31.2049222
  44.0752935  71.5236521  60.7978916  44.1894817  71.1447716  59.9263191
  44.0295887  70.7678652  61.3834906  75.6764841  39.4607639  12.7502406
  76.4899826  39.1128087  13.1154466  75.5491638  40.2953768  13.2012820
  41.4072847  10.7339251  45.9601259  41.3463163   9.8661476  45.5607796
  42.2840357  10.7601619  46.3433409  49.1688538   2.6025045  34.2655039
  48.8559294   3.4032047  34.6864414  49.9611855   2.3710562  34.7501421
  51.7961693  65.7737637  11.2583590  51.2903786  65.2688408  11.8951201
  52.7089882  65.6230831  11.5039015  29.2644215  56.7110205  23.6247134
  29.3297863  57.4161959  24.2686796  28.3484435  56.4357996  23.6630559
  76.7575598  35.7835078  30.9776711  76.5589380  35.3507733  31.8080473
  77.6743412  35.5668545  30.8079624  17.9367542  26.5282607  22.2637701
  18.8858163  26.6338539  22.1977091  17.6044083  26.8112230  21.4118838
  30.0917029  68.2706213  35.3332281  29.7861290  67.3742104  35.4721570
  29.2913246  68.7948799  35.3052735  70.2812529   0.9291766   5.4376000
  70.7618380   1.7262509   5.2141291  70.9385252   0.3557978   5.8318883
  14.3403268  49.9223375  50.4513168  14.9649096  49.7715616  49.7418118
  13.5028493  50.0585699  50.0082541  53.4662628  29.4101048   1.2099473
  54.1538811  29.7578716   0.6420802  53.7699747  28.5331559   1.4443712
  28.1599355  68.4740639  62.4430037  28.8557529  68.7279367  63.0493212
  28.4824657  67.6729536  62.0301819   9.8876691   0.7462778  66.4631653
  10.7648313   0.3782089  66.5696716   9.3213165  -0.0157467  66.3415289
  80.1767921  70.7928896  38.5467196  80.5714607  71.5670776  38.9480853
  80.0004959  71.0550642  37.6431608  61.9492626  31.8213224  12.3297262
  62.2500086  31.7952275  11.4213765  62.2094870  30.9746623  12.6926017
   9.2704397  76.9225073  37.8609228  10.0753295  77.4037361  38.0527639
   9.4969249  76.3636303  37.1175575  81.9546318   8.2686323  21.1517978
  82.5072479   8.9311904  20.7372332  81.4158249   7.9258633  20.4387617
  35.9017754  60.4607153  63.7300777  35.4569697  60.1288366  62.9501820
  35.7716727  59.7783422  64.3886185  79.8599339  65.7909346   1.1500221
  80.2752781  64.9735498   0.8750574  79.0826273  65.5133724   1.6347714
  78.7840033  12.7671134  43.4910965  79.5101023  13.3868217  43.5615921
  78.4892511  12.6399410  44.3928623  21.6454983  76.3223171  44.6321869
  21.8899536  76.6737223  45.4883337  21.5446520  75.3818703  44.7792053
  26.8956590  72.3331976  52.8777456  26.7743063  71.6865969  53.5730267
  27.3161483  73.0755281  53.3117533  50.3533697  34.3908882  16.7228913
  50.7079697  35.2712607  16.8471265  49.7022152  34.2946792  17.4178529
  52.8550720  64.2742538   6.6200882  53.6282969  64.0481663   7.1370411
  52.8764868  63.6681843   5.8795106  61.8874884  21.1599159   5.3067398
  62.2010326  21.4838004   6.1511451  61.8492699  20.2095103   5.4139680
  42.2136545  10.1838672   0.4967458  42.0937252  10.9683263  -0.0384864
  42.8325701  10.4501343   1.1766564  82.9836941   7.3083264   0.6496638
  82.3526955   7.8747910   0.2056066  82.6203442   6.4274663   0.5585919
  75.6920719  32.0589805  13.4382236  75.2880764  32.7978373  12.9831350
  75.1937866  31.2959290  13.1454921  24.7576475  61.8645287  40.0700331
  24.9427438  62.2651052  40.9194517  23.9528847  62.2903824  39.7746682
   5.7031524   6.7140722  32.3015642   5.9828246   5.8264941  32.0774627
   5.7075733   6.7321312  33.2585835  13.2548833  39.2168379   2.3595603
  13.2031250  39.8648214   1.6569431  12.3638177  39.1670990   2.7056250
  19.8914623  46.2481403  43.3560038  20.0844598  45.4528713  43.8525248
  19.1959000  46.6782045  43.8534689  11.4485776  20.0518084  32.2662640
  12.0515561  19.6092606  32.8635907  10.6102538  20.0512123  32.7282667
  36.6060853  67.8623009  62.4159288  37.0148182  67.3313856  61.7323303
  37.2709465  68.5119486  62.6442814  49.5054626   8.2022578  20.9232616
  48.5801840   8.2980168  20.6976151  49.8818874   7.7163124  20.1895094
  52.0449638  15.8022237  58.1479645  52.3327303  15.2656126  58.8865232
  52.8405190  16.2406445  57.8461170  77.9808950  35.0764084  19.3365645
  77.4956560  34.4071794  19.8191702  77.3694754  35.8091950  19.2629158
   2.2428168  43.9469051   6.0876226   2.1548291  43.2589579   5.4279101
   2.3801719  44.7477722   5.5816793  41.1510277  16.5097380  49.8243475
  41.7507505  16.4648890  50.5690289  40.3107929  16.2147760  50.1753902
  29.1241980  63.6048126  48.9002562  28.3130789  64.1109276  48.9467478
  29.0500474  62.9677296  49.6107912  49.2868567  34.1237760  11.2642288
  49.8947716  33.6173534  11.8029368  49.8500252  34.6801686  10.7261789
  56.3286924  68.9119959   5.1210725  55.4887438  68.5731411   4.8114085
  56.5479612  68.3594513   5.8713031  50.4680204  23.8820338  15.8728826
  50.1152945  24.1600490  15.0275862  50.8037663  22.9998684  15.7138586
  74.4462204  27.6681638  28.1259227  75.1601648  28.3057427  28.1293869
  74.2699242  27.5009656  29.0517712  20.8204198  18.2451117   7.5980854
  21.7749763  18.3095932   7.6280189  20.5889225  18.5274088   6.7132413
   9.3664706  27.9065394  22.7221036   9.7016245  27.8053212  23.6129785
  10.1505089  27.9495215  22.1746826  55.0743103  17.8582859   1.1332771
  54.6974850  18.6155879   1.5813059  55.9214067  17.7253640   1.5587112
  82.6049995  30.9301805   1.5010668  82.0417404  30.1834226   1.7043482
  83.4950638  30.5964398   1.6134779  71.0580587  30.8152294   5.9666139
  71.8776226  30.5202031   6.3634861  70.9819889  31.7328501   6.2281787
  70.3982973  34.2945194   3.7591428  70.5127811  35.1342416   3.3141804
  70.6329918  33.6406016   3.1007034   8.9962262  56.9503593  68.1271839
   8.0408323  56.9367838  68.0699968   9.2541832  57.7333021  67.6406717
   0.9411176   4.6496227  48.1539726   0.9785146   5.1727110  48.9547300
   0.1324635   4.1440248  48.2357121  79.2087030  27.6444364  20.2879691
  78.4243536  27.1274090  20.4715681  79.4659758  27.3835516  19.4036710
  80.4733467  67.1100092  50.4675102  80.4757595  66.4166451  49.8076057
  79.9332523  67.8020144  50.0858498  73.8155794  73.6567640  64.7729158
  74.4645357  74.2324162  64.3682957  73.4420061  74.1787481  65.4829884
  37.6928020  22.8707218  11.2821329  37.1081781  23.4682703  10.8158922
  37.8844500  22.1797824  10.6480145  83.4713650  67.5551510  45.3402567
  83.9138412  67.0034456  44.6952248  83.1086349  66.9374609  45.9751749
  76.4072418  33.2518411   1.5047859  77.0824814  33.0590177   0.8543242
  76.8356562  33.0995989   2.3471120  70.5545902  39.8411226   1.9975787
  69.7863007  39.3584061   1.6927157  70.1974249  40.5325890   2.5548401
  50.9993935  11.5311038  58.7355757  50.8537483  10.7265329  58.2378912
  50.4392004  12.1804500  58.3104134  24.7086024  77.3953676  57.9005432
  25.2353263  76.7342377  58.3496523  24.3484235  77.9338551  58.6051893
  63.5392427  43.6123610  46.4939880  63.2640314  42.7147484  46.6804838
  63.6545420  44.0115786  47.3562908  17.0326221  70.1556492  59.7588682
  16.7741585  71.0567331  59.9524593  16.4690340  69.6196890  60.3168488
  74.8265791   3.5190821  12.3542893  73.9231539   3.8050294  12.2190380
  75.0563574   3.8533714  13.2212853   5.5273193  24.6404266  60.0912952
   6.4756256  24.6559358  60.2205515   5.2974319  25.5486894  59.8952293
   1.8235609  39.6983552  52.4923944   1.8636002  40.1219273  51.6349506
   1.6435024  40.4122877  53.1040430  56.1976576  12.7569616  45.0695324
  55.9242201  11.9313443  44.6697569  55.4484177  13.3405912  44.9501514
  21.2378573  23.2910419  48.7841511  20.4955053  23.1998205  48.1868029
  21.1936808  24.1989207  49.0842104  50.2196169  27.2551036  47.4493313
  50.0737429  28.1993651  47.3916721  49.3627501  26.8688703  47.2681189
  70.8929396   0.6013986  39.9821305  70.5329943   0.3020689  39.1472220
  71.8414736   0.5803792  39.8553300  22.8260827  76.8174124  67.2210550
  22.7776217  77.1767235  68.1069326  22.6248789  77.5591135  66.6504192
  65.8981037  55.1180363  19.4525921  66.3528442  55.7665396  19.9900758
  66.2095881  54.2743921  19.7804141   6.7816567  46.7828226  43.6983156
   6.0976768  46.1347151  43.5299158   7.5876552  46.2701035  43.7592983
  16.3701177  59.1508579  50.2296066  15.7171285  58.8789320  49.5847082
  17.1751022  58.7115908  49.9552393  65.8616400   8.2267427  57.1740723
  66.5855265   7.6971751  57.5084019  66.2622547   8.7883383  56.5104866
  50.4556131  51.2489223   4.3852127  49.8490143  51.5295172   5.0704372
  50.8852196  50.4743528   4.7481292  48.1453657  21.4770722  52.6598740
  47.7913141  21.3903356  51.7747974  49.0942574  21.5031934  52.5367641
  82.4504375  21.4956450  46.1249733  83.1193924  22.1636891  46.2748003
  81.6575813  21.8576503  46.5206671  21.3818789  72.3690367  66.0077238
  21.6743898  72.9758358  66.6877699  21.0842609  72.9339123  65.2945805
  17.2834146  56.6985512   2.0894077  17.4345958  55.7858753   2.3351543
  16.3725781  56.7198420   1.7958850  43.4214354   7.6689935   6.2890291
  44.3278790   7.3771769   6.1919171  42.8968573   6.9079244   6.0403836
  75.0791264   7.0131022   8.3764803  75.3777933   6.3610202   9.0103734
  75.8103752   7.1060044   7.7658427  67.3028421   9.8401290  62.2330856
  67.5125217   9.9570811  63.1596899  67.8165817   9.0780580  61.9655991
  58.7654543  70.0376797  56.9050646  58.9009047  69.5503807  56.0924006
  59.2603064  70.8480120  56.7837524  33.6506867  67.1827507  53.0559683
  33.8175678  67.9990530  53.5271740  34.4119835  66.6352987  53.2482052
  63.4008932  30.0189471   2.0031272  63.5550928  29.0986109   2.2162861
  62.7766705  29.9954867   1.2778524  14.9888873  27.2125030  27.2302723
  15.7361186  27.5093293  27.7496672  15.3803301  26.8215346  26.4491534
   3.8750899  22.0158982   4.4570979   3.1773925  22.4993420   4.8995137
   4.2131248  22.6278496   3.8032794  82.1451283  18.6026585   9.3885142
  81.8947220  18.1662047  10.2027869  82.1603775  19.5336044   9.6106422
  67.7521467  28.6180711  24.4970179  67.7389002  27.6686788  24.6183157
  68.6578369  28.8699532  24.6773529  19.7209513  78.3007765  64.3953466
  19.4950616  78.1938410  63.4713459  19.2642486  77.5853777  64.8379087
  83.0083561  37.7747464  20.3687406  82.7054977  37.0849562  20.9592462
  82.7873898  37.4552250  19.4939196   3.3709705  59.7741985  64.0339327
   4.1854292  59.3066072  64.2189932   3.6538029  60.6350708  63.7254810
  47.5282049  69.4081879  34.8232079  46.6793299  69.6422195  34.4478822
  47.6079273  68.4671926  34.6669793   5.7581764  18.5217905  20.0093341
   5.4671156  18.0206418  20.7711506   5.5978942  17.9413140  19.2653000
  17.1160340  77.3897600  40.0976086  17.6675224  77.2258759  40.8626175
  16.6992474  78.2321787  40.2788544  21.4138913  46.0736275  29.7077322
  22.0738673  46.4181566  30.3093624  21.4855504  46.6279078  28.9306402
  31.1028719  16.0823023  65.5747175  31.8589211  15.5930233  65.2503300
  31.4705753  16.9049311  65.8976841   9.1470087  52.2423697  64.0892124
   8.2426441  52.1586609  64.3914509   9.3886179  51.3595295  63.8091183
  13.8474286  58.5155869  62.6375675  13.6915135  58.7766695  61.7299557
  14.7619855  58.7470007  62.7996254  51.9493341  74.0625000  54.8179913
  51.6641426  73.6124134  55.6131792  51.6643333  74.9680996  54.9400473
   1.3443033  46.8632793  18.1444550   0.7924712  46.0889482  18.0343306
   1.5393449  46.8871212  19.0812695  10.8799434  76.1914158  47.7263641
  10.9348464  77.1302080  47.9049349  10.3267729  75.8462572  48.4271526
  60.6060934   5.4031760  37.5309300  61.1181593   5.0474024  36.8046784
  61.2532997   5.8242190  38.0966830  47.7610111   6.5740949  38.5808802
  47.9962730   5.7091624  38.2450581  48.2936525   7.1827811  38.0689931
  77.9960299  30.3448343  11.5527034  77.8427505  31.1829543  11.1164808
  77.2647333  30.2556205  12.1638274   2.2129221  12.3881328  55.6772470
   2.9450464  12.0552409  55.1582003   2.2912429  11.9377851  56.5182495
   4.1577622  43.4860086  60.1729727   4.0076402  42.5458670  60.0738239
   4.9495482  43.5470772  60.7073641  15.9786856  67.1387005  12.7359879
  16.5552890  66.3800955  12.6449859  15.4803932  67.1601772  11.9189966
  24.1056895  21.0390377  58.9945698  23.2244492  21.0138178  59.3674135
  24.4240928  20.1396227  59.0713930   3.3193251  21.5627718  67.9502010
   2.7964386  22.2892618  68.2893658   3.9381075  21.3644314  68.6530542
  49.9797344  21.7055368  18.1588686  50.4170799  21.5793705  17.3168206
  49.6036434  20.8495665  18.3640504  11.1228633  38.4870386   4.9734962
  10.8957648  39.3959999   5.1695853  10.9116554  38.0090404   5.7754570
   2.4652880  40.1983690  11.1021173   2.3513208  41.1254883  11.3111401
   3.2883164  40.1621389  10.6147325  25.7907224  52.5003290  66.0324144
  26.1908174  53.1322718  66.6297436  25.1686692  53.0162334  65.5194569
  56.0583830   8.0580163  56.4634705  55.8641863   7.4270970  55.7703209
  56.9808483   7.9092282  56.6712093   4.2437330  61.4440060  29.6212077
   3.7319458  61.9096231  28.9597678   4.9075848  62.0753431  29.8985934
  61.7423487   4.2454419  21.8000650  61.6173172   3.5908780  21.1129355
  62.6881218   4.2611375  21.9466710  56.9735050   7.6102078  59.5573616
  56.4248371   7.7171832  60.3343773  57.4277830   8.4479630  59.4677448
  23.5249019  55.7028675  40.2763844  23.8331819  54.8120642  40.1100588
  24.2626333  56.1352158  40.7065678  64.0982723  64.2488670   0.2180997
  64.8162079  64.7848749   0.5549939  63.3399057  64.5079136   0.7415565
  23.0131435  34.9220300   6.6286176  23.7589574  34.7474265   6.0545921
  22.3592782  34.2698836   6.3768280  78.9930582  67.3503876  12.7010489
  79.0823364  66.7751694  11.9411910  79.4773626  68.1405210  12.4615276
  59.0362167  25.0885034  57.6417112  59.1364193  24.4760752  58.3704901
  58.7008142  24.5526624  56.9229507  25.9922743  31.8603253  26.3374114
  26.9252682  31.6793537  26.2233758  25.5785847  31.4838386  25.5606556
  84.1896915  13.5803711  53.2713985  83.3430290  13.5069537  53.7118483
  84.7072315  14.1498590  53.8406658  77.0026493  14.7076833  52.7331209
  76.7507267  14.8701978  51.8240833  77.6938963  14.0480435  52.6758289
  67.4625063  68.5318708  52.3984337  66.8229198  69.2207336  52.2178173
  67.2950554  67.8681564  51.7293501   5.2346176  52.9175186  35.4612875
   6.0544848  53.0848646  35.9260917   5.2452594  51.9761562  35.2881980
  17.1460211   9.1447055  17.7636230  17.8491628   9.2138797  18.4094071
  17.5987625   9.0357405  16.9273305  48.7374830   4.9079987  52.7729082
  48.4893370   5.8321083  52.7989244  49.5719576   4.8971868  52.3041105
   9.7383046  59.0152025  38.2144046   8.9398795  59.5206022  38.3671021
  10.3596389  59.6505928  37.8587985  45.5816364  11.2543976  64.4237423
  46.0691452  10.4537630  64.2299557  45.4302692  11.2199640  65.3682709
  50.8434343  16.6106081  46.1136246  51.3042450  16.4427900  45.2916002
  50.2308178  17.3159122  45.9051132  65.9057617  60.0419998  14.2892206
  65.3299093  60.3310013  13.5813344  66.7033052  60.5588961  14.1753304
   5.8953768  63.4809399  17.2071922   6.4977872  63.5036945  17.9507077
   5.0350714  63.3342505  17.6003695  66.6244173  49.9097919  21.8570113
  66.2855291  49.0337849  22.0413876  67.5751305  49.8164606  21.9175529
  52.9263306  75.1347494  59.4668245  52.8865242  74.5971775  60.2578163
  53.1363773  74.5161963  58.7671804  66.7850161  11.2048090  58.1310844
  66.7803574  11.6579676  58.9742088  66.1190367  10.5232835  58.2217932
  47.5307131  64.5210695  64.5169497  47.5687361  64.7380161  65.4484653
  47.3619032  65.3573608  64.0829515  15.8750832  18.9977455   6.7943591
  16.1201763  19.9020886   6.5985882  16.2531221  18.4868360   6.0786152
  63.5813665   7.4156612  26.9647002  63.2974148   7.0046294  26.1482096
  64.3856430   6.9525170  27.1989369  50.3589678   7.7541649  44.5601130
  49.8784590   8.4986657  44.1980886  49.8732567   6.9862986  44.2589521
  79.4267702  42.1387815  28.1490993  79.1913605  42.9459476  28.6065888
  78.6739302  41.5619278  28.2783532  60.2715731  47.2998714  56.8518782
  61.1293268  47.3116302  57.2765636  59.7459030  47.9204988  57.3565769
  18.2147980   5.1954871  56.4874744  17.9259193   5.2115685  55.5750513
  17.6567090   4.5386815  56.9038582  82.3926735  43.3312511  55.9011030
  83.0989265  43.8224363  56.3208437  81.6812420  43.9651489  55.8101702
  71.8357038  10.3291249  51.9873190  71.7663670  10.8741009  52.7711725
  71.9876766  10.9511447  51.2758207   4.7235838  14.4440174  58.1112480
   3.8764992  14.7261751  58.4563065   5.3647423  14.9646068  58.5951185
  45.0676250   6.3705671  18.8193524  44.4294882   6.9412065  18.3911240
  45.4628086   5.8733326  18.1032372  33.3266044  65.4169798   1.5821809
  33.7011838  66.1283398   2.1016911  34.0783048  65.0205708   1.1416829
  20.6540608  69.9716949  61.5813398  21.0760140  70.5750751  60.9696865
  21.3359261  69.3364668  61.7999125  71.3369322  15.4131413  51.4574051
  71.5624428  15.1328218  50.5703926  71.6475773  16.3170493  51.5091896
  56.0762024  31.2363672  64.2043447  55.6828976  32.0519614  63.8939428
  56.7464924  31.0305190  63.5527515  41.5050745   3.6975777  60.3882742
  41.1477423   4.5026511  60.7629776  41.6579485   3.1292954  61.1432028
  48.9062119  12.4229193  52.2837496  49.2654800  12.3802710  53.1699467
  49.5554781  11.9763803  51.7403412  13.1139755  21.0221696  37.2436690
  12.7786565  21.8863559  37.0049715  12.4582839  20.6684589  37.8446603
  32.8117013   2.4220827   0.2818063  32.5815225   3.1894824  -0.2419752
  33.7334251   2.5520596   0.5048824  62.6601457   0.3590483  25.6428814
  61.8679166   0.2386088  26.1664248  63.1406164  -0.4627567  25.7429814
  10.6132734  45.4911947  34.9366379  10.9609413  46.3684797  34.7762275
   9.6729016  45.6243277  35.0558305  44.2611599  25.8935785  10.9118998
  44.4522095  26.3726616  10.1055431  44.3377590  26.5499854  11.6043580
  38.1660485   7.4686569   3.2024476  37.2188282   7.4699956   3.3402869
  38.5361481   7.4075699   4.0830880   8.7700856   2.6434919  64.6732759
   7.9350936   2.2201309  64.8727417   9.3341196   2.4216287  65.4141378
  13.8938046  23.4825230  30.5497313  14.7495413  23.0553722  30.5111408
  13.2696009  22.7876306  30.3406286   7.2703046  27.5680757  62.3062372
   6.5139169  28.1532812  62.3467875   7.8748941  27.9995918  61.7025042
  81.6621399  33.3622646  60.6515884  82.2285652  32.9642177  61.3126135
  82.0509815  33.1038523  59.8159647  40.8399343   5.6095898  48.9071035
  41.4423466   5.1043075  49.4530153  41.1550808   5.4736418  48.0135536
  11.3239884  -0.0597506  49.0376997  10.9340084   0.0303294  49.9072027
  10.5946302   0.0759766  48.4328461  11.5838099  45.1845074  21.7971253
  11.4773178  44.3359089  22.2269750  12.5268853  45.3469801  21.8181658
   8.7830776  43.9036512  12.8832209   8.7885571  42.9467440  12.9063547
   8.9527428  44.1660833  13.7879717  56.6840458  57.1778536  54.5704889
  57.5715828  57.4661350  54.3574142  56.8045378  56.3352156  55.0082970
   1.4798678  74.9359417  27.3099256   2.1897721  74.4653749  26.8730783
   0.7724774  74.9543619  26.6653395   7.0427364   1.2625031  52.5590277
   7.5888127   1.0528944  53.3167171   6.1928380   1.4946590  52.9332018
  27.4066091  15.3817463  19.9534059  26.9017124  15.8269155  20.6339478
  26.9997740  15.6598139  19.1327989  57.8732586   4.9865058  11.7898846
  58.3950424   5.1984781  11.0159087  58.0943108   5.6701386  12.4223506
  33.2406163  65.1064920  44.4023705  33.6230516  64.7895765  43.5841131
  32.3014069  65.1559877  44.2244148  37.9368138  23.0147433  27.5025010
  37.7966452  22.1341252  27.1545100  38.7379026  23.3167505  27.0743871
  64.6121979  47.9531002  61.8250036  65.5102873  48.1800699  62.0661354
  64.4728374  47.0871592  62.2083521  23.2698345  30.7953429  16.7896020
  24.2017865  30.8035684  16.5713632  23.2254171  30.3457665  17.6334858
  49.9119949  18.9124799  18.5066366  50.3754187  18.3023810  19.0804398
  49.0172243  18.9280689  18.8463116  70.4160976  47.3828697  68.9038563
  70.5582380  47.3154688  67.9596710  70.0654602  48.2644176  69.0309572
   2.1736149  39.9587464  40.5606031   1.2264045  39.8708177  40.6668711
   2.5198779  39.9130774  41.4518118  39.0084147  28.1350231  61.0631561
  39.3198586  28.9177918  60.6087303  39.8022461  27.6323175  61.2457895
  11.1955535  54.8737955   9.3342215  10.9828091  55.2882481  10.1704025
  10.9945333  53.9475489   9.4679952  59.7846365  54.6479940   2.8606367
  59.6825790  54.3124294   1.9700117  59.8503447  53.8640261   3.4059012
  13.9884543  41.9025421  56.4324713  13.7659395  41.9715309  55.5040503
  14.9346972  42.0436716  56.4631081  39.1040063  54.0136051  16.2689650
  39.2442989  54.7334766  16.8840516  38.1616116  54.0219021  16.1014712
  78.0155277  23.6160350  66.9601965  77.2266531  23.8610768  66.4766073
  78.0867863  22.6693034  66.8383121  24.2912936  52.5316429  31.7185473
  23.4810448  52.0828772  31.9600821  24.9831200  52.0173550  32.1346188
  78.0075407  37.9856062  62.8022861  78.1807375  38.7845421  63.3002234
  78.4813929  37.3013163  63.2749844  36.3262129  30.6833625  56.8367672
  35.9476829  30.1223850  56.1598253  35.9646273  30.3467083  57.6566172
  25.4996634  73.0903339  18.5964143  25.8083057  73.1585073  17.6929080
  26.0841417  73.6630344  19.0930331  68.0671930  46.8206549  32.2855377
  68.1567669  47.0770550  33.2033968  68.2046938  45.8733845  32.2869563
  76.1823559  68.4294748  52.9148006  75.5588293  68.3851910  53.6397028
  76.9779396  68.0226755  53.2580042   6.4569122  51.4897394  64.6967745
   6.3852662  50.6124163  64.3207455   5.6508094  51.9313955  64.4296169
   8.4754211  15.8089507  46.1430502   9.2850047  16.2811065  46.3376665
   8.6695158  15.3202593  45.3432131  47.1696806  78.9178324  44.8507452
  47.3168230  79.3860149  44.0289259  46.4898300  78.2768822  44.6428442
  64.1921663  48.4034443  54.1951895  63.2980394  48.4726954  54.5298052
  64.7464609  48.5246563  54.9660969  11.1593676  23.5037041  60.0033092
  11.9232702  23.8618040  59.5511484  11.4765513  22.6953244  60.4059887
   5.6165290  30.9025025  59.3541002   4.7128552  31.1132336  59.1191578
   5.9981275  30.5531240  58.5487747  24.5432472  24.1375828  54.0385628
  25.0189877  24.8501754  53.6118126  24.4712138  23.4608459  53.3654547
  64.6357870   8.1778431   9.3193638  64.3776941   9.0941477   9.2193353
  64.4158602   7.9646951  10.2262437   0.4391463  25.1882434  57.2573900
   0.7249899  26.0340786  56.9123030   1.0516462  25.0003552  57.9685688
  14.2437041  72.3831606  14.8258781  14.6164441  72.1893358  13.9658034
  14.8201537  71.9333601  15.4436278  71.1728287  31.8435144  13.1590807
  71.3193035  31.1820149  12.4829197  71.7169905  32.5841260  12.8914726
  77.4688482  30.9620953  18.5739303  78.1679869  30.3749704  18.2863152
  77.5912380  31.7544603  18.0510426   7.3484391  27.8519583  41.1631012
   7.8933883  27.2324777  41.6483927   7.8807276  28.0974984  40.4063940
  15.0087142  17.4113917  39.1371131  14.2199516  17.1192062  38.6802602
  15.7243609  16.9534302  38.6962581  76.9890785  26.0485673   1.7398649
  76.9413137  25.8421016   0.8064186  76.2627029  25.5624795   2.1301588
  60.9089375   5.0440294  56.9365311  61.5502834   5.4297090  57.5333214
  60.3888226   4.4601783  57.4886465  76.8618059  21.6127324  31.0265636
  75.9274244  21.5075684  31.2057257  77.2324419  21.9133019  31.8563342
  47.8812885  32.5313306   5.4608023  48.0632544  32.0680118   6.2783939
  48.5932255  33.1662583   5.3817517  62.1096468  63.8733578  48.2067442
  61.6673136  63.4211016  48.9250994  61.4062834  64.1046000  47.6000786
  54.8885918  56.4448452  10.5909836  55.3048134  56.6298866   9.7491091
  55.3402805  57.0161009  11.2121761  82.9284096  58.6313820  38.4790564
  83.4584236  57.9740763  38.0282140  82.5440598  59.1533422  37.7747369
  61.2515020  36.1309814   3.8148874  60.4593849  36.2879252   3.3009297
  61.9181013  35.9074783   3.1653342  81.4329052  29.1047430  26.2747478
  80.8796501  28.4433532  26.6903257  82.2700691  28.6625504  26.1338377
  26.7031026  64.1664171  17.4957430  26.6848421  63.8359594  18.3939052
  27.6202059  64.3939543  17.3428500  36.1714339  59.5580578  13.2575619
  35.7192731  59.2326880  12.4791539  35.4688072  59.8517656  13.8374603
  73.7310123  58.6934948  40.8761930  73.9915085  59.5685339  41.1637306
  73.6027050  58.2029152  41.6880417   1.3026641  50.8581924  55.7617378
   1.9012307  51.1189079  56.4617252   1.6634618  51.2652111  54.9740934
   7.6801741  44.1144657  25.3715491   7.9232097  44.5637369  26.1810660
   8.3281803  44.4077778  24.7310114  33.7672830  69.6628857   6.7958695
  34.5114994  70.2569151   6.6983747  33.2134795  69.8462152   6.0369742
  33.2004428  29.0510726  52.6157713  33.5162735  29.7634578  52.0599031
  32.4022007  28.7464166  52.1842289  10.4350805  40.8990526  60.0187445
  10.8268225  41.0176563  60.8840227  11.1491370  41.0758066  59.4062805
  64.0830946  41.0047388  44.3970823  63.5206461  41.6921139  44.0401506
  63.5730696  40.2011299  44.2955017  74.1719055  40.1205826  52.8075504
  74.6020985  40.2240372  53.6563540  73.3439255  39.6851230  53.0101633
   5.8340770  30.2124643  62.0573282   5.0240445  30.4211855  62.5226402
   5.6318438  30.3808832  61.1370230  22.8824353  31.1174273  43.2943058
  23.6776304  31.1197543  42.7614927  23.0099702  31.8322062  43.9180517
  53.4851408  22.1691394  40.2568102  53.7390137  23.0837631  40.3802729
  53.4951353  21.7966819  41.1385155  27.7464485  20.2293062  65.9323835
  28.3389783  20.8797359  66.3093185  27.4245858  20.6362081  65.1279783
  79.8565340  77.6673937   6.4678276  79.2380285  77.4295044   7.1585441
  79.3805885  77.5042343   5.6535268  16.1900747  50.6072998  59.0671539
  16.6579223  50.3208828  58.2827330  16.2818038  49.8780870  59.6803904
   9.3203121  34.6227145  39.0987778   9.4931781  34.3313432  38.2035398
   9.7081161  35.4965997  39.1453290  75.4679203  10.9780133  25.3818846
  76.1070681  10.3933334  24.9746132  75.8958721  11.8342030  25.3872561
  36.3350797  28.0224752  61.3353872  37.2788572  28.1039572  61.1980009
  36.0847521  28.8385582  61.7684889  18.3118689  55.3087711  28.3262897
  17.8293443  54.5587873  27.9785514  19.2329431  55.0768900  28.2076001
   2.1844889   8.1891435  65.9544325   3.0958554   7.9741889  66.1530209
   1.9240090   8.7934840  66.6495275  11.3562512  20.8394599  56.1944675
  11.4603853  20.3052092  56.9818449  11.0211802  20.2317023  55.5352354
  16.0184264  27.0935488  53.8911247  15.8279431  26.9337583  54.8154688
  15.8172596  26.2638760  53.4582186  14.0404284  64.0956831  65.4785204
  14.1561365  65.0142145  65.7217121  13.6435163  64.1265583  64.6080399
  33.8372278  37.7553892  41.5125704  34.0391898  37.5187635  42.4178076
  33.6339617  36.9224691  41.0869408   2.6754904  53.6435509  26.8553519
   2.2424223  54.4891214  26.7383146   2.0477858  53.1198549  27.3533106
  63.6133051  27.8536630  52.3552227  64.1003895  27.1231318  51.9740343
  63.1332254  27.4656630  53.0868006  26.8740010  73.7796354   7.1696055
  27.1229482  74.5482492   6.6562945  27.6256371  73.1911087   7.0995313
   5.6960952  37.4671626  41.6286707   5.4700559  36.8003845  42.2771645
   6.0286015  38.2009888  42.1455574  52.1119404   7.5881308  63.6087322
  52.9393768   7.1457905  63.7982321  51.8321705   7.2233975  62.7691269
  55.8372402  23.8113952  52.0590448  56.6891623  23.4908485  51.7628813
  55.7435894  24.6661925  51.6385841  65.2283096  29.3548036  67.7430964
  65.8388710  30.0786877  67.8825045  64.4186544  29.7764516  67.4551582
  19.5391190  26.1117029  55.5767632  19.6005785  26.9875836  55.9579277
  19.6843243  26.2472510  54.6403980  66.2287807  75.6405783   8.8369906
  66.5242720  76.4419222   8.4048223  66.5766811  74.9333048   8.2938904
  14.5769572  19.8662770  25.0038981  13.7571895  19.9600792  25.4890943
  14.4147766  20.3102446  24.1715407   1.7218028  73.9228058  57.0423269
   1.1608858  74.6597242  56.8003321   2.5802159  74.3164206  57.1986198
  71.4904594  59.4839907  66.5508270  72.3144150  59.6139574  66.0813236
  71.7525148  59.3477488  67.4613190  52.8369999  75.9556007  23.4468389
  53.1636524  75.2618980  24.0198255  53.5130596  76.6323805  23.4806776
  30.9649467  41.5614128  27.3192382  30.1157594  41.8300772  27.6698542
  31.6041303  41.9437981  27.9204488  58.6152601  59.3337679  42.6394176
  58.0031872  58.7439013  42.1993542  59.3659306  59.3849373  42.0477152
  12.2186577  58.0031919  34.6987557  12.7468741  57.4622488  35.2857828
  11.3319516  57.9477596  35.0550008  74.4857693  26.0288095  41.8805933
  75.2616119  26.5893507  41.8901205  74.6984911  25.3360105  41.2552834
  41.8040371  29.3732953  54.1010809  42.7018547  29.6315193  54.3095970
  41.8972397  28.7252307  53.4028292   4.2452329  79.2417908  55.1586533
   4.5519289  78.3875036  55.4625702   4.0624458  79.7301054  55.9613800
   0.0689081  50.1407146  59.4386053   0.1879267  49.2775583  59.8348808
   0.0616125  50.7458067  60.1802540  24.3184423  36.2077761  53.1478739
  24.6571302  36.6549706  53.9234638  24.4096398  35.2764916  53.3494234
  59.6612787  55.7165623  44.5007801  58.7906408  56.0658455  44.3104744
  59.5870256  55.3566504  45.3846216  34.6799755   4.9979651  23.8121271
  34.7451067   4.3932858  23.0729699  34.8569226   5.8590776  23.4334350
  77.9311085  35.7262754  42.5552893  76.9911337  35.6369591  42.7124691
  77.9928017  36.3004923  41.7919397  31.4109373  54.4100237  28.3984208
  32.0990586  53.9580917  28.8867640  31.4488244  55.3136635  28.7118363
  63.2090950  63.4542179   4.6063933  62.5692034  63.9840555   5.0818348
  64.0142107  63.5350037   5.1177573  66.0447931  13.9358640  20.5912018
  65.3541994  13.2733965  20.5699611  66.8582439  13.4327483  20.6285930
  12.9796767  44.0366030  61.3450813  12.9828417  43.1461620  61.6962767
  12.1656799  44.4199848  61.6716671  32.0296431   7.2480935  44.8220301
  32.9800296   7.2140026  44.7132492  31.7698979   8.0686277  44.4031143
  53.4647608   4.7570485   4.9004811  54.2197609   4.9687019   4.3514755
  53.8346863   4.2783171   5.6422383   8.7458223  74.7837162  43.2289839
   9.4130492  75.0989342  43.8386393   9.0097630  75.1391220  42.3803043
   2.7752993  39.5661569  31.5113807   2.6997989  38.6359143  31.7239404
   3.5514259  39.6222472  30.9539652   9.7693795  19.3808985  46.8563795
  10.3931618  18.9042068  46.3087559   9.7731614  20.2710557  46.5044737
  32.0100307  69.5023012  11.2745786  32.2836852  68.5944796  11.4057636
  32.0931196  69.6436071  10.3315198  58.2008743  20.3312850  19.7223890
  57.6610708  21.0181832  19.3312168  57.5949144  19.6050322  19.8693705
  41.3141584  10.7257318  58.7804985  42.2430229  10.8479762  58.5843039
  41.0632801   9.9504703  58.2782412  83.5348320  72.0667553  63.4190559
  83.0253220  72.4460125  64.1351557  84.0181541  71.3466644  63.8241625
  11.1109304  41.6928673  38.1201077  10.1991796  41.4640713  37.9395676
  11.5175271  41.7565489  37.2558975  69.4913673  24.3041253  37.0922732
  69.0018702  25.1237822  37.0230961  70.4096174  24.5740128  37.1066928
  36.7843366   9.9396157  30.4577684  36.7880940  10.1297188  29.5196414
  37.7047443   9.9891835  30.7158804  47.2930765  53.8681126   0.8201536
  47.7799988  53.2169056   1.3251989  46.4988661  54.0229082   1.3315229
  74.0535688  22.6811600  41.3696623  73.5609436  22.8264117  40.5619192
  74.9663639  22.8314996  41.1238337  23.6533117  20.0135374  45.0334215
  22.7077174  20.1607108  45.0540209  23.9030981  20.1877046  44.1259480
   5.8063525   2.1018270  39.3858647   5.5118769   2.9520273  39.0592551
   5.0237900   1.5512240  39.3600965  60.8881760  70.9790325  24.0106273
  61.6396093  71.4059973  24.4220662  60.1853943  71.6266346  24.0649033
  42.4820137  46.9095230  18.2063019  42.7261066  46.4143181  18.9882350
  41.9775534  46.2904835  17.6785326  59.5507431  26.8008041  66.5224409
  58.5964012  26.7547846  66.4646053  59.8382282  25.8894300  66.4678240
  26.0727763  12.2470009  29.1913080  26.8174982  12.8140163  28.9910245
  25.7185864  12.0055604  28.3354521  32.0338559  76.0481691   0.7399912
  32.8749633  76.1878347   0.3049487  31.3839984  76.3627577   0.1115382
  72.0400238  43.0759096  64.7508526  71.5687752  43.5120964  65.4607058
  71.3840866  42.5147247  64.3372631  80.1544857  37.8206182  59.6354914
  79.2047691  37.8303719  59.5164251  80.2995300  37.2045660  60.3535938
  56.1887646  71.8396473  56.5826178  55.5464554  71.3556623  56.0635519
  56.9344044  71.9554090  55.9936762  65.4625702  18.9127719  12.2857845
  65.6453705  19.6068430  11.6524732  65.7335138  18.1080008  11.8440115
  13.7832010  43.4309006  51.7769384  14.0102971  44.2190838  51.2835598
  13.0142570  43.6819458  52.2887325  76.1550856  15.3306520  34.4466043
  76.8130064  14.7959256  34.8909426  75.4352283  14.7254848  34.2682528
   3.8224050  37.5310445  62.8487587   3.8548511  36.5935493  63.0392408
   4.7145179  37.7521443  62.5813961  24.4033384  39.9765038  31.2420559
  25.0550556  39.3291521  31.5111828  24.2054582  39.7533131  30.3325152
  57.2517729  78.6931086   4.1834629  57.3833513  77.9487276   3.5962513
  58.0349970  78.7055683   4.7335878   9.8624891  20.5749154   5.8222032
   9.3608141  20.9931993   6.5219116  10.4938042  20.0193024   6.2793338
  76.8777370  57.4243355  28.8982224  76.6033411  57.3717022  27.9827070
  77.7762890  57.0944405  28.8982964  78.1883478  40.8937883  59.8145866
  78.2325602  41.6802549  59.2707586  79.0478468  40.8431721  60.2328348
  13.7678707  66.2350225   3.2861272  14.6722221  66.3626385   2.9996091
  13.7936509  66.3794947   4.2320105  71.9467974  22.8047395  39.3962502
  72.1997118  22.3798966  38.5766315  71.4836025  23.5964632  39.1226482
  78.1812191  44.9514294  46.3974094  78.7313080  45.6475735  46.7565966
  77.3356152  45.3714657  46.2400770  16.9758463  67.7568865  57.6028109
  16.8945611  66.9654560  58.1350327  17.4516761  68.3725691  58.1602621
  24.5094872  28.4235215  50.7155371  23.9411616  28.4426332  49.9455547
  24.4680405  27.5174475  51.0213900  31.4659047  51.8263245  13.7430680
  32.2806692  51.3353968  13.6363935  31.2063885  51.6654873  14.6502697
  48.7400341  77.8087139   4.0674740  47.9162741  78.2789040   4.1962278
  48.5032797  77.0539236   3.5285199  11.6927385  38.2248688  48.4116936
  10.9346032  38.7778997  48.2229567  11.4881384  37.8169966  49.2531300
  34.6971250  57.1498680   7.4607027  35.3437018  56.8931389   8.1181681
  34.8823667  56.5860701   6.7096716  58.2153797  71.7449427  24.2223287
  58.2245970  70.9071398  23.7594700  58.1099844  72.3990822  23.5315156
  48.9370775  71.8957996   7.8481156  48.1465673  71.4638805   8.1718045
  49.5274401  71.9106483   8.6014313  46.3672686  37.9586029  10.1231587
  46.1039352  38.1161880  11.0298312  46.6757917  37.0525050  10.1173913
  14.2248201  20.3302073  28.7345409  14.0865576  19.4116926  28.9657211
  13.3890235  20.6120348  28.3627224   2.7175120  51.6018486  53.3672905
   3.4363079  52.2126389  53.2044983   2.1179561  51.7364597  52.6333666
  73.4453726  30.8533192  48.7962627  73.8580465  31.5028477  49.3655109
  72.5060034  30.9823442  48.9272928  81.0902119  77.4253750  39.4537926
  80.5976963  78.0354881  38.9047694  82.0078945  77.6415157  39.2883372
  14.0737212   1.7686965  59.5147371  14.2629695   2.0987667  60.3930712
  13.5504150   0.9809472  59.6624994  81.9488239  31.8300939  38.7542248
  81.6899586  32.7448297  38.6425114  82.8142357  31.8740296  39.1608858
  14.4359708  41.6089392  64.9118233  13.9565957  42.4204969  64.7450733
  15.0852203  41.5656996  64.2097950   1.2149405  51.0426521  68.1717825
   1.5299734  50.4835463  68.8819838   1.5582728  51.9114161  68.3806086
  27.8613734  64.6956253  35.5910277  27.3072958  65.4309797  35.3293395
  27.3967886  64.2953491  36.3259912  35.1534295  45.8798695   9.1476709
  34.5694470  45.2696323   9.5980150  35.9619403  45.3846836   9.0160245
  74.7695971  32.1687651  68.4754753  75.4487562  32.2867155  67.8113508
  75.1848602  32.4412346  69.2937374  74.8210239  33.2615352  49.8974848
  74.2992926  33.6018586  50.6242609  75.6514931  33.0049253  50.2983665
   6.0805219  63.9305115   1.0481673   5.9086841  63.3624315   0.2971743
   5.3633523  63.7483025   1.6553730  82.3750496  63.3599329  29.5169806
  81.7937565  62.6695347  29.8358560  82.4893379  63.1660604  28.5866141
   9.4611669  33.4714150  36.4077067  10.1709175  33.9874935  36.0254097
   8.6647499  33.8376975  36.0232711  13.6618650  31.2930679  42.2511005
  13.6403954  32.1279383  42.7188158  14.4192338  31.3634801  41.6700077
  19.6113491  34.2391467  32.8144550  19.6274710  33.5909176  33.5185647
  20.2714205  34.8844051  33.0677843  24.3655467  66.0483122  18.1560826
  25.0120115  65.3467989  18.0773914  23.8505244  65.9907913  17.3512995
  78.1039047   0.4938869   2.8718144  77.6721907  -0.2438510   3.3026263
  77.8814840   0.3942553   1.9461599   8.1309825  19.0940976  27.5381231
   8.1745046  19.2814803  28.4757924   9.0081060  19.2962480  27.2125125
  59.2013884  33.7139797  63.3924246  58.6577225  34.4839144  63.5593462
  59.7404003  33.9598179  62.6405859  15.4658067  28.5211110  34.9357319
  14.8969519  28.5576057  34.1667700  16.3534415  28.5279679  34.5775580
  71.3742399  40.2787018  55.3620911  72.3006153  40.0477839  55.2932501
  71.0413885  40.2028275  54.4678402  29.2547989  62.2476673  15.1430082
  29.1179729  63.0868053  15.5827343  29.0307260  62.4173975  14.2280138
   5.9349716  16.9101107  68.1804895   6.5918064  17.4696958  68.5948133
   6.1552978  16.9313121  67.2492313  34.8798943  31.5930295  37.9326534
  35.5504584  31.4465880  38.5998321  35.3436756  32.0310903  37.2190404
   2.7895439  40.1491404  43.3287048   2.8477934  41.1044741  43.3418560
   2.2196960  39.9337411  44.0670204  31.8721032  58.7174702  12.1981621
  31.6639590  58.8701439  11.2764251  31.8238235  57.7669668  12.3003531
  65.6750441  42.6966810  17.3526001  66.1667728  42.3406124  18.0926323
  65.5625534  43.6235523  17.5635207  76.4006472  32.5674248  31.8779540
  76.7562962  31.6867280  31.9967818  76.5902901  32.7810621  30.9643745
  14.5349181  47.3133802  58.9913893  14.2490625  47.5053120  58.0982590
  13.9450276  47.8234053  59.5464849   6.4780653  13.3813703   2.9478598
   6.3644320  13.4535885   3.8955432   7.4245286  13.3082676   2.8250003
  23.2365823  12.0205843  27.5081301  23.2872152  12.5334597  28.3147430
  22.3832488  11.5891349  27.5517988  23.3704662  73.7716627  52.8400850
  23.2254958  73.2984400  52.0207691  22.5464821  74.2318058  52.9999352
  20.3697896  43.7191534  16.4489508  19.5432782  44.1996717  16.4018881
  20.5279446  43.6058760  17.3861730  15.1747274  49.7788191   8.8046533
  14.6806669  50.5973387   8.7581211  14.5781732  49.1185904   8.4518766
  14.1543782  22.4584126  60.1892567  13.8640106  22.6665688  59.3012285
  14.4143403  21.5381718  60.1467133   6.0166198  75.7652044  53.5611200
   5.7298487  74.8851156  53.3173227   5.5912852  76.3404560  52.9251909
  29.3132114  72.7553463   6.2816787  29.5395398  73.5007906   5.7255083
  29.2350650  72.0189857   5.6751359  12.0406973  26.0716987  39.5810652
  11.4380133  25.3367591  39.4676399  11.5613914  26.8286848  39.2442107
  12.4208677  75.2521849  39.8551536  12.6026428  74.3572617  40.1420403
  12.8567171  75.3246880  39.0060306   0.6719522  45.2117300  41.8130112
   0.6448238  45.0893784  42.7619743  -0.0395488  44.6645117  41.4805269
  30.4340029  58.8810539  25.0566292  31.3433123  58.5969782  25.1498294
  30.4376793  59.4464636  24.2842770   8.8653243  30.9824896  47.9675436
   8.0948913  30.5796862  47.5670242   9.5423460  30.9273124  47.2931337
  71.0482931  67.1459484  36.5876555  70.9733629  67.6496506  37.3981524
  71.4356756  66.3134336  36.8579888  24.2503452  23.9189529  17.9034138
  23.9785361  23.5763025  17.0519781  25.1420879  24.2360759  17.7603781
  21.2826800  59.4160080  63.3988714  21.7215848  59.3363762  64.2457819
  21.1745954  58.5133410  63.0993080  57.8907776  56.6347122  33.1626606
  57.2165155  57.3047781  33.0503726  58.7017488  57.1287727  33.2829213
  15.6425917  51.8662834  22.6414061  14.9170446  52.1101046  23.2161808
  15.2242684  51.6383171  21.8111825  54.3502426  12.6718450  15.5518842
  53.8022518  12.6866150  14.7672033  55.2318096  12.8635418  15.2320123
   6.3482738  59.5802689  57.6091862   6.8663168  59.0063429  57.0448542
   5.5494064  59.0838432  57.7869606  75.8173084  58.4201288  60.0563145
  75.0549746  58.4937429  60.6304789  76.4087963  57.8261948  60.5185032
  27.7609038  69.0576363  48.0920076  27.8710103  68.2709932  48.6261463
  27.0419717  68.8444853  47.4970818   3.4640908  28.3098745  11.7981565
   3.1736073  27.4548388  11.4807236   3.7977818  28.1377578  12.6786435
  65.4108191  14.5510972  11.1446452  65.6237507  13.7917197  10.6022060
  66.2581968  14.9512422  11.3397479  14.4112086  29.8626995  44.5490122
  13.8244843  30.5108094  44.9388123  14.1363740  29.8107266  43.6335945
   7.3613608  66.7069769  51.7735720   7.8539461  65.9658289  51.4210272
   7.9567039  67.4518156  51.6898394  27.9769564  71.7927694  48.6051798
  28.4221673  71.4339495  49.3728161  28.3112144  71.2768221  47.8714895
  17.6634800  61.7969131  53.2920933  16.8829155  62.1192884  52.8415108
  17.4627233  60.8832645  53.4950018   3.4117341  39.2276263  36.9341540
   3.6189413  40.1602268  36.8745446   3.8941100  38.9237690  37.7030587
  23.0072236  52.2927189  67.7073669  23.6215019  52.6649332  68.3400965
  22.8739405  52.9893732  67.0646048  13.1141806  72.9795074   3.5068834
  12.8005636  73.5611343   4.1994026  14.0675902  73.0015564   3.5890758
  22.7822590  32.1187425  26.6879582  22.7119231  32.1776199  25.7351637
  22.0957613  32.7000189  27.0151758   6.8059218  68.8828993  23.5867524
   7.7227259  68.8799047  23.8618755   6.5223241  67.9743671  23.6886024
  75.5298805  63.9022064  31.4739990  75.0250673  64.5950031  31.8999481
  74.9055672  63.1853533  31.3618112  65.5633640  24.2864609  19.2456472
  65.0616121  24.4938898  20.0339675  65.0367308  24.6371102  18.5273635
   2.3713568  26.1875176  46.6097450   2.8156143  26.3852072  47.4342346
   2.5496280  25.2593613  46.4581680  38.9916635  59.1222000  54.5564842
  39.1556191  59.3089628  53.6321068  38.0376196  59.0987968  54.6305513
  65.3516436  65.3562450  48.7552595  65.9723091  64.7313929  48.3803463
  65.1832581  65.0263166  49.6378803   6.7629677  35.0343323  26.9248676
   6.5901262  35.7343102  26.2952733   7.5964624  34.6581745  26.6419816
  40.7090139  14.0141392   4.0674019  40.1146507  14.1836441   4.7983122
  41.2277222  13.2610106   4.3501982  70.8882380  42.1811914  57.5842714
  71.1061668  41.4093351  57.0618010  70.6641817  41.8312550  58.4465790
  69.5358324  14.2288017  29.7717929  69.2690992  13.3191407  29.6391153
  69.6510410  14.5760596  28.8872766  32.8198671  29.3960214   4.0470460
  33.0542850  28.8064265   3.3303460  33.4606814  30.1050305   3.9932582
  70.2393675  62.5709057  66.1751890  70.9592867  63.0655813  65.7837296
  70.0516272  61.8788767  65.5410910   5.4446387  50.0827312  35.9006071
   6.0029447  49.9359512  35.1370764   4.8928738  49.3019724  35.9475064
  22.9856324  48.8851357  65.4177999  22.5799346  48.9101076  66.2844133
  22.3283362  49.2647076  64.8346090  78.6633539  60.0860071  24.3428588
  78.4364986  60.4414225  25.2021909  79.1457939  60.7913971  23.9116836
  74.1435862  53.8829041  41.8872833  74.7019958  53.8372135  41.1111879
  74.3056202  53.0595303  42.3477459  23.1367016  73.7306499  58.4718609
  22.8897834  73.8737297  57.5581884  24.0921688  73.7881899  58.4735775
  44.0840673  72.5601006   2.4618880  44.3871975  73.4314060   2.7171746
  43.7773085  72.1646357   3.2778177  12.5868607  39.3867731  58.7545347
  13.4867954  39.6943903  58.6462784  12.6291394  38.4500766  58.5620737
  46.8713856  75.3161335  38.0361056  46.4100266  75.1588964  37.2122979
  46.3806772  76.0237169  38.4541535  23.9347577  31.4884615  31.5401864
  23.6829472  32.0837021  30.8341336  23.3688569  30.7253480  31.4233732
  66.9995165   4.8416913  38.6060119  66.6604805   5.5857128  38.1082964
  66.2955570   4.6206841  39.2157888  -0.0820988  52.9672956  34.4334197
   0.1037384  53.0705881  33.5001302   0.7730129  52.8037119  34.8312330
   5.6647778  49.5231104   9.6922463   5.7169014  50.4351091   9.9782038
   5.8117914  49.0134859  10.4890537  13.1570721  22.1201730   5.4981130
  13.6858559  22.8923345   5.2971524  12.3751199  22.4699235   5.9252656
  41.1158609  63.3671665  21.0632944  40.5531073  63.2007694  20.3070831
  40.8092546  64.2049122  21.4102936  17.5317991  33.5625625  65.5566883
  18.4855676  33.6184931  65.4981327  17.3269749  33.8779402  66.4369249
  25.3491092  46.2268209  33.7591457  24.5430899  46.6709375  34.0224457
  25.2553630  45.3377199  34.1011119   2.0905113  36.9816375  55.2145910
   1.8321759  36.1867499  55.6811190   1.3237858  37.5519514  55.2703285
  75.2488565   4.9244666   4.2236608  74.8814392   5.4135263   3.4874159
  75.8811760   4.3278071   3.8231599  18.8194048   8.5017681  15.5575871
  19.7142541   8.7485027  15.3239262  18.8804829   7.5767100  15.7958496
   6.3548952  66.1270857  61.1180449   6.2676710  66.1444235  60.1649857
   5.9067458  66.9194174  61.4140272   5.7434028  66.3293552  65.5062866
   4.9301404  66.3947868  65.0057316   6.4267343  66.2384367  64.8421907
   4.2120406  44.6372890  45.0868130   4.6679670  44.7143078  45.9249258
   3.9294797  45.5292940  44.8850107   7.9973996  11.2057090  53.7969112
   8.0836725  11.1071587  54.7451067   7.4648869  11.9932580  53.6854267
  48.3312035  60.6986141  58.9360619  49.2232895  60.4975557  58.6532450
  48.4177399  61.5027761  59.4479847  22.9007030  53.3631849  58.8698673
  22.7224874  52.4299240  58.7537003  23.6588907  53.3914137  59.4534636
   6.2088406  71.2201071  66.1399317   6.4942431  72.1169043  66.3146734
   6.9615555  70.8074379  65.7164288  66.9252110  66.9475031  15.0503719
  66.6453552  66.2998533  14.4034863  66.1110115  67.3450899  15.3589630
  14.9176419  34.8668671  65.9955645  14.9470770  35.2653861  66.8653631
  15.7864451  34.4824767  65.8787012  25.5262947  67.4773836  32.0261669
  25.2332258  66.5757418  31.8942976  26.4144063  67.4951363  31.6695523
   6.7978317  56.7188501  48.5484457   6.4270705  55.8476257  48.4079456
   7.7380371  56.6041613  48.4102726  23.5114312  60.0820589  53.2121325
  23.7954760  59.7294807  52.3687840  22.7823281  60.6631756  52.9954720
  43.5196161  65.3655005   9.3874013  43.9809418  66.1335135   9.7244012
  42.6172400  65.6615257   9.2677492  17.0418620  41.5507936  38.2447076
  17.3238003  41.7073298  37.3434639  17.6120019  42.1082306  38.7742710
  59.2110348  26.4947701  24.3174338  59.7803211  25.7252669  24.3205023
  59.8096943  27.2352076  24.2194986  10.1291502  42.8052855  57.3445225
  10.8260584  42.9004765  57.9937410   9.8739535  41.8844223  57.4003506
   3.8765529  37.4684000  20.4887152   3.1718615  38.1117392  20.5645895
   4.5604539  37.9195356  19.9937534  14.4211006  39.5552039  48.5034132
  13.6249924  39.1541457  48.8521194  14.6359122  39.0301180  47.7324581
  32.5953650  15.2358449  48.4444237  32.7744913  16.0275507  48.9517164
  32.8363085  14.5171881  49.0289831   3.1895861  26.1157179   6.6894716
   3.2396892  25.8940363   7.6192987   4.0895471  26.0318184   6.3744122
  35.0851011  42.6441288  13.3540535  34.1958928  42.8851700  13.6137426
  35.4095554  42.1093321  14.0785897  17.4234390  25.3182292  60.8700323
  18.3550334  25.4327154  61.0578012  16.9896948  25.9969187  61.3872147
  28.1610465  67.9363012  31.2674260  28.7608242  68.6207104  31.5642166
  28.4736013  67.7069330  30.3922510  17.8625250  50.4094553  42.2384453
  18.7605345  50.7361460  42.1829271  17.4873817  50.5924988  41.3770533
   2.5151148  37.1160507  42.2671700   3.0537575  37.9004574  42.3711061
   3.0771333  36.3989568  42.5606728  84.1352940  48.9323950  33.1431437
  84.6473885  49.1058254  32.3532605  83.3285236  49.4326258  33.0201817
   8.0968630  66.4363718  63.8449669   8.0265772  66.8216753  62.9715633
   8.8407791  65.8371925  63.7832642  24.8253131  50.7394028  61.5461683
  23.8719726  50.8095407  61.5956926  25.1121879  50.7252550  62.4592590
  83.8954926  38.2187724  52.5441694  84.6876812  38.7210035  52.7350330
  84.2140102  37.3430967  52.3251581  29.5659685  73.1590462  55.3974581
  29.4797802  73.8353634  54.7255945  29.4688320  72.3344851  54.9211264
  18.6995137  57.4680281  14.4099498  18.6394012  58.1682873  13.7601352
  18.0374074  57.6909828  15.0642717   4.3758544  53.8429689  14.7877419
   3.4679279  53.6843920  14.5293736   4.7939155  52.9836035  14.7334278
  20.7457113  19.7672939  40.0698090  20.8734560  20.7122040  39.9857974
  19.8706305  19.6113908  39.7146177   0.2449832   4.0802768  28.0916691
   0.5071282   3.8374880  27.2036576  -0.5940811   4.5271820  27.9799604
   6.6140902   7.1801281  12.2569323   6.4397460   7.7215159  11.4870393
   6.8164557   7.8080672  12.9504538  79.7042322  49.9855995  59.5362663
  78.8789082  50.2951622  59.1631126  79.4487953  49.5327997  60.3399801
   4.6421024  72.9907227  46.4638090   5.4059994  73.1300116  45.9040833
   4.0194765  73.6647892  46.1914062   8.2508367  74.7586107  47.5632000
   7.5018138  74.7801113  48.1587934   8.3916372  75.6742382  47.3222971
  52.4800539   1.5386984   0.4639303  51.7783499   2.1771574   0.3366010
  52.3123884   0.8641018  -0.1941273  51.4382601  70.2896547  61.7654610
  50.4815531  70.2596855  61.7725086  51.7065907  69.4723940  62.1853590
  24.5861459  13.6077309   6.1799669  23.7179804  13.2990623   6.4392871
  25.1823330  13.2029212   6.8099821  79.3815947  44.2583799  55.4837990
  79.1765928  44.9871159  54.8980093  79.1278982  44.5705938  56.3523579
   7.5811827  68.0262756  15.7292819   7.1525836  67.6390934  16.4925826
   8.0277401  68.8003254  16.0723054  37.8298736   5.1512271  35.6433082
  37.4449825   5.0430077  34.7736096  38.2647443   6.0032272  35.6084466
   4.3511117  31.8165517   5.3145742   4.4615158  31.6493344   4.3785822
   4.3454555  32.7708864   5.3883523  10.1360142  45.3228951  24.4019699
  10.9661913  45.0074959  24.7591305  10.1708794  45.0907278  23.4740067
  22.5044823  58.5609436  15.8365715  23.1853867  58.9996099  15.3264987
  22.7646446  58.6943150  16.7480314  18.1174350  28.6291385  34.6254182
  18.4729683  28.6772776  35.5128360  18.7653208  28.1232619  34.1349459
  18.9670122  34.5704961  39.5678592  19.4137418  34.3922877  38.7402678
  19.6590841  34.5274734  40.2277231  81.7592716  34.4991732  37.8824544
  81.1982822  35.0499845  37.3364449  82.1558475  35.1062465  38.5072899
  29.1889000  57.7294445  13.8902831  29.7530794  57.5520754  13.1376398
  29.1385722  56.8936586  14.3541324  67.8520060  27.0254111  16.7312849
  68.4248304  27.7916336  16.7630982  66.9778681  27.3858833  16.5823662
  34.3227363  41.0340548  19.1529357  35.2319884  41.2849140  18.9899528
  34.3831110  40.1821756  19.5852387  17.5471377  22.7244353  49.8400450
  16.7583108  22.4803281  50.3241873  18.1483960  21.9923449  49.9770260
  11.8734527  52.1737289  64.3518400  12.1936619  53.0554628  64.5422220
  10.9201431  52.2599411  64.3517399  30.2244353   1.9874111  22.7976441
  30.8890796   1.3218620  22.9751992  29.5541406   1.5276363  22.2921324
  22.5651884  27.3265839  56.9232559  22.0915103  27.2746539  56.0930967
  23.2913899  26.7110133  56.8235683  23.6770439  63.3608437  53.5623169
  23.7063861  64.3164587  53.5157394  24.2521739  63.0688047  52.8550863
  11.9025171  56.6500187  67.4679232  12.7423501  57.1064281  67.5189638
  11.2508750  57.3504114  67.4355268  62.2037983   7.6129246   4.6674860
  63.1064653   7.8990108   4.5275629  61.7650795   8.3778906   5.0397533
  80.3900337  22.3423171  51.0445881  80.3111935  21.4893436  51.4717293
  80.8776760  22.8789425  51.6694641  10.2106428  75.5364132  41.0827494
  10.9916389  75.3570366  40.5592012   9.5820415  75.8991766  40.4586554
  74.4778299  33.8513374  35.4869127  74.5191193  34.0033960  36.4310551
  73.8222313  33.1615543  35.3838539  12.4696672  42.7296066  58.6061954
  13.1080151  42.7893257  59.3169498  12.8922343  42.1745682  57.9507542
   4.5961002  76.8444109  24.0319633   3.7140566  76.5293264  23.8346028
   5.1694059  76.3133526  23.4792137  43.0532265  24.6414328   8.2080179
  42.1006155  24.7100067   8.2717597  43.3822012  25.2831912   8.8374239
  13.0575144  36.4578557  46.5267897  12.8383136  37.2423458  47.0295382
  12.9308212  36.7154145  45.6136370  54.3151093  50.0983715   0.5446017
  54.0146017  49.9502754  -0.3520557  55.2598190  50.2285767   0.4621689
  20.6095695  64.3698454  68.1569529  19.9016595  64.8820496  67.7661371
  20.2987885  63.4652185  68.1209040  51.7009592  25.7818365   8.6956012
  50.9300041  26.0060191   9.2167556  51.5883875  26.2692237   7.8795052
  66.4751387  63.1771517   3.4713411  66.8956280  62.3371983   3.2872269
  66.1677313  63.0982590   4.3743962  52.0779276  20.8576393  38.3757877
  51.3306475  20.5174065  38.8677740  52.5440741  21.4122462  39.0013671
  79.2864943  54.6462584  37.4753833  79.9797440  55.1254272  37.9292917
  78.4754610  54.9694157  37.8678417   8.5474056  42.4001122  40.9031630
   8.2358056  42.2153473  41.7891645   8.8639295  41.5566063  40.5798197
   2.6712650  47.6904964  63.5319948   2.3083596  48.3807564  62.9769516
   2.1401016  47.7190065  64.3277884  56.2303495  58.3879137  41.2286711
  56.1519957  58.2639027  40.2827740  55.4317808  58.8540745  41.4760828
  22.4857688  76.0848999  15.8428168  22.7200913  77.0124626  15.8120263
  21.8183827  76.0290337  16.5267086  20.6109381   1.0727133  50.4472589
  20.9722543   0.1867843  50.4187584  21.1785364   1.5433460  51.0576439
  16.7677045  35.1210999  33.4000802  17.7020347  34.9334717  33.3103371
  16.4199173  34.3764305  33.8907361   8.5194880  45.0482273  45.5319500
   7.6506722  44.7204065  45.7641649   8.6018765  45.8709002  46.0142899
   4.6127784  74.3126202  57.4793673   4.7990328  75.2431870  57.3545027
   5.2066517  74.0413094  58.1793213  56.4644527   6.2556273  54.5154142
  56.3929319   5.9075093  53.6266327  56.8706131   5.5490535  55.0174332
   6.0129565  50.6516361  61.6368914   5.5695933  51.4596939  61.3786173
   6.9406742  50.8263493  61.4786291  43.1812572  19.2568111  17.6332748
  43.1249094  18.4780300  17.0795989  42.5739622  19.8793745  17.2334707
  19.6527267  61.7999363  67.2776270  19.3541694  61.6119289  66.3878250
  19.4966316  60.9876204  67.7592945   9.8834127  60.6418848  54.5165348
   8.9755732  60.3564548  54.4136238  10.3336048  59.8809528  54.8833370
  15.6671035  53.4211349  65.9346581  14.9694371  53.0528641  66.4767551
  15.8815646  52.7243519  65.3143930  25.1849008  49.7645426  55.1601315
  25.1391268  49.7580671  54.2040491  24.4669724  49.1957569  55.4381466
  56.5888166  47.9982090   6.0808963  56.0463524  48.5740042   6.6198057
  56.9752264  48.5782003   5.4247499  74.2666626  41.6824818  34.1105103
  73.9225531  40.8270168  34.3674183  73.4899616  42.2329521  34.0107703
   8.9077079  62.1018791  52.5463200   9.5490700  61.7767477  53.1781244
   8.4661239  61.3150263  52.2267962  23.9699602  45.4565620  66.9602346
  24.6640205  44.8601437  66.6795206  23.1615996  44.9597788  66.8337774
  13.5994422  29.4239426  38.7249422  13.4500754  29.5752406  39.6582317
  12.8061330  28.9807343  38.4241796  18.6403596  36.9528556  46.4836216
  18.8819611  36.1838651  46.9998741  19.0723336  37.6836228  46.9258976
   6.2559444  41.7595816  45.7803392   6.4784396  41.0991812  46.4365387
   5.3884876  42.0711040  46.0386038  67.7425814  71.5740347  40.9748840
  68.5983276  71.7851210  40.6015539  67.3723030  70.9270573  40.3744268
   0.0425772  33.3653188  25.8887744   0.2050833  33.8879108  25.1034594
  -0.0407930  32.4679422  25.5662918  79.8354816  45.5012703  31.5473390
  79.5985556  44.8209953  30.9170032  79.0388298  45.6415510  32.0590997
  48.7720442  51.1502266  25.2789903  49.2543316  50.6899071  24.5921588
  47.8509426  51.0172415  25.0551224  16.3313496  29.9128389  25.4515672
  17.1043384  29.7226810  25.9831309  16.6729355  30.3858995  24.6927762
  57.1092939  62.1515179  42.4827528  57.6901674  61.4628363  42.1594381
  57.5161028  62.9661322  42.1875572   6.7724878  19.4212556  46.3884687
   7.2747320  19.8478746  45.6942225   7.4104697  18.8698161  46.8413782
  73.2775974  29.7142649   7.1348125  72.9675436  28.8885832   7.5067645
  74.2159128  29.5796704   7.0018286   3.2807121  32.3663640  37.8880024
   3.8436800  31.6384244  38.1514478   3.4155992  33.0303311  38.5641575
   5.4556668  41.3545370  12.3354888   4.5640150  41.0356474  12.1958601
   5.3573197  42.3003006  12.4454653   5.3889108  53.8008118   1.4541759
   4.4500834  53.8079643   1.6406800   5.4756993  53.2400417   0.6833088
  13.8813150  56.2760162  36.0534549  14.8209870  56.2728453  36.2357712
  13.5338604  55.5518866  36.5741706   8.8263315  67.7275753  37.7957749
   8.5218447  66.8362570  37.9662800   9.7810674  67.6631880  37.8195524
  66.5150309  16.5960026   3.3543813  67.4431038  16.6493380   3.1262043
  66.4813089  16.8406892   4.2791641   2.6831254  54.1717768  65.7490969
   2.7534068  54.7774124  65.0111961   3.3007616  53.4702063  65.5427980
  10.6195498  40.8023405  51.9086695  11.3059258  40.1431608  51.8056965
  10.9264719  41.5498686  51.3956070  76.9226170  73.6457634   6.1054641
  76.5301609  74.5036507   6.2674671  76.2895536  73.0218410   6.4606822
  80.7209301  17.5876248   2.3751627  80.9018135  17.6254630   1.4359714
  80.6006336  16.6558921   2.5585613   9.6028388  37.8410077  64.7897768
   9.3954664  37.1827650  65.4530573   9.4676358  37.3913741  63.9556408
  21.2864256   5.1186413  53.6157990  20.8772850   5.8414769  53.1400442
  20.6210995   4.8386326  54.2444229  18.5200167  46.8361568  26.3109016
  19.4732916  46.7496061  26.3134837  18.2921779  46.9480610  25.3879738
  38.7918353  14.8984051   5.7778656  39.0000486  15.1913607   6.6650277
  38.2458329  15.5968690   5.4169452  17.4920118  66.3637733   0.4179963
  17.6911581  65.4758739   0.7149925  16.5395439  66.4308739   0.4853357
   8.0974132  38.5043287  43.9200640   8.4878874  38.9594173  44.6661568
   7.2123462  38.8633680  43.8569880   8.0318493  46.5667725  61.0621881
   8.9850891  46.6519308  61.0444593   7.8547698  45.7570648  60.5833960
   8.2410532  47.6347685  46.1467361   7.6916873  47.8274393  45.3869295
   9.1369510  47.7493238  45.8297539   1.0300416  14.8984015  13.6417091
   1.4297786  14.7397733  12.7865601   1.6688785  15.4371333  14.1084921
  38.4789085  44.1415977  20.3305316  38.6685944  44.4133806  21.2285209
  39.3316245  44.1397142  19.8956740  51.5928793  24.7278762  55.7242584
  51.9868374  24.4610405  56.5548182  50.6662655  24.5062971  55.8165598
   4.1891113  58.1452179  66.5296984   4.6780691  57.7711153  65.7967615
   3.2889479  57.8499889  66.3926697  13.4838510  38.5788655  24.6003127
  14.1298711  38.9863729  24.0234017  12.6744533  39.0614057  24.4321966
  30.0075984  32.8179407  44.5520782  29.3162584  33.4187078  44.2739344
  30.5801558  32.7418184  43.7887859   5.4860967  31.5345049  34.2739058
   5.0888926  31.6340899  33.4087229   5.3683954  32.3878980  34.6911573
   3.3297509  31.0535121  10.6528127   3.3967885  30.1171088  10.8395863
   4.2224872  31.3829255  10.7564497  25.8040500  50.7108116  64.0847731
  25.8742213  49.8694706  64.5358276  25.8147454  51.3608408  64.7873259
  10.2139294  66.5958023  17.3802638  10.0071692  65.6622553  17.4246621
  10.5536151  66.8075037  18.2497633  53.0942440  24.4077635  18.2628977
  52.3119545  24.5910287  17.7426386  53.2007170  25.1816440  18.8160729
  15.7858133  70.7479429  52.1944666  16.1649978  71.6138172  52.0437670
  16.4528489  70.1366711  51.8819857  30.7464838  61.2770891  47.8090191
  30.3227711  61.9632053  48.3247185  30.4033947  60.4596853  48.1700897
  77.3713350  67.8952885  35.4232597  77.9608583  68.4611654  35.9217358
  77.9256487  67.1730995  35.1276159  70.6794548  18.8897777   1.9123536
  71.2415886  19.5580852   2.3042776  70.8601475  18.9450455   0.9739885
  25.5078220  77.9830647  62.8030729  25.7988906  78.2808161  61.9411850
  25.9682560  78.5510874  63.4207964  12.1388268  38.0985785  16.3056338
  12.7465177  38.3673549  16.9946206  11.3101923  38.5160041  16.5409017
  29.0125299  69.5644379  42.3220396  29.4506884  68.7474108  42.0838881
  28.7878299  69.9688053  41.4840508  56.6147566  52.8698397   2.4654037
  56.2798405  53.1995058   3.2992998  56.8762541  53.6553526   1.9849636
  28.1044364  11.3176143  48.0224133  28.2105708  10.5641973  47.4416113
  27.4478221  11.8631744  47.5894547  53.4531212  24.2395306   0.5134824
  54.0065479  25.0098443   0.6421954  52.5782204  24.5961475   0.3598344
  69.3654299  19.5419610   7.4317420  68.7157965  19.3915272   6.7450261
  70.1447439  19.0747523   7.1307105  13.1856847  16.2249708  50.9353447
  12.5717533  15.5728436  51.2730551  12.6491094  16.7981148  50.3877831
  72.9673004  19.9481499  23.0207777  72.9633522  20.7354522  23.5651803
  72.0654726  19.8670769  22.7103543  28.3777905  55.9187841  62.0523834
  28.9546919  55.4432869  61.4546251  27.9922605  55.2387476  62.6047850
  15.2334571  69.4645834  14.1918242  15.5900908  68.7260675  13.6982310
  15.9985650  69.9936390  14.4175339  26.8081450  63.8114357  63.6816025
  26.5213275  64.4569445  64.3275738  26.0961103  63.1725502  63.6489773
   8.4569222  49.1526318  50.4241228   8.1547928  49.7694302  49.7574043
   9.2736316  48.7995291  50.0712252  69.6757841  22.1476841  32.0088935
  68.9807701  22.3027658  31.3692546  70.0074148  23.0207562  32.2186518
  23.7953234  76.8274927   8.2674980  23.8995767  76.6513968   7.3324299
  24.1400003  77.7128029   8.3843809  10.4970324  58.0069637  55.3319836
  10.6908584  57.4564838  54.5732784   9.6005863  57.7743816  55.5738926
  61.6300774  60.6197691  48.8908386  61.9149113  59.8471212  48.4028673
  60.9584570  61.0184050  48.3374405  27.1297312  65.9845018  48.6589241
  27.2172093  66.0336494  47.7069998  26.2082553  65.7698679  48.8040018
  34.0417099  67.7208853  44.8864651  34.0235662  66.7644739  44.8521376
  33.3936286  67.9961634  44.2380476  67.8208065  68.6317587  31.4607048
  68.4545135  69.2779016  31.1490202  67.0662546  68.7374878  30.8813047
  11.6600811  70.5416298  38.1247401  12.4326432  69.9900007  38.2475567
  11.6282153  71.0875273  38.9103699  17.6192689  72.5282145  35.2579474
  17.5924611  73.3638191  35.7240772  16.9237638  72.0074749  35.6596112
  18.7878501  45.1542807  48.5195065  19.5316136  44.5606899  48.4160852
  18.3415365  45.1287413  47.6731110  51.7246389  15.5541265  48.7584782
  51.3607836  15.6934857  47.8841686  50.9591675  15.4999673  49.3306255
  24.8902941   3.8616484  11.4509499  24.5358086   3.3017629  10.7602251
  25.1909423   4.6463132  10.9925365  77.0863676  32.6541829  10.5368531
  77.2900915  32.7821302   9.6103764  77.4385071  33.4322071  10.9691846
  16.1640632  38.2714581  46.6782570  15.7129812  38.0111599  45.8751345
  16.9190586  37.6853085  46.7296410  22.1956754  44.9699259  60.9892988
  21.5240955  44.4177246  61.3896561  22.6706719  44.3817663  60.4022074
  62.8899956  42.6289463  17.5636637  63.7221909  42.7675056  18.0158722
  63.1311798  42.5325298  16.6423786  77.3353863  44.9357939   1.1561451
  76.8066216  44.5251942   1.8402857  77.0045805  45.8324718   1.1035225
  12.5224388  69.9407578  41.7383003  12.3464382  69.0537167  41.4245844
  12.0317650  70.0068426  42.5575113  59.2478037  10.0025475  62.1142912
  58.6104918   9.9387109  62.8256178  60.0232267  10.3888309  62.5213957
  28.0344057  78.4549427  30.7657886  27.6149011  77.6379490  31.0355496
  27.6715302  79.1163969  31.3548851  20.3929591  70.0865316  50.5330801
  19.8926413  69.3927956  50.1033831  20.2164912  70.8683825  50.0098181
  38.2944727  57.8945208  62.2299623  38.2964396  57.8059912  63.1830597
  39.0589118  58.4377766  62.0383024  57.3546696   8.4912276   0.9129976
  56.6321850   9.1018963   0.7669517  56.9324350   7.6362771   0.9967215
  72.2666550  47.3930311  10.5519152  72.3469114  46.7968416   9.8073697
  73.1383801  47.4012613  10.9472108   5.5827880  72.1544743  37.9012990
   5.9565818  72.9990244  37.6498199   4.7558171  72.3764372  38.3291817
   2.8562754   2.2605516  23.7002063   3.2400867   1.7238423  24.3936491
   2.3933057   1.6356510  23.1421828  76.8293238  46.9058180  42.5075340
  77.1656942  46.1413908  42.0398378  77.5204945  47.5624275  42.4216270
   6.5855688  32.4037862  22.3472953   7.2355169  31.8171906  22.7342129
   6.1558622  32.8136754  23.0980110  54.6322584  63.1699324  61.3514614
  54.5796251  63.7630987  62.1008730  54.8356915  63.7391520  60.6092787
  56.9507742  11.7093217  53.5479259  56.6713333  10.8130300  53.3613634
  57.2512150  11.6823494  54.4563532  13.0538023  53.1453085  30.4488254
  12.8400052  53.7220955  31.1822033  12.7408206  53.6148834  29.6756649
  67.4542618  16.6592014   8.0132657  67.9325819  15.8323956   7.9513234
  67.8854752  17.2333670   7.3803198  16.5424788  73.1403255  55.0464249
  17.1361768  72.5504923  55.5110264  17.1018708  73.8579226  54.7491598
   5.7308024  10.6629491   6.8797004   5.0962853  10.9794199   6.2366867
   5.5418491  11.1673701   7.6709574  21.9137311  51.0466719  58.0668020
  22.1353054  50.1774597  57.7327299  21.7195892  51.5618801  57.2837925
  45.0330830   6.9134969  51.9357729  45.2834797   7.6190126  51.3393021
  45.8234882   6.7403513  52.4471521  49.1907835   0.7942898  17.5079703
  49.4183588   1.6802081  17.7900898  49.2826509   0.2605691  18.2972324
  56.2677765   4.1586193  37.0836473  56.2354088   3.7171870  37.9323649
  55.4586124   4.6687266  37.0479751  53.9335203  59.6991634  55.2313423
  54.6589708  60.3201342  55.2972174  53.1496191  60.2313137  55.3675222
  27.6990438  65.2450371  29.4553638  27.9765177  65.6557608  30.2742314
  27.9889607  64.3361092  29.5330477  59.0175629   6.9490558  57.1587563
  58.3611631   6.6439015  57.7850580  59.5185757   6.1645794  56.9355726
   5.7192314  39.6390486  43.1376457   4.8184845  39.8871183  43.3458471
   6.2300998  40.4315805  43.3023834  35.7359552  49.9767971  36.1125064
  36.2383699  50.0368643  35.2999783  34.9229741  50.4466581  35.9267020
  16.2278211  50.2866173  52.5626421  15.4088104  50.2508783  52.0685005
  16.8417680  49.7638988  52.0468283   6.4134330  67.0997524  48.3658552
   7.2862184  67.0732641  47.9737139   6.4661843  67.7957296  49.0208864
   9.1192269  66.6300678  47.7202749   9.4692117  65.7903528  48.0179644
   9.1869366  66.5930748  46.7661905  29.8344445  69.9330664  54.6182966
  29.1589308  70.2967215  55.1907158  30.6375647  69.9777317  55.1371717
  83.2502556  60.7440805  53.2528019  83.1881428  61.4450026  53.9017057
  83.6369038  61.1630774  52.4839211  40.3825426  76.2839794  37.5313640
  39.8657417  77.0372534  37.2454906  40.0573778  76.0901880  38.4105349
   0.6814992  13.9556587  33.5779428  -0.1200088  13.5686731  33.2257223
   0.9335080  13.3736277  34.2948556  41.7462587  55.0548172   7.0312095
  41.4380217  54.6160126   6.2383211  41.6611528  54.3944597   7.7188998
  12.5211728  67.4110413  43.8908815  12.4476087  68.3021212  44.2326307
  11.9267237  67.3923254  43.1408739  76.8117142  27.1814466  32.6284170
  76.8368053  27.8646946  33.2983232  77.0697117  27.6273942  31.8216968
  24.6097612  24.5783567  23.2905293  25.5396295  24.7852707  23.1969261
  24.3812180  24.1292667  22.4766994  79.0843439  30.4577708  14.7360981
  78.2621861  30.0076270  14.9301600  79.5207500  30.5357409  15.5844498
  14.5679522  41.9721413  46.8239021  15.3253353  42.5259781  47.0132971
  14.6318114  41.2551165  47.4548006   6.4293317   0.1391930  60.7605505
   6.6840390  -0.2351098  59.9171877   7.2589330   0.3293128  61.1985588
  17.8102684  73.7465000  64.9773216  18.5978341  73.2805014  64.6965694
  17.3965585  73.1585407  65.6092834   5.7932580   6.8571240   5.5536616
   5.0475556   6.3869548   5.9266233   6.0180819   7.5122464   6.2143439
  10.1507843  49.6371889  58.5256672  10.9164417  50.2116346  58.5219288
  10.0221300  49.4035864  57.6063681  48.5196400  66.8145943  49.6692467
  48.1655693  66.5219784  48.8294601  47.7532673  66.8962955  50.2368975
  73.0933094  54.6805477  31.3009191  74.0286303  54.7911072  31.1301064
  72.6622772  55.1402664  30.5804300   6.2627143  14.3841875  34.4792676
   5.4010093  14.0625560  34.2142224   6.2965798  15.2808714  34.1460347
  30.7043386  58.6485195  65.7410526  30.9051251  58.6118364  64.8058701
  31.5554404  58.5701990  66.1720085  80.8768940  43.6974287  66.9194317
  80.9272194  42.9024220  66.3887119  81.2402725  44.3829918  66.3589096
  29.7998881  58.8381863  49.0929413  29.5420551  58.4377766  49.9232578
  30.2940416  58.1545067  48.6405849   7.2233790  50.4249811  68.5514402
   7.5950336  49.6944809  68.0569935   7.1100855  50.0813627  69.4376230
  31.1538720  79.5826149  54.6797085  31.5551853  79.6492386  53.8132572
  31.2276316  78.6557722  54.9072027  38.6718297  72.5779200  43.1326294
  38.9135551  72.2934198  42.2512341  39.4547415  73.0163002  43.4659529
  13.0293417  25.3868747  59.1303778  13.9419675  25.3875566  58.8416815
  12.5241446  25.5166650  58.3277798  48.8071632   2.0745100  23.4782743
  49.1319656   2.6579592  24.1640735  49.5880461   1.6225030  23.1586838
  24.5294166  71.8140364  29.8707366  23.7164259  71.4727545  30.2433014
  25.2206874  71.4196444  30.4025555  51.6738415  71.0658598  51.2736940
  51.7200947  70.1199436  51.1346197  50.9156036  71.1871290  51.8451834
   7.8676248   3.3782214  20.7410741   7.6932240   4.2698121  21.0425401
   7.7950209   2.8403014  21.5294909  43.8910818  69.0543556  54.8226833
  43.7275696  69.7659159  55.4416990  44.0833426  69.4959593  53.9954853
  78.8760519  71.6091728  44.4583130  78.5143137  72.2389698  45.0818014
  78.3516550  70.8184910  44.5850372   3.7618470   6.0254991   7.5095248
   3.6431476   5.3701973   6.8219769   4.2432892   5.5661887   8.1976229
  79.5050240  24.2937636  30.9617352  79.2552137  23.9296317  30.1124811
  79.0665865  23.7325454  31.6012931  45.8514690   0.8975896  60.0010920
  45.1486540   1.1719252  59.4120026  45.7246590  -0.0457663  60.1022434
  22.0129323  76.4358234  52.5911045  21.2598634  75.9119701  52.8644133
  21.7184377  77.3423958  52.6784563  45.8998823   7.2250229  16.1326277
  45.1446199   7.5716460  16.6076624  45.5642557   7.0320153  15.2572227
  40.7412577  54.6818399  50.5333996  41.2449408  54.2305851  51.2108231
  40.3047848  53.9793253  50.0515318  18.2534933  65.3852177  66.9979572
  17.4678278  65.3876543  67.5447273  17.9636669  65.0157738  66.1638451
  81.0164738  57.2910166  58.6108255  80.6206226  57.5254774  59.4502020
  80.5083466  56.5383482  58.3082962  11.5423226  72.8632593  68.2443333
  11.2319553  73.5145855  68.8733625  12.4921727  72.8502321  68.3620119
  56.4369965  54.4980240  65.7606888  55.7267666  54.0138626  65.3395081
  56.9875383  53.8212824  66.1545849   1.3732094  21.3533854   3.0900723
   1.4842460  22.2917676   2.9372987   1.6088368  21.2309074   4.0096977
  29.0890336  11.4913285  41.1704397  28.5245371  12.2451639  41.3416338
  29.7688985  11.8287575  40.5872107   2.7753761  19.6131241  36.5439701
   2.6627564  20.3314638  37.1664929   1.8841878  19.3235624  36.3486004
  13.2476187  45.8169270  50.1485109  12.5045323  45.8893776  49.5495033
  14.0092742  46.0399151  49.6133566  20.0242949  61.8306398  63.9597178
  20.5230665  62.5190115  63.5197163  20.5183315  61.0291958  63.7869549
  78.4699297  53.7002277   9.9831277  79.1455078  53.1449509   9.5939082
  77.7998447  53.0866671  10.2843988  60.4382706  15.1160324  42.7225304
  61.0220337  14.6252489  43.3009624  60.9058714  15.9326208  42.5471258
   7.2496420  16.0220540  63.0895281   8.1149280  16.4300334  63.1221628
   6.6723287  16.6497695  63.5241699  56.2497234   4.8995498  50.3436518
  57.2016954   4.9923316  50.3807735  56.0068321   5.2616888  49.4915438
  67.8458500   8.8736022  54.9748039  68.0342722   9.7597843  54.6659231
  68.6982727   8.5242349  55.2346945  47.6960516  29.5524216  15.7044554
  47.6558208  28.7889051  16.2803519  47.3652649  30.2737975  16.2396467
  11.1362863  56.7507601  32.3582053  11.2496471  57.4970579  32.9467773
  11.1496019  57.1334124  31.4809203  63.2260489  -0.0804668  55.6240797
  63.2969570   0.4471536  56.4195776  64.1323423  -0.2357583  55.3580952
  43.5710955  58.1326675  49.7595549  43.4644127  57.5024176  49.0470695
  42.7473640  58.6200142  49.7735691  63.3163977  30.1337171  27.7958870
  64.0042210  30.6505346  28.2154465  63.7701702  29.6417332  27.1115780
   9.7343338  33.1100345  68.6627579   9.0738672  33.4665966  68.0687237
  10.1405454  33.8805938  69.0595722  12.5607228  74.5825768  42.9236126
  12.5314772  74.7005606  43.8730621  11.6538441  74.4013166  42.6767349
  16.7386937  70.2518797  36.8787837  16.1198819  70.4997730  37.5656986
  17.5965357  70.4851627  37.2336340  58.2150412  31.0085511   9.4769418
  59.0245342  30.9519029   8.9692587  57.7964067  30.1562738   9.3561155
  82.5913239  31.5697217   6.4723337  83.3063221  31.1804700   5.9688514
  82.5847340  32.4894619   6.2072539  58.5995293  58.1221819  68.6592579
  59.1634560  57.3518467  68.7285423  59.0497971  58.6934519  68.0370522
  80.3196812  78.1535435  55.1901960  81.0903835  78.0018425  54.6431732
  79.5797968  78.0793333  54.5874500  49.1157389  18.5995924  46.0761166
  49.0476418  19.3601811  46.6532660  48.4358597  18.7377262  45.4166317
  35.8671594  17.1260655  13.6907399  34.9225116  16.9719005  13.7010896
  36.0980964  17.2598219  14.6099830   6.1986774  18.4795892   3.8823843
   6.4395052  17.5694752   3.7093964   5.7446694  18.7622476   3.0885246
  11.3986480  27.5115728  12.9802668  12.2715950  27.8547001  12.7893245
  11.2177336  26.9043994  12.2627401  39.8855948  61.1261845  59.7271538
  40.1232719  60.2219486  59.5219755  39.6785474  61.1132669  60.6616020
  14.0625393  18.9538872  51.8156004  13.8841450  19.4620275  52.6069260
  13.5893202  18.1322539  51.9468021  21.8215394  79.0017509  40.3422117
  22.2542238  79.5921230  40.9590387  21.3049316  78.4149790  40.8945227
  82.3711681  66.3175917  47.8784609  82.9353809  65.5558681  48.0113888
  82.8017807  67.0220375  48.3627844  46.1952305  20.4112554  66.8189001
  47.0029736  20.7889414  67.1669340  46.2115335  20.6283140  65.8867788
  30.8077621  24.9060392  27.0284748  30.5842781  24.4657683  26.2084460
  29.9630094  25.0922871  27.4382758  43.3513212   1.5619451  50.5912876
  43.4979343   2.0606668  51.3950348  42.4458313   1.7572147  50.3500557
  72.6520061  20.0349355  46.6991091  73.1334972  20.4678798  45.9941530
  72.2070074  19.3034589  46.2711477  80.8865643  35.8711267  25.0645280
  80.5298901  36.4462590  25.7414603  80.1182556  35.5575776  24.5874310
   0.5662755  59.5806599  29.8857665   0.7255559  59.8461246  28.9800119
   1.1378601  60.1461506  30.4051328  13.5684192  17.4089265   7.2950286
  13.6140656  16.4920199   7.5660110  14.4428325  17.6026654   6.9572431
   4.8899218  23.4153390  21.7576432   5.5570692  22.9614782  22.2725749
   5.3875494  23.9537621  21.1422563  25.7486105  13.0522478  20.6682134
  26.3300061  13.8125193  20.6541061  26.2942266  12.3277736  20.3621531
  40.4616785   5.8455890  18.5685921  39.8935413   6.3619345  17.9968929
  40.1194429   5.9999162  19.4490969  50.1500654  58.1500816  37.8909516
  49.9315548  58.7339163  38.6173272  50.8345747  58.6137438  37.4085641
  26.1022925  68.2189703  56.0962343  25.1474309  68.2801485  56.0693073
  26.3024139  67.3974848  55.6475115  26.7050648  52.1333361  28.2178783
  27.3097515  52.8261423  27.9521656  27.2647548  51.4665413  28.6158204
  50.3330755   4.6212891  57.2121525  50.4198503   5.0470185  56.3592434
  50.9416199   5.0948846  57.7792597  19.5256257  54.9590015  63.5796595
  18.9172614  54.9712992  62.8407574  19.5297110  54.0473557  63.8713980
  76.8677282   5.5901057  48.1982183  76.4038324   5.8731401  48.9862061
  77.2587061   4.7502595  48.4391069  48.5485792  24.3662477  63.2983685
  48.5420990  25.2094626  63.7513304  48.2326365  24.5653772  62.4170256
  31.7002320  71.4987803  50.2241468  31.2090373  70.8928776  49.6693134
  31.0726714  71.7738676  50.8925200  21.8395519  51.3304710  60.9059048
  21.9518590  50.9705639  60.0260830  21.2468100  52.0726299  60.7872248
   6.6761762  37.1395206  24.9906015   7.4853539  37.3866272  25.4382610
   6.0461491  37.8136897  25.2451468  44.1263151   4.5584866  49.7124386
  44.1775990   5.4394132  49.3415356  45.0379181   4.3088973  49.8638058
  52.0186329  32.5382471  17.3663604  51.4397907  33.1636238  16.9303787
  51.4272881  31.8850899  17.7404261  22.0576549   8.0976379  28.6461234
  22.7759743   7.6233327  28.2274532  21.9038677   8.8511527  28.0762148
  64.2337561  78.9383936  56.1341906  63.3112097  78.8250923  55.9054947
  64.6856260  78.9833689  55.2915621  76.2812757  57.0103312   7.0886707
  75.9052610  57.8902960   7.0660615  76.6345596  56.9235086   7.9740423
   0.3201012  25.7378936  38.7560630  -0.5840889  26.0238385  38.8860893
   0.8330117  26.2893510  39.3468666  79.6847916  62.9161263  26.5601301
  80.6235600  62.9539585  26.3770437  79.3027401  63.5846806  25.9915280
  73.3979797  15.5818510   7.2678012  72.9572296  15.5303419   8.1159276
  74.1912127  16.0889816   7.4405092  13.5526288  51.0971832  20.6662917
  13.4964490  50.1526833  20.5213809  12.7043951  51.4345503  20.3783417
  71.1279202  76.6009760  44.1333246  70.6939459  77.4397707  43.9773464
  70.4147434  75.9973431  44.3412590   4.6229950  69.4965124  64.0338516
   5.0165737  69.9282074  64.7921181   3.7657949  69.2036533  64.3431616
  20.7238078  52.4213505  49.7226572  19.8537302  52.2018480  50.0558519
  21.3255167  51.9311476  50.2829075  33.5222745  75.3276682  55.6895876
  32.6169825  75.5094957  55.9418011  33.7417984  74.5186949  56.1517620
  27.6416159  18.7242603  57.9020500  26.8691087  18.8279402  58.4576702
  28.3800101  18.7545621  58.5104036  45.0277758  10.6169069  57.6204824
  44.6223831   9.8154604  57.9515028  44.7015095  11.3066924  58.1983900
   3.7345591  34.7577858  45.8412695   3.9542332  34.0240502  46.4153814
   4.3600863  35.4426122  46.0778236  11.4926851  60.4053926  62.5400305
  12.2906566  60.4804754  63.0633211  11.7211699  60.7974911  61.6972446
  60.3860283   2.9767329  67.2111368  61.0255146   2.9124439  67.9204702
  60.0114059   2.0982954  67.1460533  22.0279813  44.3987942  50.5156565
  21.5095520  44.1697979  49.7442818  22.8539157  43.9297628  50.3970051
  71.8136311  34.9484849  20.3193593  72.6156044  34.4267964  20.3494859
  71.6930246  35.1489449  19.3911886  80.6012154  26.5284872  57.8820133
  80.0174141  26.7606521  57.1598625  80.7637119  27.3563170  58.3342600
  21.0699201  54.1300917  40.1301241  21.4311647  53.2680798  40.3366852
  21.8362141  54.6982050  40.0509262  71.8504190  36.9569778  27.9009628
  72.4509287  36.2285471  27.7428436  72.3882103  37.7402616  27.7848601
  25.3287721  57.7268457  60.5084467  25.0308251  58.3899498  61.1311436
  26.2829041  57.8030729  60.5156231  70.8663750   6.8314159  46.4194584
  71.5304422   7.4442792  46.1037970  70.1152277   7.3833525  46.6371202
  76.8008566   7.5426644  13.0818355  76.6622591   8.2153589  12.4151230
  77.1185827   6.7832381  12.5934136  57.3643208  20.1842475  50.6882858
  57.7225876  19.3312216  50.4428816  57.0354748  20.5510068  49.8675680
   4.8762944  77.2206163  45.4581308   5.7239497  76.7902136  45.3464794
   4.2551166  76.5009546  45.5697393  27.1590447  21.2883520  19.3074393
  26.4551353  21.7738390  19.7376060  27.9440689  21.5109301  19.8078680
  11.7007899  42.8251934  43.0058098  12.3854339  43.0090761  43.6489916
  12.1172500  42.9880762  42.1594906  57.7773571  16.9277370  52.9973173
  57.6722288  16.2277961  53.6417246  58.4468412  16.6012347  52.3961306
  29.9111652  64.1781330  45.8715630  29.6507907  63.5418320  45.2055597
  29.7873402  63.7193823  46.7024946   9.0157092  13.0973387   2.5756618
   9.1135508  13.8805747   2.0341830   9.8946428  12.9299915   2.9158130
  37.7990723  13.8537538  32.1808481  38.4786391  13.1815398  32.2313452
  37.2233868  13.6685610  32.9228210  28.3929706   9.7523052  43.4592867
  28.3993936  10.4668510  44.0961647  28.8255501  10.1161039  42.6867819
   1.2884985  21.6752219  18.2405150   1.6059797  21.3275003  17.4071336
   2.0499368  22.1102524  18.6241722  15.7582247  26.9757795   8.7510908
  15.0929379  26.5137839   8.2410067  16.2736106  27.4501324   8.0987120
  78.3506870  29.1771340   9.1617429  78.9325094  28.4206462   9.2354977
  78.1844807  29.4406056  10.0668335  27.5682020  10.6988621  64.0981531
  26.7635775  10.3731990  63.6947250  27.3108149  11.5203524  64.5166445
  10.2745569  51.0138416  25.8861184   9.3369520  51.1977053  25.9437490
  10.3615189  50.4517031  25.1162672  44.5943356  78.3017588  47.2802544
  44.4027472  78.2192612  46.3460588  43.8165903  77.9531765  47.7159500
  70.6388187  52.2978878  10.7140315  70.7494545  52.3472118  11.6635358
  69.9121094  51.6875744  10.5889595  23.5070443  38.9807200  28.7798786
  24.3124175  38.4658551  28.8300419  22.8841066  38.5051203  29.3294120
  45.8939219  70.6605864  27.9477286  45.6542778  71.4608288  28.4150815
  46.7366314  70.8635855  27.5416994   9.1949189  27.2172499  57.5495720
  10.0687671  27.2527266  57.1605158   8.7733424  28.0284524  57.2659254
  84.1074657  55.2124691   1.0738285  84.5058346  55.4021263   1.9232795
  84.1154289  54.2572069   1.0134845  26.5697908  54.2681456  19.1511786
  26.7261243  55.1769686  18.8946116  26.7719507  54.2451572  20.0865054
  62.2516489  50.6814289  32.2369099  61.8397284  49.8862648  32.5749373
  62.5231934  50.4513454  31.3483405  25.8934426  22.3016238  10.3530169
  25.9699845  22.0322824  11.2683475  26.7902374  22.2742152  10.0194907
   7.2646266   6.7469841  46.0355663   6.5973639   7.4006772  45.8265734
   6.9144899   5.9273028  45.6866312  39.4880223  67.4909496  67.0987034
  39.1686058  67.5212145  68.0005264  38.7323046  67.2033024  66.5864706
   5.2955818  32.8974915  20.0995111   5.6840622  32.6298499  20.9323883
   4.4396082  33.2534623  20.3378916  35.2458286  70.6872749  42.3312140
  34.7720814  71.0811710  43.0637693  35.3979874  71.4133072  41.7262697
  34.3756080  26.6031861  57.2242975  33.4962726  26.7752647  56.8875647
  34.2784071  25.8124495  57.7548838   4.7438091  62.3785448  64.2570543
   5.5517161  62.6465130  63.8192034   5.0261599  62.0896387  65.1248312
   1.8677685  22.0520234  37.2852921   1.0636836  21.5375209  37.2148347
   1.5819827  22.9591060  37.1768427  36.8492579  77.3059988  45.2560043
  37.3062611  77.6043463  44.4696379  36.7946720  76.3556814  45.1552725
  54.9961472   5.7879615  47.7966833  54.1771603   6.2473541  47.9822874
  55.0034380   5.6864381  46.8449116  14.8628521  36.8463826  27.2036624
  15.4701257  37.5767803  27.0854759  15.3823304  36.0680175  27.0023584
  49.0301657  21.4077044  43.9292860  48.9534521  22.0004892  43.1816530
  49.7440624  20.8154273  43.6930752  54.3642282  74.2927599   0.0417249
  54.4341803  74.9075460   0.7720519  55.2703953  74.1208458  -0.2142685
  44.6108055   4.6673778  40.9156609  44.5788527   5.3981727  40.2982855
  45.0584173   3.9693230  40.4375458   8.1985712  55.9969616  45.9742451
   8.1029040  55.0624514  45.7904720   9.1335911  56.1134291  46.1427832
  10.5732644  23.4572816  22.8793836  10.8369792  22.5675917  22.6445699
  11.3541603  23.8411736  23.2782054  34.2663741  71.5446901  47.1334648
  33.4355974  71.5719461  46.6588116  34.1205359  72.0945358  47.9032946
  55.8151054   3.4267238  14.3129468  55.0383806   3.1198657  13.8452172
  55.7106876   4.3773764  14.3528116  16.6318190  50.6217194  15.7102025
  17.3102999  50.8724546  15.0832844  17.1030831  50.4884672  16.5326297
  74.4407892  40.7206964   7.4229324  74.4680357  39.9097562   7.9307371
  73.5156202  40.8368444   7.2065848  36.4200497  66.5767813  53.0006838
  36.9843817  67.2467422  53.3865786  37.0101357  66.0453653  52.4662399
  38.2938766  67.5406694  10.8351696  38.7573910  66.7116642  10.7162845
  37.3749876  67.3265934  10.6737781  43.4537792  57.5114393  55.5545044
  44.2534447  58.0070972  55.3781748  43.7614250  56.6849709  55.9267044
  74.6138239   9.6031386  47.3700237  74.5495701   9.0571576  48.1536102
  73.7423706   9.9871993  47.2735882  56.1439037  74.2056990  16.0834050
  56.2602901  73.2596397  15.9959149  56.7829418  74.5825815  15.4785740
  18.0993521  29.4092178  20.2320004  18.5947192  29.5374823  21.0409427
  18.6913693  28.9157987  19.6642983  23.5843992  55.7566166  61.5982866
  22.7020359  56.0227299  61.3397312  24.1400504  56.4949799  61.3486767
  11.5989494  60.8624935  37.2265244  12.3129988  61.1461449  37.7974057
  12.0364141  60.4359102  36.4897156  25.5345702  74.7560596  59.0697050
  25.1886487  74.7636843  59.9621773  26.4573741  74.9903822  59.1684961
  83.1575489  62.8752184  60.2396345  82.7943039  63.5475302  59.6632004
  82.6367760  62.9392576  61.0402155  17.5556040  54.3668413   3.3529961
  17.3234785  53.5536385   2.9046112  16.8558884  54.4953966   3.9933887
  51.3863564  72.9954386  57.3471785  50.9617853  72.1628475  57.1403933
  52.1536016  72.7510214  57.8646946  31.3014841  64.6031570  18.3817410
  31.0779619  65.2642918  19.0368521  32.0820141  64.9491262  17.9489470
   8.6141753   6.4610749  61.4304781   7.6619750   6.5341610  61.4953232
   8.7740928   5.5269468  61.2960768  71.2013578  15.0364399  41.9075203
  70.2611303  14.8765934  41.8259668  71.5361071  14.9574339  41.0142469
  57.5442886  15.6702292  45.9671831  58.2218981  16.0691619  45.4213524
  57.9456615  14.8667872  46.2982655  50.0498104  50.8480740  36.2449026
  49.9396133  50.9571695  35.3003454  50.6256247  50.0884914  36.3327098
  63.5532236  53.7814617  61.2670946  62.9852867  54.1582203  60.5949831
  64.1059828  54.5100927  61.5495539  58.2992363  14.2425609  59.3460941
  58.0105495  14.9690950  58.7937927  57.4881077  13.8511729  59.6703100
  64.7218084  34.7561073  12.7335703  64.9223518  35.5590940  13.2144332
  63.9240074  34.9616766  12.2462463  82.0058537  68.3791828  27.9419947
  81.6805172  68.9952803  28.5983562  81.6370487  67.5350857  28.2022166
   5.9160382  62.8840685  36.4406967   5.4374611  62.2202635  36.9372463
   5.6143373  63.7174225  36.8022609  19.4880497  20.7297850   0.8043488
  18.8223195  20.2531624   0.3085003  20.3187704  20.4520488   0.4183454
  67.6705647   3.3427069  65.6360817  68.1428432   3.1581995  66.4479542
  68.1090403   2.8052160  64.9764776  71.6294432  14.5342124  58.9097834
  71.5158272  15.3258216  58.3837843  72.3255062  14.0496373  58.4660292
  59.3285370  10.7994950  29.2309642  59.4475031  10.1565802  29.9300623
  60.1276922  11.3259673  29.2511940  38.9778996  61.0687828  50.4317379
  39.8550701  60.6856441  50.4350138  38.4667063  60.5017567  51.0091400
   4.2410353  16.6092360  56.1364603   5.0723135  17.0748138  56.2283564
   4.4436085  15.8677077  55.5660820  75.4380369  15.4964900  60.7139254
  75.1674175  14.6189916  60.4437542  75.2914000  15.5117810  61.6597033
  71.2537193  59.6436691   3.7175971  71.4348745  59.3797588   4.6196860
  71.0163975  58.8298702   3.2730281  59.4387627  69.3294287  54.2542171
  60.2236843  69.7495174  53.9025736  59.3243647  68.5465050  53.7155390
   7.6862663  32.4462533  62.2103977   8.5142922  31.9706535  62.1439886
   7.0198941  31.7610025  62.2614861  59.5286512  66.9319201  41.9665289
  58.6388636  67.2840357  41.9895601  60.0913286  67.7052689  41.9270754
  71.4243937  25.5772066  61.5503454  71.2195349  25.7640719  62.4665022
  70.8581781  26.1674404  61.0531044  68.4173965  15.7320917  67.5431347
  68.1210184  15.9615695  66.6623783  68.1827450  14.8093784  67.6419878
  10.9567034  20.7397008  22.0413375  10.8982563  20.2541137  21.2185240
  10.1388407  20.5391359  22.4964261   0.7006897  41.1533403   6.0976380
   0.5985203  40.2293062   5.8696961   0.6052717  41.6171980   5.2657956
  24.0232134  71.0696602  57.9107761  24.1183949  71.5822697  57.1080303
  23.2348061  71.4191866  58.3260870  69.8290586   1.4109832  65.7506371
  70.2178431   2.2677585  65.9267473  70.5340290   0.9070809  65.3440237
  51.6693878  49.8050594  43.7563276  51.2704802  50.4500389  44.3403721
  50.9296513  49.4098330  43.2950068  77.3543978  40.5103016   7.4171352
  76.6943932  39.9870801   6.9623131  77.1723223  40.3703785   8.3463830
  27.4689150  67.4701738  58.6534357  27.2027826  67.5556326  57.7379560
  26.8047118  66.9022083  59.0439272  75.0660181  13.9975595  43.5838270
  75.6526899  14.0620756  44.3374062  74.6303606  13.1520307  43.6911488
  50.9699488  18.4178150  25.1224518  51.5084553  17.8920209  24.5310283
  51.5475321  19.1265166  25.4059458   3.5173754  26.5737745  -0.0836503
   3.9729146  27.0573065   0.6054891   4.2030553  26.0574552  -0.5073058
  31.9813228  72.5629187  45.1382828  31.2914228  72.5993967  44.4757605
  32.7830696  72.4024200  44.6406126   7.0724529  32.1462202   8.4436697
   7.8850621  32.6434374   8.3505285   6.9600827  31.7105198   7.5988215
  60.0892639  71.8341303  34.0876222  60.3053093  72.2080851  33.2333899
  59.1373587  71.9130945  34.1498232  77.9843330  62.3538303  31.5270662
  77.1345711  62.7943373  31.5365171  78.5499620  62.9354143  31.0190797
  83.9745331  50.7224464  18.5551369  83.9066505  50.6636143  19.5081127
  83.2973957  51.3511038  18.3051372  40.3288794  74.9440861  34.8144078
  39.4189882  75.0487089  35.0925946  40.8189964  74.8450089  35.6306171
   7.0588183  28.4984207  48.7349463   6.3172668  28.1762314  49.2473221
   7.8303510  28.1904078  49.2104435  84.1267300  72.6903582  34.5566916
  83.2104111  72.7724266  34.8209834  84.1128063  72.0596647  33.8367844
  37.9052663  26.7652941  24.9098372  38.1031561  27.5620890  24.4177127
  37.5898314  26.1481476  24.2496395  25.2281499  67.4992037  68.6909533
  24.4333744  67.8152704  69.1206789  25.6525540  68.2908297  68.3601379
  81.9672298  57.5632668  22.4628496  82.7430725  57.3662901  22.9877305
  81.4435387  56.7628860  22.4997926  34.4706059  24.4366407  65.0439787
  34.8092389  25.3130221  65.2270508  35.2154517  23.9651513  64.6709728
  50.6602287   0.7803345  50.4679346  51.0376930   1.5641841  50.8670950
  49.9143219   0.5624351  51.0268402  68.1465435   7.2100216  58.0404854
  68.1375217   6.2559497  57.9636908  69.0325356   7.4628282  57.7809858
  23.5927248   6.1821896  55.0527763  22.9348874   6.7894995  55.3913879
  23.0926561   5.5526274  54.5333433  60.5911398  29.2595291  66.1531973
  60.3427601  28.3400822  66.2488699  60.4735374  29.4436717  65.2212667
  39.2627764  76.7689466  57.3456001  38.6029315  76.7474508  58.0386925
  39.9038935  76.1070633  57.6046562   5.8491224  43.8526154  19.5185983
   6.0255677  43.3024502  20.2817631   4.9032831  43.7849236  19.3880713
  46.3278198   1.1554149  15.2299726  46.4559555   0.4107304  15.8175611
  46.5286589   1.9217448  15.7672203  76.7592287  36.0033154  66.4061928
  76.5371799  36.1923647  65.4944992  75.9327984  36.1009145  66.8791819
  46.9392157   5.7688767  41.7893696  47.1366453   4.9843079  42.3009396
  46.2685633   5.4867625  41.1673784  30.5515313  68.0994940  52.4436331
  29.6752429  68.4771729  52.3680878  30.6745720  67.9659319  53.3834505
  59.5481300   1.0815495  57.9057074  59.8340082   0.1982272  57.6727962
  59.3618965   1.0335770  58.8433886  43.2287645  73.7566090  35.0532913
  43.3907747  74.3256569  35.8057308  43.5717344  74.2453480  34.3051338
  57.2094536  69.5939732   9.3613929  56.9432783  69.9255180   8.5038006
  56.7046261  70.1141739   9.9865139  51.2470531  79.2504692  58.9295435
  51.1459017  78.4243250  58.4567976  51.3163614  79.9128914  58.2420635
  48.7249517  75.5037403  46.8625975  49.2033100  76.3296843  46.9348860
  48.0015516  75.5908012  47.4833632  60.9850311  71.4212990  49.3228531
  60.3900290  70.6762314  49.4070244  60.5681562  71.9886541  48.6743498
   3.2091773  62.8102112   6.8886137   2.8418443  62.6044416   7.7482408
   3.6022252  63.6762142   6.9971645  28.8117170   0.3771238  52.4481201
  28.1740570   0.1480025  51.7720079  28.6752343  -0.2738104  53.1365156
  23.2107782  77.0982027  36.8990350  22.4703956  76.6783285  37.3369575
  23.7613010  77.4186420  37.6135063  68.0092812  40.1593637  64.2269802
  68.7566090  40.7470560  64.1158342  68.3948421  39.2835951  64.2514801
  51.8563652  78.3297396  11.6588807  51.9506454  77.9956484  10.7668459
  51.8822145  77.5484180  12.2112453  48.4785795  59.9629688  51.7060232
  49.1413975  60.0770378  52.3871231  48.9542580  60.0902414  50.8851910
  51.9054985  58.5879278  52.0676374  52.6340580  58.2412386  52.5826502
  52.3232555  59.0231323  51.3244629  77.1655560  42.2088337  20.8759665
  76.3622570  41.8126583  21.2135911  77.0163250  42.2871113  19.9337173
   1.4319482  35.8209324  52.1222734   2.0999150  35.3880215  52.6539135
   1.8549250  35.9632301  51.2754726  15.5091679  56.1586523  54.3305206
  14.8629344  56.8196869  54.5788050  15.1742685  55.3438282  54.7048616
  76.1627674  16.1221921  66.5384722  75.2311039  15.9656394  66.6925049
  76.3335848  16.9712019  66.9461918   5.1096696  51.2039995  14.5366085
   5.0917608  51.2001038  15.4936326   4.6199498  50.4210901  14.2847013
  49.1246510  55.3721952  49.6123075  49.7463322  54.6728373  49.4107246
  49.1713619  55.4673290  50.5636215   3.3798146  32.4770427  41.7751408
   3.6713770  33.0692720  41.0819674   3.9695317  31.7257214  41.7120171
  74.1322565  51.7550278   5.3819072  74.7723198  52.1354342   4.7803789
  74.1555166  52.3266792   6.1493075  68.1992340  17.6543343  49.0115643
  68.3738184  17.6163661  49.9519444  68.6732721  18.4297180  48.7110662
  81.6825390  29.0896702  33.1218719  80.8529377  29.5547462  33.2300901
  82.2872066  29.5376754  33.7133908  80.8100796  24.0989590  46.2220812
  81.1767960  23.9194226  47.0878267  79.8698330  24.1926765  46.3749743
  44.6421107  43.7623116  68.5316048  44.7484478  44.7002888  68.6901071
  44.3808826  43.4041482  69.3799626  11.3030970  12.5023520   3.5005870
  12.1058786  11.9957590   3.3775526  11.6044307  13.3587527   3.8039148
   7.9457015  22.6929402  38.4364295   7.6141948  21.8162513  38.2421303
   7.3292303  23.2835054  38.0035019  10.9702361  65.6589937  39.5629597
  11.0350573  64.7102261  39.4540119  11.2818456  66.0173559  38.7318707
   6.1277342  22.9319739  49.4066095   5.8859354  22.6044035  48.5403204
   5.3288233  22.8459477  49.9267769  48.9820910  74.2020893  56.9010830
  49.7870302  73.7089920  57.0597172  48.2930136  73.6702824  57.2993183
  38.8507533  20.5849981   0.6415717  39.0681505  19.9658501   1.3384402
  39.6281910  21.1375666   0.5609933  50.1679897  60.4808521  26.2612915
  49.6985912  61.2974167  26.0906363  50.6708145  60.6554031  27.0568585
  80.7964993  44.1377163  23.0863500  80.4185390  43.3869886  22.6283264
  80.4795170  44.8991060  22.6005125  14.1198349  10.6834972   0.6265751
  14.4182932  11.4932883   0.2125785  14.0057659  10.9138155   1.5486239
  54.0348053  75.4432869  39.7702074  54.4782114  75.9968424  40.4130077
  54.7086191  75.2442741  39.1201305  54.4556665   5.3270465  45.1283360
  53.5651588   4.9804643  45.0726271  54.4460058   6.1033630  44.5684528
  21.8445253   2.5993931  52.4520540  21.6913271   3.5351977  52.5825596
  21.2241650   2.1706313  53.0415821  36.7293501  67.6456356  50.5283260
  36.3100791  67.5275660  51.3806772  37.5431967  67.1456099  50.5904150
  60.1659775  65.6630135  51.8910837  59.3515396  66.0562229  52.2046185
  60.1809645  65.8581257  50.9541035  26.1976004  69.0115595  19.1807771
  27.0575619  69.4318151  19.1899538  26.1257315  68.5943460  20.0392652
  76.3375616  48.9712811  14.7418189  75.8135653  48.2154322  15.0070488
  77.0735264  48.9791298  15.3538048  16.3089252  72.6515865  26.0948515
  16.5796828  72.9788971  26.9526315  15.7595980  73.3480930  25.7351995
   4.5855984  51.0822105  25.8551407   4.6585765  50.2638102  25.3640890
   3.6625621  51.3245535  25.7809424  42.5945330  16.7900479  34.6785474
  41.9332314  16.1358094  34.4529676  43.1795931  16.3391781  35.2873588
  75.1184368   4.0011930  19.7637093  74.3364668   4.3838871  20.1615787
  74.9194098   3.0674821  19.6944118  18.8438118  72.8729582  57.1326971
  18.7452221  72.0194340  56.7107868  19.6995127  73.1871080  56.8406057
  35.3467774  15.7477558  68.1273842  34.5750785  16.2160659  68.4458113
  35.0302076  15.2483916  67.3746204  48.4227705  66.3470268  60.9767628
  48.4489059  66.9752407  60.2550316  47.5081158  66.0678911  61.0183239
  17.5920510  35.1727319  15.5677688  16.6933894  35.4144716  15.3437150
  17.7687633  34.3931913  15.0411570  21.7933464  17.8555191   4.3610910
  22.4054122  18.4143448   4.8399636  21.6593957  18.3063769   3.5274148
   7.8235149   4.6194425  12.4217355   7.3314643   5.2020133  13.0002928
   8.3088958   5.2090043  11.8446267   3.3183005  14.1183269   4.5068538
   2.3895422  14.3480194   4.5365426   3.7275311  14.8371851   4.0251842
  36.5941429  69.9856234  25.1190305  37.2796512  70.6114197  25.3528833
  35.7804942  70.4072237  25.3955436  57.7466345  71.6181326  38.7149310
  57.3816156  72.4994755  38.7938118  58.3306980  71.6676331  37.9581952
  53.9357853  53.6863804  35.8525133  54.5664787  54.3990993  35.7501221
  53.5368776  53.8407326  36.7088318  81.9758034   1.9703250  45.8145237
  82.9051495   2.1962474  45.7756519  81.5469742   2.7713728  46.1156130
  57.7060080  13.8203263  42.7900743  57.1934128  14.1012931  43.5480547
  58.4906292  14.3680227  42.8152084  76.0343599  28.7844658  19.7530913
  75.6842899  29.1208076  20.5780506  76.3589573  29.5606017  19.2964947
  44.1288328  57.9556847  52.4133635  44.6140814  58.7582588  52.6047945
  43.9277697  58.0143785  51.4793587  66.7359924  15.3691769  40.2638817
  66.4178658  16.2297285  40.5367804  66.7605019  15.4149294  39.3080878
  68.2161903  45.1466846   8.7274224  68.9489841  45.7394218   8.8944811
  67.9095602  45.3855181   7.8526831   8.4059846  22.3439884   7.5876039
   7.5610065  21.9793868   7.8508729   8.2333499  23.2758546   7.4532413
  79.9417877  39.9294710  14.8092186  79.6168852  40.4175806  14.0526330
  80.7338428  39.4954991  14.4921315  21.8967867   4.4040754  61.6281939
  22.4901557   5.0557798  61.2547922  22.0116496   3.6310434  61.0755062
  19.8890924  39.7240567  39.4368720  20.7851863  39.7855711  39.7677231
  19.9647009  39.9192882  38.5028481  49.2478704  67.0621061  30.9300542
  48.6817026  67.6808596  30.4687166  49.4937992  66.4200640  30.2640724
  75.0016880  36.5702677  57.3939753  75.9457159  36.6827250  57.2826338
  74.6499681  37.4601746  57.3697376  82.6722622   8.6769080  51.7490816
  83.0943489   7.8341979  51.5820074  81.9969749   8.7445563  51.0740662
  18.1487787  50.4516125  61.7178679  17.7318931  50.6685162  62.5517702
  17.5888252  49.7738409  61.3393068  73.6522245  11.4441037  21.2205362
  73.6992359  11.5958428  22.1644640  74.5263386  11.6644919  20.8986926
   5.6760138  25.4536486  33.1507277   6.0020399  26.1007714  33.7761641
   4.7876889  25.2585244  33.4491181  30.7361484  40.6800270  21.0793424
  30.8839703  41.2881327  21.8036270  31.1938882  41.0753775  20.3374505
  77.4927282  35.9338808  48.8718176  77.6484156  35.0108123  49.0716600
  77.0082045  36.2643051  49.6283197  73.2005644  16.0805595  43.9039564
  72.5716496  15.5408502  43.4249878  74.0360594  15.6255889  43.7982273
  64.9209499  12.4473321  53.7862492  65.1976109  13.3405745  53.9907217
  65.3896809  12.2299433  52.9804802  38.9405847  71.9064760  35.5187249
  39.7563767  71.4607191  35.7467937  38.4328246  71.2485456  35.0438166
  24.0562558  78.8279057  60.0907087  23.9946723  78.5686159  61.0100603
  23.1691670  79.1034126  59.8596144  43.9819956  78.8583803  28.5038686
  44.1054726  77.9930925  28.1136632  43.9444494  78.6931419  29.4459486
  40.0127602  29.3121076  11.0227227  39.4238329  29.0514278  11.7308486
  40.0358057  30.2678633  11.0699725  39.2770982  14.2237985  67.6216698
  38.7970591  14.3908787  66.8105745  39.0398335  13.3276594  67.8601503
  66.6862774  37.9985094  52.3032713  67.3826075  37.4442148  52.6555777
  67.1036959  38.4844232  51.5920162  25.3824973  72.7056551  25.7834530
  24.9553323  72.5765371  26.6302657  25.1058626  71.9544744  25.2586365
  69.4196796  60.8638477  60.7093716  69.2237568  60.1733017  60.0761318
  70.1224184  61.3701439  60.3018761   3.8400543  17.1353328  37.3503256
   3.5065040  18.0129588  37.1639132   3.9089817  16.7179239  36.4916921
  12.7127600  68.7675285   5.9519619  13.5076785  68.2391024   6.0233802
  12.9094923  69.4044971   5.2650833  67.9383516  16.3683391  64.8897600
  67.7785015  16.5297568  63.9599085  68.8673830  16.1428177  64.9374580
  58.9001846  57.0809841  11.1535847  59.6542931  56.5339756  11.3734400
  58.4043789  56.5620375  10.5202615  62.3495340   1.3325204   8.2965702
  63.0109072   0.9852976   7.6980269  62.7946281   2.0421642   8.7597430
   5.3486001  25.8436942  52.9655838   4.7411060  25.3809214  52.3885012
   4.7899735  26.4144492  53.4932280  75.5246449   9.3239176  40.6399298
  75.8505440   9.9148583  41.3187599  75.0668859   8.6350030  41.1216831
  29.5529079  25.7850289  32.3013926  30.3645492  26.2800646  32.1899843
  29.3091941  25.9273410  33.2160425  72.1171188  62.8369856   3.6215568
  72.0757914  63.6703062   3.1524044  72.7094460  63.0039930   4.3546903
  69.2257977  59.3793154  27.7427673  68.6318159  59.0550470  28.4197211
  68.7398148  60.0846863  27.3155642  20.8855510  17.3182154  56.6182518
  20.0575709  17.4636328  56.1605024  20.9149766  18.0052280  57.2841167
  20.9761548  27.1460700   5.5458081  21.6112256  27.5873733   4.9817428
  21.4276481  27.0484042   6.3841683  27.2384429  63.7270546  40.7251835
  27.2628593  63.3011913  39.8682833  26.6279912  63.1977272  41.2383986
  55.8434391  75.4249573  46.3943958  55.2393293  75.7050848  45.7067776
  55.2764034  75.0972939  47.0924902  44.7485399  39.7473049   3.8150024
  43.9240408  40.1830339   4.0308207  44.5151806  39.1172838   3.1332037
  62.7655220  63.0117559  62.2055578  63.1926060  63.8666964  62.1516609
  61.9442272  63.1236887  61.7268324  71.1684084  16.8992424  67.4704742
  70.3787613  16.4806950  67.1276760  70.9214163  17.1954656  68.3465338
  44.9629831  62.2622538  56.9696665  44.4397879  61.4719343  57.1034622
  45.5964994  62.2544146  57.6871824  81.2103844  74.2081404  62.0121336
  80.4453373  74.0778923  62.5724697  81.8905735  74.5264244  62.6056528
  83.2081127  17.2838008  68.0837250  82.9808903  16.3693380  67.9153299
  82.6275444  17.7843320  67.5104523  12.6429272  42.5242329  10.4621589
  12.8352630  42.8843451  11.3279283  13.3073449  41.8477631  10.3311241
  73.0125999  70.7702732  14.3001342  73.1788731  69.8368073  14.4314015
  72.2357273  70.9518719  14.8290217   8.3626509  71.9815254  19.4274902
   8.7524837  72.3691034  20.2111006   8.1631416  72.7293539  18.8642979
  11.8162525  33.3715153  55.0820208  12.7208054  33.4065270  54.7709084
  11.8721092  33.6077857  56.0079193  27.1480417  19.3303883  49.7131300
  26.6169977  18.5766816  49.9703264  27.7257752  18.9937747  49.0281868
  23.4621978  28.8530993  30.9924674  24.2664146  29.3212056  30.7680869
  22.9439545  28.8679981  30.1878357  69.1046619  71.4514542  54.3485165
  69.2963362  70.8604336  53.6203766  69.3980980  70.9765577  55.1260805
  44.5075989  23.8318968   3.6226442  44.5765066  22.9475212   3.2629728
  43.8837433  23.7491965   4.3438882  10.0492060  31.3717628  53.7233067
  10.6026602  32.0108676  54.1721582  10.2451968  30.5401850  54.1549301
  25.2989817  26.9704914  46.3486242  25.1181912  27.6384163  47.0100021
  25.7955718  26.2988186  46.8160439  18.7609673   0.1610878  59.9374437
  18.3196759  -0.0616599  59.1177607  19.6898615   0.1924565  59.7085238
  17.8089118  44.6741343  51.0354853  18.4918153  44.1734695  51.4818144
  18.1222939  44.7565603  50.1348019   7.3929638  13.7163770  50.5046892
   7.9612541  13.7577295  49.7355556   7.9444152  14.0183556  51.2264538
  24.3529081  73.2965279  67.4029016  24.8542905  73.9255333  66.8840551
  24.9201989  73.0933332  68.1466293  56.1928558  72.5661325  49.5447254
  55.5809498  73.1821918  49.1418886  56.6655779  72.1810293  48.8068485
  38.3508897   5.1344764  24.3623376  39.1697121   5.6098062  24.5031381
  37.6691127   5.7409805  24.6514130  21.6016006  28.9115644  54.1187048
  22.3666430  29.3160224  53.7096119  21.6126204  28.0071163  53.8055182
  45.8009386  11.6522908  13.6354446  46.6919374  11.5473092  13.3017814
  45.3749847  12.2309566  13.0030334  25.9410000  12.9636896  37.9757977
  25.3877139  12.8698158  37.2003675  25.7085681  12.2169542  38.5276985
  46.9497732   4.9885580  -0.1655423  46.8203501   5.0445101   0.7812131
  47.6823858   5.5786583  -0.3424251  58.6221218  21.6033411  53.5333729
  59.3201971  21.1088896  53.9628315  57.9944658  20.9372854  53.2529211
  35.7188249  13.3582520  56.2592411  36.3812613  13.6823618  55.6490278
  36.0076594  12.4722552  56.4779091   4.9767977  43.0042219  31.1029100
   5.6242561  43.7080288  31.0618639   4.6495777  43.0319405  32.0020175
  62.6048470  74.7279310  66.1027718  61.6493893  74.6802902  66.1353445
  62.8991461  74.0648508  66.7272329  41.9259119  38.1986403   4.8560637
  41.2368107  38.5639811   4.3011755  41.6661453  37.2874308   4.9918866
  32.9306197  39.0016627   4.3100750  33.0191112  39.7479773   3.7172720
  32.6184368  39.3832064   5.1305622  80.4432011  51.8832684   8.9859176
  79.7648764  51.2856960   8.6712509  81.2463951  51.5768623   8.5649478
  24.3670416  65.3606796   2.2633873  24.3118072  65.7514334   3.1354493
  23.6870170  64.6870422   2.2592647  59.4769573  63.6693001  30.8363271
  60.1676273  63.9660740  31.4288950  59.8998880  63.6247873  29.9787831
  17.4959743  11.7617846  62.4019670  17.3226428  10.8562291  62.6591825
  18.4389830  11.7884314  62.2399330  71.2331772  26.3069820  41.5618324
  70.9741068  25.3914404  41.6662264  72.1817207  26.2748051  41.4374924
  15.4097295  70.3402376  42.8443623  15.4137433  71.2907267  42.7312994
  14.6200562  70.0482035  42.3889875   3.5199621  42.0903921  20.6331325
   3.9319372  42.5714731  21.3508153   2.8494069  41.5550852  21.0574389
  41.3193798  49.3187094  12.2431064  40.5118084  48.9318371  11.9048953
  41.9674063  48.6174536  12.1757793  72.8046417   0.3384586   6.8292993
  73.6709833  -0.0673188   6.8613851  72.9800797   1.2793019   6.8456757
  14.1965008   4.6134439  44.1715050  14.3915451   4.0332785  43.4355688
  14.7697532   5.3685790  44.0396547  77.9824114   4.8138550  12.6661420
  78.5690594   4.5470348  11.9584084  77.3439074   4.1034755  12.7286363
  16.3873458  22.8580523  24.7165608  15.4471684  22.8110123  24.8900151
  16.4548147  22.8625727  23.7617517  62.3707724  48.4339714   5.6802648
  62.2476435  47.5657654   5.2964735  63.0708694  48.8285971   5.1603031
  35.5909705  10.1375949  50.6968451  34.6805382  10.3334427  50.9181738
  36.0956717  10.4788268  51.4351320  15.5588655  -0.0037913   1.8716605
  15.6047801  -0.1814895   2.8111005  16.4465789   0.2649684   1.6350746
  36.8646550  67.9194975  30.8236146  37.7705789  67.8820992  31.1304307
  36.9361305  67.9558468  29.8697782  19.2408228  38.0554032  19.7913909
  19.4846737  37.2606730  19.3168664  18.2896376  38.1078172  19.6979451
  14.6079981  30.8563948  36.3272715  14.5586193  30.5181837  37.2213674
  14.5911014  30.0751829  35.7744122  14.9830258  15.1040006  35.5808091
  14.1369736  14.6689415  35.4752159  15.5661893  14.4180274  35.9057593
  18.0402875  34.0807128  57.5702286  18.3957338  34.7722244  58.1285334
  17.4876392  33.5615706  58.1544447  55.5145407  16.1555874   3.8433757
  56.0775757  15.8369267   3.1379133  55.9367275  16.9613171   4.1413543
  28.8653445  40.1968050  39.2485118  29.4099021  39.5342922  39.6736813
  29.0884876  40.1304245  38.3200550  79.5360422   6.5436172  55.4834938
  80.0303173   7.0894504  54.8719454  78.8650560   7.1274883  55.8371973
  73.8594484  69.1465807  40.7595968  74.0224457  69.7909784  41.4483786
  74.7317743  68.8674402  40.4814625  14.3511152  17.7215612  45.1714849
  15.2391195  17.6659834  45.5244589  14.3022501  18.5947478  44.7823954
  61.5190697  17.8880262  15.6877959  60.6961775  18.1203735  15.2575731
  62.0206404  18.7031770  15.7015562  34.2959046   7.1938670  41.8397903
  34.2650199   6.7287618  42.6758242  33.5607672   6.8381500  41.3405180
  19.9576426  60.3425646  16.4087367  20.3643990  59.4933128  16.2368417
  19.3809640  60.4881191  15.6587458  12.2656405  61.6400766  60.1849699
  13.1748366  61.7904902  59.9261856  11.8661106  61.2202215  59.4231749
  44.7283173   2.3904333  18.4684825  43.9215851   1.8841901  18.5640299
  45.2127314   2.2239684  19.2771006  82.3282623  24.8199344  61.3276148
  82.8142166  25.6427431  61.2722111  82.0085812  24.6702003  60.4378891
  51.2759829  11.6031587  50.6619263  50.7876205  11.2300360  49.9280930
  52.0611000  11.0596216  50.7282162  23.0558062  65.9771872  15.7837749
  23.2430983  66.6960573  15.1801336  23.2154655  65.1853895  15.2701664
  53.8069296   1.7703153  59.1854477  53.5282326   1.1349315  59.8448753
  52.9906988   2.1415293  58.8504887  17.6256478  16.3745654  37.9111028
  18.2622457  17.0835376  38.0023909  17.0978796  16.6228139  37.1521139
  59.3939877  66.6083813   3.9731383  58.7887716  65.9293079   3.6751428
  58.8294983  67.3415327   4.2182299  22.3437452   8.6890090  46.9998264
  23.0983400   8.1004584  47.0205116  21.7309952   8.3151782  47.6330853
  27.0366478  11.3098967   7.4483585  27.1346593  11.6788197   8.3261520
  27.5631118  10.5106378   7.4643141  72.7366352  45.5116796  27.3075247
  72.3814774  45.9944963  28.0538368  73.3941269  46.0983515  26.9336843
  37.4615717  24.7418261  66.6921425  36.8624973  25.1449919  67.3204708
  38.3063674  24.7274256  67.1419668  75.7908916  76.4687681  49.0279198
  75.9396887  76.5964270  48.0910110  75.0396013  77.0266485  49.2293167
  12.0247114  29.8894811  54.7807741  11.8200076  29.1218066  55.3146315
  12.9776490  29.9665952  54.8276138  17.3473823  31.4272928  49.1547251
  16.5557444  30.8978772  49.2509508  17.2063065  31.9248986  48.3492947
  28.6065578   6.9069302  62.3256493  29.4045711   6.5035743  62.6672792
  27.9581070   6.2029511  62.3381090  33.2570338  28.9228201  24.1978741
  34.1490889  28.6649895  23.9655185  33.0157566  29.5723629  23.5374832
  -0.0649446  23.6828446  46.4010811  -0.2019841  24.5657754  46.7444324
   0.8861875  23.5760999  46.3874817  79.2272902  53.5499811  52.6711130
  78.9240789  52.6420832  52.6682949  79.2928982  53.7777138  53.5985088
  13.5400450  11.0793805  38.9416623  13.1384039  11.8888974  38.6260676
  13.5776126  10.5140412  38.1701612   7.5587946   4.4965357  41.0391760
   8.5101217   4.4215226  40.9644651   7.2973460   3.7295836  41.5487432
  50.4923964  77.9100752  36.6594005  50.1020479  77.0840073  36.9448376
  49.7977877  78.3449316  36.1647868  22.6698089  35.8980298  22.5981545
  23.2824516  35.2163649  22.8742599  23.2145858  36.6761923  22.4802041
  23.5393643  27.9125237  24.1593075  24.0897703  27.2988534  23.6727977
  23.8410425  27.8388810  25.0647354  19.4414496  25.8513641  66.7634058
  19.8338461  25.7617831  67.6318693  19.9974489  25.3201389  66.1934090
  28.6332892  67.1162512  -0.0890862  29.2969059  66.5600803   0.3189815
  27.8858712  66.5346434  -0.2281224  82.2640800  17.3737931  65.1369953
  81.9748402  18.0719209  65.7245302  81.6074085  17.3593235  64.4407129
  15.8712184  37.8196955  12.9292214  15.4735208  37.6847339  12.0690739
  16.7872715  38.0231285  12.7402925   6.9304341  29.1903496  22.8310061
   7.8314728  28.8882351  22.7165985   6.5997207  29.3004632  21.9395256
  47.2897768  38.9899349  64.4739676  47.6244926  38.8311338  63.5913706
  47.3890924  38.1501746  64.9224854  81.0901260   7.2647291  37.8705359
  81.6034603   7.8320289  38.4457707  81.7344761   6.8800557  37.2763395
  22.6643443  52.7645397  17.8061080  23.5436916  52.7762079  18.1840575
  22.7494216  53.2516718  16.9865370  19.1060960   7.1673465  38.8396025
  18.8305593   6.8543917  37.9779935  19.9892974   7.5086612  38.6992741
  47.5120878   4.6358964  58.2418728  47.6446533   3.7029907  58.4102345
  48.3465433   4.9350476  57.8807354  23.6749458  19.9562061  51.3407326
  23.0881119  19.5329463  51.9673967  23.1180501  20.1558805  50.5882502
  60.0623178  63.5383129  61.3816452  59.7046804  63.3639526  60.5110550
  59.4462919  64.1569281  61.7741489  63.5634851  37.2233677  29.0480232
  64.0812922  37.0058656  28.2729125  63.0064011  36.4574075  29.1865802
  69.6547937  20.0301409  50.8115339  69.5258379  20.6799984  51.5023947
  70.2757788  20.4404354  50.2096510  50.9015512  71.0186338   0.8792971
  50.7269526  70.5315971   1.6846196  50.2923727  71.7563772   0.9087097
  41.3190508  11.7050815  65.7266665  41.2417746  11.1253226  66.4843845
  40.4824257  11.6155684  65.2702856  56.8684006   3.5580394  26.9889355
  56.9614315   3.2351363  26.0926580  57.3704004   4.3729153  27.0032573
  23.6874247  14.2717183  39.4434071  23.8076878  14.1373444  40.3834677
  24.5112205  13.9805222  39.0525150  26.7468834   6.1232060  25.2571344
  26.6017962   5.3227377  24.7527218  26.6985703   5.8425146  26.1709762
   8.1709009  44.1240740  60.1086998   7.8828526  44.0111923  59.2028713
   7.5860387  43.5627699  60.6177235  26.8433857  23.9681435  66.0390997
  27.7450204  23.7143302  66.2362480  26.6077662  23.4412670  65.2754784
  77.3454666  37.7734971  18.7708414  76.8636417  38.5478735  19.0613937
  76.9832802  37.5761795  17.9070616  74.4071913  61.7264700  41.4062071
  75.3048134  62.0573759  41.3744116  74.0613604  61.8873978  40.5282927
  40.9770250  72.9677534  23.0775762  40.1741123  73.0875015  22.5704026
  41.3750219  72.1772814  22.7129030  74.5037794  63.6342669  58.5512257
  74.7311163  62.9324627  59.1611624  74.6167421  64.4382286  59.0582943
  50.7753706  78.0066967  47.5242281  51.6317463  78.4223032  47.4236059
  50.9274387  77.2912121  48.1416368  16.1679482  11.6527772  42.6399279
  16.2299538  10.9653771  41.9767046  15.7012808  11.2419891  43.3677387
  38.5626936  78.9279222  28.5787487  38.4875417  79.2360115  29.4818902
  38.3168268  79.6844578  28.0463624  55.0642157  68.7854195  45.7045984
  54.4289494  69.2823458  46.2200975  54.9225855  69.0772295  44.8040342
  33.2873821  11.9570482  61.9995594  33.8878417  11.5816307  61.3555527
  32.8643727  11.1990726  62.4030018  17.2338438   0.5230015  62.1453190
  17.8385746   1.1296219  62.5725746  17.6290751   0.3533490  61.2901926
  35.5318785   4.1800469  33.7571526  34.8711443   4.7369221  33.3453846
  35.0970125   3.8259834  34.5328856  29.0194392  18.3808625   9.0997165
  29.4147706  18.3885908   9.9714303  29.0220451  17.4585366   8.8437116
  14.4483864  19.3725348  66.3143921  14.8228216  18.7865257  66.9721365
  13.6951184  19.7713745  66.7499924  21.3012385  34.2853856  40.8862925
  20.7482815  34.4631553  41.6471291  21.5878582  33.3798337  41.0048532
  11.1025047  10.2770543   5.1638788  12.0410252  10.1993346   5.3352571
  11.0342455  10.9814799   4.5193958  36.1917758  52.9079247  13.4268320
  36.2291050  53.3317900  14.2842555  35.5259180  53.3991337  12.9456067
   1.8376426  38.3293819   1.1917911   0.8950615  38.2406116   1.0507499
   1.9977929  37.8870296   2.0254028  57.3625565  20.4314232   3.8295031
  56.4837027  20.7066011   4.0905139  57.2776699  19.4944441   3.6531588
  45.2330828   2.0024100  39.7956038  44.8496962   1.9532138  40.6712914
  44.6731520   1.4430656  39.2572331   3.5765159  19.4484842  64.1479445
   2.6677686  19.6710551  63.9457750   3.7636834  18.6856723  63.6008406
  31.6720796  46.9333172  23.8013601  31.4680052  47.0516062  22.8736782
  32.1437669  47.7294159  24.0462422  17.4963665  64.2550850  49.1796207
  17.0647955  63.4136772  49.0312576  18.0173683  64.3996048  48.3897495
  80.1330566  71.3579750  41.8229198  79.8179388  72.2011852  41.4974594
  79.8373222  71.3267374  42.7327538  68.6506653  41.3622379   0.0252913
  69.4517231  41.8854046  -0.0036738  68.0134773  41.9240808   0.4663764
  71.2245798   3.4920582  29.7207570  71.8501043   3.0139396  30.2651381
  70.7233667   4.0217701  30.3407764  22.4335194  43.1759167  33.9348459
  23.0205178  43.1241798  34.6891594  21.7853427  43.8360023  34.1805887
  21.5496874  53.8028240  53.0292702  22.3048615  53.3388329  52.6678085
  21.8176126  54.7216463  53.0438423  40.8070517  31.0106182  62.7804565
  40.6316757  30.7997537  63.6975193  41.5838051  30.4962206  62.5607252
  32.6327181  13.3282661  -0.0879736  33.2964063  12.9743493   0.5040495
  31.9099903  13.5814106   0.4863231  40.2439499  20.8533978  40.7535505
  40.4780293  20.2425098  40.0547981  40.4508781  20.3837681  41.5615463
  21.2817883  26.6240335  41.5562725  22.1245623  26.2119627  41.7464304
  20.6660676  26.1954737  42.1507931  42.1432066   6.4888090  26.3657522
  43.0808449   6.3154465  26.4495015  41.8821955   6.0173702  25.5746460
  62.2618103  69.7423458  36.9398999  62.2170019  68.9094353  37.4094558
  61.9407845  70.3891182  37.5682783  82.2520065  39.1118073  36.0715318
  82.0656681  38.7514877  36.9385266  81.5358353  39.7255397  35.9082413
   8.2388937  18.4814024  68.1174040   8.9883137  18.1400359  67.6294804
   8.6257899  18.9160895  68.8774014  21.9214272  66.0830116  47.0101500
  21.1358809  65.5696726  46.8214035  22.5194311  65.4617405  47.4256611
  65.9668159  39.4195080  17.2987831  65.2232265  39.5763946  17.8807569
  65.6842613  39.7630596  16.4512157  82.5164604  36.4476180  67.7551556
  82.1221733  36.8737102  66.9940901  82.1279716  35.5728912  67.7679253
  25.9596491  26.8032646  54.9203300  25.5851650  27.6059198  54.5573711
  26.9030452  26.9645572  54.9353027  13.8644767  31.9002414  51.5364647
  13.5120428  32.1951246  50.6967831  13.3159959  31.1537266  51.7775440
  23.7841392  20.9920216  37.5792813  24.0029383  20.7407761  38.4766316
  23.4558010  21.8879771  37.6547098  36.1151552   9.1576898  11.5200520
  36.1047697  10.0896657  11.3020015  36.8382764   9.0648705  12.1403027
  17.1495593   0.6199470  18.3905447  17.5594473   1.4763559  18.5121489
  17.8414690   0.0741421  18.0169261   1.6524483  37.2662187  67.8278542
   1.0500127  37.9831290  67.6294994   1.2964255  36.8668628  68.6215734
  26.4696908  48.5973072   2.2271089  27.2710776  48.9387178   1.8303064
  26.6448140  48.6083841   3.1680879  35.3774738   7.8037596  38.4056664
  35.4672766   6.8693161  38.5927010  35.2274323   8.2059306  39.2612219
  43.6562681  78.6182642   3.3046550  42.8791952  79.1278458   3.0750626
  43.3355951  77.9544210   3.9151567  15.8731425  52.2747374  48.1146431
  16.5121281  52.7530575  48.6429787  16.0562181  51.3525248  48.2942009
  72.5150967  44.3600130  57.2332621  71.9290590  43.6480284  57.4899101
  72.4182701  44.4191027  56.2828064  15.0753009   8.1114948  53.5614109
  14.9835551   8.3053750  52.6285553  14.1780424   8.1085426  53.8948059
  34.4435191   3.6200699  18.5963488  34.9629879   3.2331166  19.3010843
  33.9286542   4.3033037  19.0256941   4.8350337  33.9621186  35.3682756
   4.0578401  34.5110583  35.2640414   4.8031971  33.6725354  36.2800670
  13.6988127  22.7518988   8.3160383  13.8038707  22.0897627   8.9992452
  13.3693635  22.2658610   7.5600863  78.1715155  32.0489001  23.3374834
  78.9505100  32.4081254  23.7621737  78.2644987  31.1006498  23.4291816
  68.5355568  61.3939238  10.0936043  68.4772539  60.6609106  10.7064068
  69.4153500  61.7471266  10.2256823  79.9362326  53.7297869  22.2680902
  80.8142185  53.4751892  21.9842792  79.5545530  52.9245138  22.6175094
  40.2055264  26.7774844  20.0391626  40.2846622  27.3057079  19.2448378
  40.5904961  27.3203540  20.7271457  19.7337449  45.6543636   3.3142579
  19.4752574  46.2774420   2.6351491  19.0312052  45.7016754   3.9626646
  73.9300489   6.0970783   1.6979448  72.9811573   6.0149908   1.7933331
  74.0472317   6.8223625   1.0843800  42.4311209  24.6082950  12.8169608
  41.8393993  24.2204928  12.1722066  43.1111479  25.0322461  12.2934508
   2.2174415  44.7670937  63.1031847   2.5833541  44.0596724  63.6341190
   2.6485458  45.5577087  63.4276915  80.8586693  25.8261919  63.5735083
  81.1206532  25.5529952  62.6943254  81.6644287  26.1547923  63.9722633
  70.8780146  12.7987349  56.1006117  69.9283695  12.7719903  55.9836292
  71.0007572  13.1428707  56.9853354  51.7937756  46.3881063   9.6109283
  51.1688709  45.7446289   9.2767692  52.2231913  45.9467936  10.3437865
  82.7123165  32.8918314  35.7974172  83.6073875  33.2092690  35.9170508
  82.2152424  33.3051395  36.5033412  83.5685464  29.6538566  68.6035965
  84.0033122  28.8014338  68.6277014  82.7612945  29.5251677  69.1016047
  10.2463531  24.8153687  62.3151207  10.7864130  25.6007195  62.4033928
  10.6118238  24.3571925  61.5583229   4.5587233  28.3965397  37.3857951
   4.6457073  29.3031406  37.6803136   4.5364964  27.8833961  38.1935191
  76.9536972  48.6309767  30.8695197  76.5084362  48.2503891  31.6265726
  76.5563917  48.1966877  30.1146841  55.3965616  60.1660776   5.0650227
  55.2851248  59.3098068   4.6519595  55.3082228  59.9931622   6.0023218
  68.8822317  24.3211555  10.9404671  68.2340431  24.9485350  10.6203520
  69.1727018  23.8556385  10.1561487  82.9755974  28.4827113  42.5357533
  83.1754589  27.5545287  42.6572514  82.3907280  28.6988378  43.2620096
  78.0955124  73.5616732  64.7651482  77.5447130  74.0909672  65.3419495
  78.5038519  72.9200649  65.3463745  68.5759592  57.4628830  33.4361243
  67.8434229  57.9134464  33.8563824  69.3172693  57.6118088  34.0230775
  37.3195791  58.9441347   2.6403633  37.3920417  59.3046045   1.7565967
  37.7363396  58.0843210   2.5832492   7.2657412  40.8239365  67.2704983
   7.2768289  41.2799978  66.4289999   7.6976091  39.9878192  67.0954847
  68.7180996  67.7014875   2.8486088  68.1168938  66.9666815   2.9704300
  69.5633602  67.3726368   3.1546026   4.9098223  44.7618198  53.3689785
   5.5656701  44.3450594  52.8100443   4.4937453  44.0351677  53.8327503
  25.8448601  28.1465125  43.8630390  26.5359497  28.6493373  44.2940760
  25.6040215  27.4747324  44.5009565   7.6829046  46.0514498  55.6103373
   7.4264288  46.5268660  56.4005470   7.1039927  46.3911724  54.9279308
  30.9287453   9.4546312  49.3484402  30.6265402   8.8430130  48.6770058
  30.6037807   9.0875256  50.1705503  28.8607359  49.4596243   1.2087874
  28.6409092  50.3214264   1.5626363  29.4646883  49.6431112   0.4891999
  77.6096344  53.8323402  55.2825165  76.8318653  53.8534069  54.7249603
  77.9782295  54.7129679  55.2127981  80.0871277  27.9332209  36.4628601
  79.2063189  28.1885362  36.1885881  80.5198574  28.7594271  36.6781592
  30.9179926  63.5958862   2.0928594  31.7639208  64.0385914   2.0246771
  30.4362822  63.8787699   1.3155785  81.5179634  14.4260025   5.5209035
  80.8877182  14.9815810   5.9795523  82.1081734  14.1158986   6.2077159
  31.5405178  56.9101572   0.4455387  31.5319324  57.4983597   1.2006375
  32.4265718  56.9874859   0.0917573  13.8234830   2.1927290  39.7528434
  14.1521466   1.3980423  40.1731825  13.3251059   1.8765149  38.9992785
  29.2817640  18.3591330  31.3857269  30.1428533  18.5592782  31.0187125
  29.3593669  17.4588633  31.7015147  14.7878885  15.3374696  41.4695597
  15.6779289  14.9919474  41.4011908  14.8684025  16.2578845  41.2193918
  81.5394974  41.0323524  55.2643871  81.7529488  41.9499350  55.4338360
  81.1905861  41.0282660  54.3730497   1.9558369  57.6459551  11.5755403
   1.4956243  58.1984568  10.9437346   2.6891857  57.2780561  11.0825074
  20.1904440  47.8107882  53.4047556  20.7013345  47.3010683  52.7759409
  19.7230244  47.1545267  53.9215517   1.1941765   9.5552373  28.7236094
   1.7936783   9.3097693  29.4282913   0.5624710   8.8370937  28.6855316
  24.7868133   6.0654259  44.2474222  25.1471424   6.7314517  43.6619282
  25.1955819   6.2444711  45.0942278  15.9122849  46.9823360  28.0514646
  15.5633819  47.3072433  28.8814855  16.3083744  47.7509499  27.6408839
  51.2004471  14.4624090  41.5860415  50.3147459  14.1036189  41.6411495
  51.7734957  13.7061989  41.7124987  75.2622223  28.4225368  43.9095354
  75.9670067  28.0590463  43.3734512  75.4495907  28.1107640  44.7949266
  10.3341758  38.8778782  24.1449738   9.6946776  38.3015609  23.7264848
  10.4401708  39.6041942  23.5305977  35.9406352  33.4526157  36.0308480
  35.6999302  33.0550194  35.1940632  36.6836905  34.0187573  35.8220816
  43.5073900   2.3972790  35.9076118  44.1619635   2.7991539  35.3364158
  42.7126598   2.3643950  35.3751087   8.8715112  53.4427786  12.6133859
   8.0880207  52.8958321  12.6701617   9.4671834  53.0765057  13.2670307
  56.5936661  33.7862015  50.4781437  55.9358931  33.8583684  51.1697769
  56.3119984  33.0341554  49.9572611  68.8045025  63.6709690   7.2507232
  68.6173487  64.5134211   7.6648241  67.9913998  63.4386444   6.8022531
   7.2353894  10.1832330  50.8962917   7.3712552  10.3143966  51.8346739
   7.6084620  10.9648502  50.4887104  71.8105364  18.5818505  64.7992849
  71.2319040  18.8378966  65.5175161  71.2276316  18.1852353  64.1518688
  72.9951906  50.6496334  51.8968725  73.4205723  51.3358545  51.3826895
  73.2810497  49.8324251  51.4885998  30.5006671  38.2672787  22.5450420
  30.4952836  39.1029644  22.0783162  31.4236093  38.0151701  22.5742030
  71.5402174  30.9855676  15.8200181  71.4740705  31.2574220  14.9046206
  71.9206285  30.1080132  15.7823646  79.4768000  28.1614494  43.3070898
  79.9310493  27.4305201  42.8880072  80.1535988  28.6001730  43.8225508
  17.3274767   0.8708397  36.1029220  17.4680853   1.6601905  36.6257858
  17.7823496   1.0451674  35.2789497  57.2136354  75.3144836   8.4709364
  57.2484541  74.4983101   7.9720575  56.6274118  75.8786249   7.9666382
  81.5863228   6.8899310   3.8500169  81.3205910   7.2956765   3.0247974
  81.4574432   5.9521061   3.7082261  24.2855024  19.9862969  22.8642273
  23.7600994  20.7126856  23.1997037  25.1794887  20.1905870  23.1386113
  64.7619677   9.2807698  53.9674091  64.8538685  10.0304937  53.3794451
  65.5482721   8.7572914  53.8127375  20.7789397   9.0018862  44.7038889
  21.5441179   8.6575681  44.2432594  21.0858297   9.1539806  45.5977106
  35.2216935  52.8986549   1.5698646  35.6136274  52.1795321   2.0653304
  35.3834438  53.6749792   2.1059519  81.8091869  37.3232460  45.5369902
  82.0704174  36.8276215  44.7608805  81.0717678  37.8579092  45.2427387
  78.7027264  75.5247164  48.9303112  77.8982687  75.1654768  49.3045187
  78.4585905  75.7841444  48.0418730  63.5980606  35.1633453   2.2274369
  64.0572453  35.9034896   2.6243812  64.1058350  34.3964314   2.4924731
  66.1255932   0.3946254  18.7161255  66.5892506   0.9113902  18.0571818
  66.8133640   0.0861819  19.3060970  22.1744895  49.8205137  16.1593258
  22.7987719  50.4595900  15.8156991  21.9899130  50.1206207  17.0493245
  78.1334925  17.0249391   8.0755448  78.8259649  17.4971867   7.6132703
  78.4761286  16.1370182   8.1776637  76.8411922  49.6033049  34.3254161
  77.3726368  49.2642450  35.0457215  77.4472809  50.1363373  33.8108659
  77.0861197  27.0585322  60.7228136  76.4708185  27.4455929  60.1000643
  76.5808105  26.3777018  61.1670685  62.6770067  42.6678038   5.5728519
  63.4304857  42.2527409   5.1530671  61.9193077  42.2005749   5.2209586
  35.9968472   2.7619228  12.0673752  36.7749763   2.9980353  12.5723505
  35.4361367   3.5362187  12.1153450  79.5184898  20.2474928  52.5095034
  79.1459274  19.5179248  52.0143700  80.2524090  19.8621237  52.9881287
  32.7209783  32.7390480  54.6492958  31.9173908  32.4266863  54.2334700
  32.7023506  32.3543692  55.5255985  82.8178883  44.6272707  40.0063705
  83.1037045  45.0913668  39.2195058  82.0602703  45.1239491  40.3154898
  63.2185650  36.9027519   8.9944571  64.0611172  36.4485836   9.0027541
  62.7879238  36.6233993   9.8023808  43.5455322   6.0537219   1.7946851
  43.0843544   6.5172732   1.0956399  43.5059929   5.1324743   1.5378350
  10.6046784  79.5896626  10.8376408  10.2859402  79.0419531  11.5550339
  11.5470064  79.4238472  10.8101499  26.3285851   1.9525556  61.3750887
  25.9052753   1.3901275  60.7264614  25.7370043   2.6994252  61.4670086
  77.8042221  25.7628489  24.7637415  78.6298513  25.6562424  24.2913032
  77.1907234  26.0861111  24.1039252   0.7160649  78.3078909  55.1454782
   0.4790493  77.4298716  55.4440451   0.8757325  78.7997913  55.9509420
  19.5786798  35.2294588  42.7054930  19.8675132  36.1355424  42.5967693
  18.7374163  35.1900196  42.2505760  10.4433727  39.6456671  35.8720064
   9.8505968  40.3471231  36.1418414  10.2204883  39.4830704  34.9554276
  18.5949790  68.8766289   0.8199458  18.5821176  69.2727900  -0.0513301
  18.2227111  68.0041361   0.6918576  28.2022429  27.6331162  54.0806913
  28.2247925  28.5898256  54.0598917  28.2361269  27.3726749  53.1602240
  16.5606141  32.5315809  46.6834068  15.7278502  32.9323411  46.9326591
  16.3393486  31.9541717  45.9527397  30.8978724  33.5817552  39.5391226
  30.8599687  32.7076316  39.1509151  30.2362514  33.5655999  40.2306652
  38.6121464  14.2729735  58.1208658  38.0704761  14.7671521  57.5055552
  38.5941029  13.3754945  57.7885485  18.8818073  27.8105736  49.3861103
  18.4519887  28.2873297  50.0961781  19.5044124  28.4380269  49.0188265
  16.5982056  34.8417521  38.5061550  16.9981778  35.4469132  37.8816271
  17.3145270  34.5917845  39.0897918   9.7627717  40.2381802  48.4369659
   8.9842981  40.3586578  48.9807415  10.3472197  40.9513092  48.6940527
  20.7749462  34.6522021  36.3919687  21.6777992  34.3656564  36.5297365
  20.8030868  35.6008458  36.5165424  21.7160177   0.0322383  25.7608414
  22.2224998   0.3458647  26.5100741  20.8469605  -0.1496308  26.1184621
  72.2488308  75.8584833  23.5345912  72.7680159  75.1046896  23.2544684
  71.4154339  75.4830360  23.8187099  11.4384449  19.8680627  58.6791515
  12.0366228  20.1557755  59.3688154  10.9947729  19.1051710  59.0498066
  74.0704966   8.0871910  49.5462036  74.3659210   7.5452858  50.2778435
  73.2217121   7.7180731  49.3021822  29.5101547  37.1925879  67.1665382
  29.2637634  38.0947590  66.9625616  29.0606952  36.6662216  66.5053606
  23.5267544  38.6261725  47.6121044  23.0441427  39.4408178  47.7523565
  23.5589910  38.5276723  46.6605330  79.0695572  43.1110907  52.4939489
  78.7528515  43.0481052  53.3950377  79.8103094  42.5059509  52.4575806
  46.8094158  28.6126924  52.0277834  46.8874598  28.0671763  51.2451267
  47.6928711  28.9514160  52.1727133   4.8531914  24.5863891   3.2249361
   5.0788677  24.9020982   4.0999389   4.9125651  25.3623533   2.6676354
  74.5686007  62.0935011  18.9007986  74.5053816  62.4731112  19.7772300
  73.7034893  62.2339630  18.5159743  39.2655420  31.6928554  47.4543333
  38.7231493  32.0682788  48.1479454  39.8601198  31.0976624  47.9109001
  52.4350691  15.7720947  31.7590237  52.1967506  16.5327775  31.2291193
  53.0339050  15.2720046  31.2044668  48.3443165  31.5618348  49.6414757
  47.7907562  30.9096670  49.2119646  49.0185118  31.0481739  50.0862694
  77.1729469  76.7175674  17.9893494  76.7453384  75.8627367  18.0407524
  76.5201283  77.3324442  18.3239937  72.6346731  13.4455705   0.1706119
  73.1293631  13.7812531   0.9181622  73.2522249  13.4794497  -0.5599463
  47.5822735   7.9575682  33.0291605  48.2259655   7.8504759  32.3288584
  47.1766567   8.8066733  32.8538609   9.6376002  15.2317417  27.1590686
  10.2179122  15.8875263  27.5456119   9.1140395  14.9122787  27.8939557
  12.0647526  67.3363543  25.1746416  12.7651262  66.6899395  25.2633023
  12.4602413  68.0510855  24.6756625  74.9046421  77.0129681  28.5427451
  74.9191332  76.9678116  29.4987679  74.3957281  76.2479258  28.2745123
  46.8483067   6.2746012  48.8696337  46.0160542   6.5670097  48.4980392
  47.3147440   7.0838833  49.0787554  75.9553242  74.9943352  12.5004232
  76.2100077  74.7633982  13.3937514  75.2131367  74.4215345  12.3073077
  80.8062553  40.5965662  17.2978270  80.5942822  39.8136234  17.8060544
  80.4650784  40.4135180  16.4224291  51.5618324  11.3436317  68.1322670
  51.5620470  11.1336577  67.1983814  52.0065689  12.1894276  68.1876945
  14.9777651  46.8250275  48.4895897  14.9234426  47.3882341  47.7175283
  15.6895888  46.2162304  48.2923412   2.9468122  40.7984829   0.4607246
   3.3624810  41.2142324   1.2161082   2.7199921  39.9199319   0.7655735
   5.4474926  40.1533747  57.4364614   6.0875958  40.5590820  56.8517399
   4.6627232  40.0505781  56.8981314  12.0284522  48.1343699  41.6124392
  12.3884654  47.4980545  40.9945965  12.6936197  48.2063293  42.2969866
  20.2168155  35.0731087  54.8662233  21.0985851  35.0032616  55.2320623
  19.6356606  34.9497318  55.6167364  34.1839457  33.6618543  41.1366367
  34.6072030  34.2553306  40.5162573  34.2369318  32.8018808  40.7196569
  76.4362288  32.4430776  66.2917185  76.8154621  32.2003698  65.4470253
  75.7063484  33.0210662  66.0693741   5.2066094  45.6672573  50.4222584
   5.4610562  46.4610052  50.8928490   5.7560515  44.9794579  50.7981205
   3.4788889  27.7272844  68.4869719   3.6558235  27.4625492  67.5842857
   3.8525283  27.0254946  69.0199995  80.0603676  10.0719845  40.5420017
  80.6744003  10.5445921  41.1040020  79.4048691  10.7262194  40.3000784
  52.1631575  67.8587532   2.1199730  51.6350126  67.0638180   2.0466374
  51.5508842  68.5251713   2.4318145   9.0384048  36.9134927  50.1760912
   9.8903131  36.4979815  50.3096390   8.5546410  36.7324138  50.9819508
  25.0285363  24.9572134  26.4563680  24.7107697  24.0628004  26.3327456
  25.9708667  24.9006200  26.2981248  -0.2687498  65.3425407  57.7187395
   0.4772906  64.9581289  58.1790400   0.0288538  66.2173223  57.4688911
  47.7066755  77.1747923   8.8787925  48.2304096  76.3971043   8.6860895
  46.8810034  76.8294334   9.2182291   1.3005863  30.5803370  66.4378119
   0.7406314  30.7761502  67.1890402   2.1460569  30.3498745  66.8229055
  38.2952833  20.7368755  45.7070589  38.4076595  20.3215337  46.5620995
  37.4706435  20.3820467  45.3749514  13.4798419  41.5213680  31.0710597
  14.4231892  41.5028620  31.2322569  13.3447719  40.8876514  30.3665113
  23.7433004  63.3749628   5.0506228  23.1439495  62.8953266   4.4788158
  23.7522316  62.8713846   5.8646023  13.0783117  63.4882021  35.8126235
  12.8104055  62.7660942  35.2442765  14.0175390  63.5822630  35.6537628
  49.2721891  50.5472660  31.1762619  48.5717344  50.5726337  30.5243802
  49.2869282  51.4298582  31.5464592  16.7629063  28.0865860  58.0944014
  17.5011981  27.8274274  58.6457586  16.7904675  29.0433836  58.0914164
  24.5092082  42.9106998  36.4647818  24.2875314  43.8341999  36.5841174
  25.3795838  42.9228210  36.0666251  24.5448041  27.3335242  16.5253925
  25.4749703  27.5349712  16.4231968  24.4047999  27.3222518  17.4722314
  31.1990738  27.0756769  14.2253447  31.1869097  26.1749887  13.9015496
  32.0126176  27.1393657  14.7256672  22.3448682  29.1533947  33.4284186
  23.2449007  29.0498686  33.7373757  22.4151683  29.1310024  32.4740672
   6.9223607  25.3856087  28.8101339   6.3763130  24.8213863  28.2626700
   6.9651991  24.9331045  29.6525335  49.7494125   8.1580174  31.3873434
  49.4708872   8.6659640  30.6253409  50.0988007   7.3463452  31.0194445
  14.3885660  21.3431430  10.7025635  15.2161252  20.8718371  10.7987332
  13.7339926  20.6554127  10.5809486  11.0915112  34.7177958  64.7858620
  11.8688226  35.2707982  64.7070837  10.6165683  34.8540211  63.9660406
  19.2860436  29.0719748  29.7994304  19.6662116  28.1958485  29.8635316
  20.0413561  29.6591997  29.7694230  40.0406599  18.7477410  43.1546736
  40.4574156  17.8872681  43.1084967  40.4992342  19.1982222  43.8639021
  43.6307573  13.0340850  67.1451759  43.6146641  13.9910614  67.1581554
  42.7878332  12.7854884  66.7658186  12.5958765  52.5819635  48.1422853
  12.9207742  52.7722073  47.2622395  13.2770824  52.0372009  48.5365248
  70.1903915  11.5461707  65.7880831  70.0056648  11.4901650  66.7256165
  70.9938669  11.0391366  65.6715679  55.5369806  13.0079699  33.3792782
  55.1364517  13.7066889  33.8965797  54.9964285  12.2382975  33.5571623
  11.4355302  25.2396464  56.8750668  11.9461095  24.4493484  56.6990852
  10.5600798  25.0376725  56.5448761  82.7544403  14.1422987  44.1277790
  83.0270767  13.2248509  44.1141081  81.8103790  14.1139579  43.9722395
  34.2353034  31.1238718  22.4807858  34.7904658  31.0838056  21.7020559
  33.3414435  31.1016607  22.1390939  14.5046413  58.3617640  33.0267477
  13.6409318  58.2240629  33.4156895  14.3217432  58.7167168  32.1568108
  29.7815824   6.5880138  15.6295347  30.4354191   6.0505688  15.1824522
  29.3421125   5.9829307  16.2270057   0.9733056  11.2609208  41.4166927
   0.3407825  10.5876637  41.6674328   0.4415902  12.0395970  41.2518454
  44.4120312  21.8603253  40.5647898  43.7553835  21.6565919  41.2307787
  43.9881659  21.6401482  39.7352767  80.9710979  14.6011376  17.9576147
  80.1951790  14.6536016  17.3995531  81.0347080  15.4666841  18.3613658
  59.9924278  12.8801441   4.1298482  59.5081425  12.3299396   3.5142365
  60.7159328  13.2366872   3.6144382  29.8472810   6.0139239  59.7323418
  28.9601660   5.7784343  59.4606733  29.7484398   6.8630755  60.1629305
  30.9474015   8.1729048  27.9243517  30.4684520   7.3496372  27.8291249
  31.1554050   8.4341353  27.0272875  58.4569931  34.1354275  47.0586157
  58.5138226  34.5928097  47.8975439  59.0676737  34.6031785  46.4889526
   9.1246992  30.2975225  44.4630241   8.6580920  29.4666028  44.5529270
   8.4887868  30.8866048  44.0570307  16.6226745  25.5040431  29.5366335
  16.1458039  25.7327819  30.3344464  16.9726384  26.3367033  29.2197227
  69.2056942  65.9968901  18.7181795  69.2579746  65.5990267  17.8491557
  70.0933933  66.3098907  18.8920987  13.0794370  22.7189684  57.5456047
  12.3664379  22.1143007  57.3400784  13.7187207  22.5819325  56.8464851
  37.8424311  27.1206498  35.2985072  38.4706712  27.3383498  34.6099186
  37.0412755  27.5793242  35.0455213  49.4445992   7.8990906  36.9662166
  48.6561680   7.8322470  36.4275670  50.1659536   7.7540267  36.3539791
  29.2493868  11.8159604  36.2801385  28.5413599  11.1972332  36.1009574
  29.6562552  11.4885926  37.0823359  50.3806543  14.1376030  67.5019979
  50.5193615  14.9210918  68.0341005  50.8869505  14.2964125  66.7053270
  71.8052673  72.1908140  58.7862206  72.7320004  72.4189568  58.7130833
  71.7875004  71.2362099  58.7180233   0.5189570  38.3313727  12.3908913
   0.9975119  38.9662099  11.8577898   1.1990305  37.7692318  12.7620125
  14.8822343  42.4659586  40.1009274  15.4264724  42.0236540  39.4494677
  14.6840072  41.7883635  40.7472992  19.6951163  34.9248385  60.2680111
  19.4807899  35.7209182  59.7816420  20.5657649  35.0918078  60.6290102
  23.9583087  33.6880660  54.7640944  23.3248258  33.9478636  55.4330015
  23.5435414  32.9518056  54.3145132   5.2259010   1.2178127  25.5435443
   5.7758957   0.6342627  26.0662365   4.5876363   0.6375228  25.1286793
  81.4124203  56.9806814  65.6461525  81.2939262  56.0476732  65.4681396
  81.1255550  57.4160004  64.8433876  21.7615724  41.9395971   3.8489670
  21.9588923  41.6802359   4.7489822  21.9885468  42.8687716   3.8122401
  72.9308605  46.3253832  59.2836523  72.7797890  45.6894398  58.5843801
  72.3792124  47.0723486  59.0513659   1.0248766   2.6729172  20.6119394
   0.9178481   2.8710991  19.6816170   1.5642565   3.3883715  20.9487295
  17.8566158  31.3445592  23.6696243  17.6920414  32.0165372  23.0081153
  18.3690238  31.7918730  24.3431067   7.0290351  41.6506290   9.9443138
   6.2085426  41.1597490   9.9896646   7.0230871  42.2000217  10.7281291
  19.3877351  29.4545150  22.4638438  18.7992406  30.0318670  22.9502273
  19.9018157  29.0122986  23.1394172  33.3390951  34.7903705  52.8817177
  33.1234694  34.1456032  53.5555220  33.8240504  35.4711819  53.3481312
  31.2596011  67.7758312  62.4751711  31.1120224  66.8317080  62.4196196
  31.0855222  67.9919672  63.3912563  59.6492577  23.4366083   8.8191116
  59.2077112  22.5896430   8.8817298  59.3355894  23.9269924   9.5789582
  56.3557243  77.6619434  64.8279572  55.7057810  77.5059366  65.5131340
  56.0702229  78.4729099  64.4071817   6.4319289  39.9961567  20.5259538
   6.1626363  39.7561097  19.6393347   7.3391593  39.6976781  20.5897903
  27.8173614  39.0407801  12.2347558  28.3523130  39.2705512  12.9945338
  27.7586222  39.8514581  11.7292023  14.0919995  71.3231182  34.5012212
  13.8601506  70.4244566  34.2669415  14.1392004  71.7843676  33.6638141
   5.6611168  33.4824848  65.5788898   5.7677227  32.5568366  65.7980824
   6.5480304  33.7867236  65.3863955  22.9288673  36.9327641   8.5419965
  23.0974150  36.2230301   7.9222381  23.3203673  37.7050734   8.1339562
  41.8713474  30.8898616  31.4457440  42.4266720  31.2507200  30.7546377
  42.0616817  31.4302278  32.2125602  63.2633924  13.8990414   4.8310179
  63.7188721  14.1601479   4.0306491  63.1538773  14.7139978   5.3210026
  33.9809108  38.1670761  38.5520530  33.3595061  37.6733136  39.0871119
  33.4322166  38.7291479  38.0050254  76.9258404  70.6574297  17.3344469
  76.2643480  71.3455868  17.2630489  76.8419361  70.1592684  16.5214109
  15.4455984  67.5885248  21.2225938  15.9738767  67.1218443  20.5750084
  14.6556926  67.0560217  21.3159847  83.0815983  69.8676729  21.3188100
  82.5444984  69.2020798  21.7486262  83.2406044  69.5177126  20.4421830
  68.7283087  70.5781031   8.7168556  69.4081306  70.0130129   8.3497787
  68.3833075  70.0851727   9.4613177  17.8574574  18.1983292  32.6950836
  16.9309115  18.3518338  32.5102043  18.2820427  19.0339983  32.5011373
  41.2633753   1.2316938   6.1402345  41.6982889   1.7966798   6.7788839
  40.5246496   0.8545180   6.6179925  34.8011088  69.1554356  55.1606321
  34.0290928  69.5862341  55.5275583  35.2192092  68.7333012  55.9111166
  12.8755772  31.9449306  49.0230274  13.2062769  32.6561952  48.4744215
  12.2724390  31.4651608  48.4553337   8.8753688  22.2261739  57.3167324
   8.4109765  23.0610085  57.2565413   9.5020783  22.2480369  56.5935516
   4.8619884  58.9634037  20.6319690   5.7330555  59.3577147  20.5873179
   4.7199929  58.5968351  19.7592151  77.8045607  35.2800941  12.2024107
  77.9631519  34.4372129  12.6274157  78.6139250  35.7727909  12.3380899
   3.5078484  73.5746336  41.6401100   2.9078162  73.5912609  42.3857069
   4.1029024  74.3081903  41.7951441  26.9899583  57.9173183  32.2568035
  26.3185477  58.5977411  32.2071862  27.1141672  57.6368237  31.3500905
  24.7011065  29.7658801  37.8301120  24.0366554  29.3671489  37.2681952
  24.7267389  29.2053127  38.6055732  79.5639277  33.0055141  49.4415283
  79.8428488  32.6857686  48.5835075  80.0965214  33.7867427  49.5907307
  34.1975784  56.2983847  27.5138092  34.8573565  56.6897488  28.0863118
  34.2590070  55.3586197  27.6849818  31.8948889  40.9833527  32.0971608
  31.8246651  41.9351530  32.0238280  32.6450729  40.8423281  32.6747131
  42.2936583  15.9111488  52.0656300  42.7648354  15.1597452  51.7056036
  42.7998400  16.1636972  52.8377914  29.4010997  19.0521026  59.7798443
  30.2785754  18.8357997  59.4644356  29.4736648  19.0156460  60.7335901
  56.4046526  15.1774383  39.9763012  56.4663792  14.8686683  39.0723753
  56.5537214  16.1211443  39.9177504  21.4329123  62.0821095   3.8332489
  21.1788774  61.1934710   3.5842088  20.9145808  62.2689199   4.6159786
  79.5556784  36.8981409  40.4059887  80.1002121  36.1160016  40.4953003
  79.8459244  37.2998238  39.5870638  17.9848528  62.9064941  14.6736598
  18.3030772  63.8086414  14.7066474  17.2264254  62.9412079  14.0907240
  21.0604191  34.5258260  48.9037609  21.4567280  34.8037267  49.7295570
  20.1195216  34.6366072  49.0404034  24.9956894  55.8894730  16.1748874
  24.9724722  55.9429455  17.1303105  24.0970612  55.6742477  15.9251380
  27.0088053  29.5534897  36.0787177  26.2491488  29.5244932  36.6603637
  26.9878602  30.4327798  35.7010365  31.0359931  35.8307576  33.4300756
  30.8870602  36.6761327  33.8536191  31.7385793  35.9980655  32.8018951
  12.5584090  34.2225981  27.8474021  13.0559134  34.6240425  28.5598350
  12.4156260  34.9347901  27.2240019  79.4209433  53.0329180  43.2994699
  79.0389919  52.5898790  44.0571404  78.7056923  53.5613108  42.9452848
  61.0247469  43.2565308  11.1874878  60.9505033  44.0574646  10.6686163
  61.1454010  43.5635853  12.0860374  20.2859020  44.8513842  34.8925161
  19.7371161  45.3962421  35.4566073  20.4971766  45.4144144  34.1478062
  82.7306938  42.9932594  27.8891945  83.0468273  42.9455042  26.9869685
  81.9731331  42.4084997  27.9088116  82.9399395  44.3045807  18.6169565
  83.2546043  45.0247908  19.1633236  82.1690655  44.6591425  18.1739342
   7.5000447  46.0308075   2.7503401   8.2685041  46.4875221   2.4081227
   7.8303140  45.5340385   3.4989208  17.6006556  37.7254772  24.7129250
  18.3134973  37.7825022  24.0766549  17.1441686  38.5633755  24.6369195
   9.2848045  19.7539008  33.7378645   9.6419829  19.1669559  34.4043112
   8.3356321  19.6761572  33.8340950  11.6884279  21.7817211  29.8585200
  10.8493471  21.9747186  29.4402790  11.4903295  21.0824490  30.4814219
  79.5433092  39.6864653  41.6518879  79.2376280  38.8798451  41.2369728
  79.4503641  40.3550243  40.9731960  25.7676172  20.0622416  42.7984190
  26.0932422  19.6407747  43.5937548  26.4950180  20.6094694  42.5023365
  79.5399427  68.4214401  40.2149820  79.4336319  69.3719530  40.2531052
  80.4795647  68.2904387  40.0877953  24.4148707  14.5590222  18.4100676
  24.7308493  14.1814780  19.2309499  23.6539650  15.0813437  18.6639023
  45.7239485  11.4651382  67.3627806  46.3440752  12.0094919  67.8479099
  44.9190521  11.9826138  67.3384285  64.6409178  14.3348014   2.5884548
  64.6316719  14.3372726   1.6313025  65.1951599  15.0786471   2.8245467
  43.8241720  66.4659023  37.6153731  43.8344049  67.2192860  37.0249987
  44.2385197  66.7843962  38.4173155  48.3858204  64.8538876  24.9018049
  49.1530180  65.0660324  24.3701744  48.2184172  63.9286947  24.7222757
  21.5066314  47.0274544  51.0484266  21.6957259  46.1690044  50.6695700
  22.3419046  47.4936819  51.0140419  74.9239635   2.6104134  56.9978237
  74.1449833   2.1594146  56.6722012  75.0178051   3.3708709  56.4241219
  43.2524395  66.8051863  41.1791945  44.0038729  67.3838186  41.0497141
  43.6384821  65.9489679  41.3638401  51.6177702  60.4503202  59.5497847
  52.2213602  60.1480627  60.2284288  51.8982172  59.9912357  58.7580633
  82.0163155  47.1503115  59.5773935  81.4852428  46.5873098  59.0141630
  82.4505806  47.7523994  58.9731312  64.1579628  52.3456764  16.9196475
  64.6597910  52.4173737  16.1076987  63.2502985  52.2466755  16.6322827
  26.1615515   6.1691570   3.3615372  26.0264802   5.8867818   2.4569649
  25.3318310   6.5753931   3.6120677  60.5147123  23.4285593  21.4859891
  60.4171085  22.6116180  20.9967899  60.2320910  24.1089129  20.8748627
  41.0963154  58.2296085  48.3771753  41.1817980  57.7629852  47.5458002
  40.5677605  57.6488733  48.9245367  72.1826553  53.8013601  57.6364994
  72.9647350  53.9789963  57.1139765  71.8500185  54.6675014  57.8718424
  53.6160612  72.2867966  46.6407013  54.5045567  71.9434786  46.5461445
  53.7339067  73.1508636  47.0353365  22.8520584  40.5453825   1.9002599
  22.4251938  40.9766197   2.6405644  23.6128259  41.0941172   1.7095922
  75.5049276  23.8575435  55.8687592  75.7844782  24.6209955  56.3739538
  75.9222269  23.9696455  55.0146341  52.7486563  69.2691517  57.5053358
  53.2224178  69.6762133  56.7800188  51.8985367  69.0334749  57.1338749
  50.6636953  63.7389946  49.1942692  50.1601410  64.2583179  49.8211384
  51.5777111  63.9330435  49.4020033  74.6317005  10.3269076  55.3819370
  75.0356102  11.1746585  55.1964521  73.7105846  10.4445183  55.1496696
  75.8202362   2.5815704  39.1998339  76.3532734   2.6160553  39.9941349
  76.4532232   2.6375020  38.4839892  23.5960054  63.3594179  19.2362475
  23.7944484  62.9078865  20.0565958  24.3215322  63.9726496  19.1188049
  63.6228561  78.3734798  31.8241048  64.2991161  77.7982187  32.1818471
  63.7993813  79.2264032  32.2210836  48.1567812  70.2806520  24.1563296
  48.8786268  70.2315378  23.5296202  48.5217857  69.9325037  24.9698400
  42.4015903  62.8869581  43.3690739  41.6092730  62.6852942  43.8668585
  42.8590488  62.0492220  43.2972527  33.4625077  52.3061275  46.9103813
  32.6806402  52.0147848  47.3794603  34.1769457  51.8013048  47.2989225
  35.4646158  54.5024300  46.6394281  35.4480219  54.8158360  45.7351398
  34.8494434  53.7691641  46.6501093  24.9310327  75.6698084  65.7734299
  24.2882514  75.9546804  66.4229774  24.5058870  75.8277416  64.9304962
  39.7316909  61.6224146  28.8316727  39.5092273  62.3875189  29.3621016
  39.0844655  60.9623814  29.0800548  72.3701715  17.1318090  24.8301053
  71.6939020  17.1929085  24.1554499  72.3005104  17.9545903  25.3142643
  50.7686663  12.8453374   8.9649272  50.6326723  12.9679275   9.9044532
  51.6653299  13.1433082   8.8118190   5.2190644  37.1431875  46.2717152
   5.5918652  37.7766848  45.6585836   5.8949894  37.0303369  46.9400120
  52.5712729  59.8171616  16.0162604  52.2211456  59.0937328  16.5361571
  51.8583727  60.4550362  15.9827793  28.9732599   3.5190290  56.3073158
  28.4465265   2.7357239  56.1485195  28.3573937   4.2454121  56.2108374
  16.9344509  74.6044874  41.1343813  16.5304792  75.3007936  40.6165028
  17.7327788  74.3821239  40.6553602  61.8968630  34.5461917  22.7147388
  61.1865711  34.2953086  22.1241689  61.7862797  35.4893088  22.8352928
  64.1036606  62.2502804  41.4509535  64.3197441  61.8877316  42.3100805
  64.8132420  61.9543362  40.8807421  43.2882071  68.8181543  19.7739267
  42.6439905  68.4397507  19.1755772  42.8335047  68.8686419  20.6147146
  80.1425552  29.0116191   1.8760939  80.5272484  29.1659355   2.7388969
  79.2079306  28.8964343   2.0476945  19.4026375  61.7235899  50.2356815
  18.6023271  62.2423649  50.3169680  19.5852077  61.4237785  51.1261988
  42.3714447  22.3100734  50.0265074  42.7764654  21.6840601  49.4262600
  42.3518801  23.1326318  49.5373821  78.8739061  17.5877690  30.6363440
  79.3231916  17.1129763  29.9370956  78.3000040  16.9356084  31.0382819
  50.9521484  57.3972607  48.8677979  50.3774118  56.8386555  49.3911219
  50.4624367  58.2129478  48.7625694  74.9527788   5.3837949  31.6186833
  75.6583500   6.0059118  31.7957926  74.4439363   5.7918304  30.9180975
  25.7505774  17.7438712   1.5400825  25.4058838  17.8186476   0.6502359
  25.3800583  18.4944880   2.0043254  14.6110046  24.5576859  53.1268883
  13.8897133  23.9686465  53.3482552  14.2010951  25.2580738  52.6192808
  21.1402035  74.1258526  56.4630032  21.6173887  74.8981285  56.7665100
  20.9326839  74.3167162  55.5482674  83.4102058  45.8304453  14.3607342
  82.9526711  45.0600958  14.0239072  83.0924320  46.5533352  13.8197267
  74.0930700   6.4474225  36.9952416  73.6198473   6.0679531  36.2547708
  73.7516356   7.3388332  37.0662403  25.9955406  76.5411806  27.9689932
  25.6877685  75.8199692  28.5179615  25.7372499  76.2935162  27.0811987
  73.6132956  65.7596827   8.5841882  72.6694775  65.6228352   8.6661625
  73.9146996  65.8944321   9.4826472  39.5650864  62.1160030  22.7846622
  40.0240755  62.5106573  22.0431685  38.6490631  62.3634338  22.6585174
  37.3676014  79.6029663  46.7838430  36.7495775  79.4164944  47.4906015
  37.2236013  78.9016533  46.1485052  68.5143709   0.7167283  41.8408108
  68.8456535   0.0918664  42.4858189  68.9839697   0.5009291  41.0351229
  77.4295092  76.9711208  65.0653648  76.4749050  77.0283270  65.0243139
  77.6768780  77.5865889  65.7554626  48.1592178  47.3360777  55.9873867
  47.7616978  46.5911102  55.5365753  48.5672188  47.8484964  55.2893925
  32.8451633  69.4197512  15.7644212  33.7456036  69.2244482  15.5050063
  32.9016066  70.2670050  16.2062466  61.1102772   9.4475383  57.6317644
  61.8508482   9.1025680  57.1329784  60.3406239   9.0533668  57.2212791
   9.3889886   0.4631557  53.9404345   9.6366841  -0.1835468  53.2796335
   9.8186845   1.2705937  53.6582327  58.1358051  52.7372551  37.6249027
  57.6920509  52.0031929  38.0497169  59.0093756  52.7478456  38.0160522
  57.6645708  63.5677767  54.8187447  58.4187174  63.6545706  55.4018068
  57.7590561  62.6968575  54.4329834  55.4765558  44.7140646  55.4440928
  55.1591063  45.3840351  56.0495663  56.3516331  44.4963598  55.7651472
  76.7007446   1.7437646  36.1145616  75.7563877   1.5881571  36.1000919
  76.9786978   1.6145481  35.2077675  57.2198439  68.1555462  38.3913016
  57.9403591  67.5936413  38.6765194  57.6383114  68.9871550  38.1687140
  38.0257726  69.6826696  33.8972306  38.6924577  69.0609741  34.1892242
  37.2598338  69.1408968  33.7073636  71.9175959  21.4983249  65.4793596
  72.4029398  22.1174669  64.9340725  71.8455315  20.7102585  64.9408531
  20.0928068  11.6811049  52.1394777  19.8140597  10.8104539  52.4232006
  21.0460448  11.6672230  52.2253609  34.3822694  70.4362059  52.3751068
  35.1822805  70.9258127  52.5661612  33.7836719  70.6691170  53.0848026
  52.2636747  42.8089094  55.8097744  52.2363234  41.8530703  55.7666922
  53.0902100  43.0052280  56.2508297  62.4787998  75.2222872  10.6209433
  62.3900890  76.1288500  10.9150589  62.2997427  74.6985245  11.4018667
  47.0282984  72.1400452  30.5036616  47.6619196  71.8207693  31.1461782
  47.4725246  72.0443153  29.6612048  18.0698478   4.8970568  11.9516766
  19.0256155   4.8461643  11.9638944  17.8746462   5.7979047  12.2097480
  12.6388347  13.0184114  45.3208017  12.2047842  13.0725777  44.4693947
  12.9796672  12.1247840  45.3594637  61.1501360  77.1021414  33.0598497
  61.1983109  76.1509848  33.1558490  61.9594622  77.3384237  32.6066470
  70.0048971  68.4999037  39.2967725  69.1022444  68.1816053  39.3082857
  70.4890442  67.8663445  39.8263359  74.5179510   5.2441096  39.4916821
  74.3666601   5.6719214  38.6488748  74.8589468   4.3793017  39.2635107
  73.0221558  51.9984865   8.9589030  72.2270489  51.9514942   9.4897777
  72.8402233  52.6831245   8.3151621  21.5292907  14.1323733   6.5416288
  22.0739222  14.9114585   6.6540259  21.2726092  14.1505504   5.6196654
   9.9146664  35.1054835  53.6886930  10.4898190  34.4788361  54.1277170
   9.4744730  34.5925045  53.0109644  82.6231670  12.8803468  32.8054571
  82.0440674  12.4423432  33.4291816  82.1722698  13.6975646  32.5931382
  56.7058611  64.3190193  19.3477094  56.6753674  64.4438362  20.2962470
  56.3377953  65.1260853  18.9879775  53.3271313  49.4587660  50.0585651
  53.5352135  49.1993761  49.1609812  52.8756809  48.7001276  50.4285622
  25.7397485  14.1339529  26.4728928  24.8512864  13.8564074  26.2496543
  26.3062692  13.4988534  26.0347891  10.5505753  68.5646152  62.2412825
  10.4639828  67.6537895  62.5225973   9.6546155  68.8428307  62.0513248
  48.3707333  74.8316431  27.3997569  47.4862957  74.9570179  27.7436781
  48.4099627  75.3966236  26.6280794  43.3895445  10.1332796  25.4307723
  43.6118746  11.0112572  25.1210046  42.5594759   9.9301988  24.9995184
  46.2083483  23.9563680  45.2277994  46.1876965  23.1591964  44.6983433
  45.4521275  23.8773489  45.8092785  29.5455956  66.8788481  49.6542931
  30.0651073  66.6589022  50.4275751  29.3705583  66.0360146  49.2356873
  48.2155371  42.6546288  54.0871477  49.0162802  43.1219959  54.3250799
  47.7993870  43.2118893  53.4294939  14.6048415  78.4848881  36.2276697
  14.6997344  78.7048912  35.3009415  14.7327507  79.3157578  36.6854048
  54.8213339  72.3510265  52.0309544  55.1977968  73.2302141  52.0701981
  55.1400566  71.9907236  51.2034130  78.9147186   7.0182872  59.2100286
  78.2380724   6.3470912  59.1212702  79.7141171   6.5954506  58.8963366
   5.3713191  14.1481602  45.5456829   4.5179561  13.7341070  45.6743860
   5.3075510  14.5664001  44.6870565  78.4120035  50.7696247  52.9767895
  78.6022425  50.9479189  53.8977909  77.9309702  49.9421406  52.9874134
  81.5149117  23.1791472  48.5859203  80.9757996  22.9999852  49.3563032
  82.3264313  22.6968002  48.7440491  17.8617215  18.3121526  57.2999287
  17.6012444  17.4087334  57.4794197  18.3337653  18.2646489  56.4685774
  64.0938807  51.6357422  25.6100249  64.1552162  52.2055674  26.3766861
  64.0959787  50.7488203  25.9700251  58.7938261  56.1458206  30.4758358
  58.2834196  56.2890863  29.6788478  58.2673168  56.5396547  31.1714745
  51.2382555  42.8106070  11.5860748  50.5452442  42.5564241  10.9766805
  50.8470821  43.5035515  12.1180940  65.1554871  55.7469177  35.8787942
  65.6320953  55.1585150  36.4643359  65.8228636  56.0802794  35.2790332
  70.1606846   6.7105091  63.4999275  70.1718855   7.6612598  63.3895636
  69.8981094   6.5782040  64.4108486   0.3525143   0.9588245  34.8490596
   0.0401705   0.4480964  35.5959392  -0.1759322   0.6529013  34.1119123
  69.0116119  48.2928276   2.3792769  69.7656965  48.2822895   2.9687473
  69.0428972  49.1555309   1.9657539  64.7791767  69.6235228  16.3810122
  64.5630836  70.5497646  16.4887679  64.6948147  69.4657183  15.4406869
  39.8798561  68.5096455  44.6051884  39.1529036  68.0373192  45.0110006
  39.8519492  68.2473993  43.6850357  64.0591145  59.1907358  56.9113970
  64.5591354  58.3816624  56.8036509  64.6770763  59.8027849  57.3110819
   3.1472829  71.2610626  31.0916519   2.4618930  70.6865597  30.7504463
   3.9492112  70.9550238  30.6679988  18.3214498   2.6471713  63.8632345
  18.1651342   3.5908309  63.8271189  19.2689836   2.5572905  63.7615776
  71.8597698   0.9986775  13.7276864  72.6499939   0.5591082  14.0416217
  71.3358307   0.2993237  13.3370161   2.0653099  24.8564410  59.3936443
   2.2003880  25.4703999  60.1154709   1.7657366  24.0516949  59.8165751
  75.4353476  77.5180149  44.3723440  75.7748842  77.7677250  43.5129309
  75.2093840  78.3485413  44.7911501  53.2889080  54.9279881  38.6648011
  52.7860403  54.1218376  38.5487342  54.1731787  54.6300554  38.8781857
  17.8137398  19.6644771  21.5894938  17.0232606  19.3683946  21.1381483
  17.5967038  19.6004510  22.5195622  55.5117941  56.8592215  62.2235107
  55.1421070  56.9861889  63.0972672  56.4577913  56.9302750  62.3510599
  83.0872631  67.8469038   7.5199360  83.8983250  68.2982731   7.7537906
  83.3732510  67.0902681   7.0081258  51.8732500  63.0892420  35.6263995
  52.4572372  63.4375381  34.9526954  51.5176630  63.8651943  36.0596251
  61.6703796  56.7159605  64.1569090  61.5464687  55.7889843  63.9529657
  61.3616991  57.1762466  63.3764696  19.4321597  67.2793150  64.3692636
  19.1721511  67.2922850  65.2903795  19.1837835  68.1423807  64.0381098
  83.7906361  33.6511064  22.7949548  83.3973122  33.3409405  21.9792771
  84.7332382  33.6290789  22.6298761  43.2209969  74.0388536  19.5049465
  43.9641380  73.4716749  19.7105777  43.1044436  74.5747757  20.2894425
  82.9123116  47.8309107  12.9725790  82.6465034  48.2034063  12.1318483
  82.7105999  48.5142422  13.6118007  46.0262060  72.3058081  33.6153626
  46.4404678  71.5317726  33.2339358  45.4270029  72.6159000  32.9363704
  43.4804487  65.0123405  48.5978174  42.7084875  65.1952505  48.0622292
  43.5652351  64.0591049  48.5781193  32.0740032  74.9504471  38.5280085
  32.0897412  75.0597763  39.4788146  32.9116750  74.5362806  38.3206439
  43.7670803  69.2639542  47.9015207  43.3269501  68.5665560  48.3874750
  43.9400768  68.8834763  47.0403957  54.9773836  77.0674753  12.3445857
  55.6511927  77.7421045  12.4287939  54.2955780  77.3315096  12.9623747
  71.9668722   3.2115686  16.8823516  72.8796673   2.9294369  16.8236566
  71.5897894   2.6613557  17.5688696  67.6378393  63.8488293  59.3894434
  67.2319937  63.7945890  58.5242367  68.5673666  63.9897442  59.2095709
  26.5694690  65.6984568  26.9585872  25.8342481  66.2780523  27.1579719
  27.0401478  65.6146908  27.7878499  18.3528233  74.8816204  44.0633011
  19.0503943  74.4495249  43.5704279  17.7098012  75.1311493  43.3996058
  27.1806502  56.5735340  53.8636065  26.2896347  56.7003489  53.5376644
  27.1075082  55.8492327  54.4851208  15.4935110  13.7570071  44.6677065
  14.6239090  14.0862203  44.8949575  15.3569293  13.2540810  43.8648081
  46.1590338  73.5392284  63.9619017  45.5276442  73.2408667  64.6165466
  46.6423130  74.2411709  64.3977308  47.5578594  56.9794369  25.1784372
  48.1894302  57.6764774  25.0010037  47.2822094  56.6797733  24.3121505
  69.7358418  51.1855745  31.4052343  69.8939991  51.8706989  32.0547128
  70.3387880  50.4825592  31.6470170  58.9713621  61.7613792  39.5055819
  59.6032286  62.0834303  38.8627338  58.1704760  62.2519541  39.3207765
  55.2929926   4.8986271  23.1805205  54.5868540   5.2223909  23.7397838
  55.3722858   5.5565596  22.4898195  58.6233950  59.6214724  27.9409051
  59.5139027  59.5284510  28.2793975  58.1253242  59.9839687  28.6735415
  62.4591017  58.0360508  50.5742455  62.9123497  57.2948742  50.1724243
  63.0706024  58.7671566  50.4860067  81.1091042  16.3876283  20.7903266
  81.5202713  15.5765367  20.4914808  81.8064976  16.8540215  21.2511444
  23.4425211  69.4295073  55.8635378  23.8744736  69.8995781  56.5767574
  22.6110220  69.1381931  56.2376785  59.8474932  72.7029467  57.9901600
  59.0844107  72.6579046  58.5662746  59.6396923  73.4033871  57.3717451
  45.0098372  68.9878607  41.8601894  45.8092403  69.1740370  42.3526573
  45.1278591  69.4479275  41.0291386  42.0044279  74.7469473  56.3357735
  42.8644562  74.4246006  56.0661840  42.1720552  75.2273417  57.1465445
  54.8927498   5.9267753  13.6059189  55.0633621   6.5128446  14.3432438
  55.1180887   6.4433610  12.8322303   5.7951641   1.8613781  62.9005575
   5.9533322   1.2994218  62.1419954   6.2150192   2.6915699  62.6753139
  29.8334217  53.5704374  24.5649934  30.1846695  52.7847052  24.9838996
  30.4813170  54.2503738  24.7497940   0.0059126  70.8743000  10.3192115
   0.3061477  70.0444508  10.6899500  -0.1879931  71.4206839  11.0808516
   9.1915822  15.3732049  35.8432698   8.8644546  14.7701418  36.5107536
   8.6454499  15.2007270  35.0763130  12.6429367   3.1266961  47.1074581
  13.0552554   2.5234890  47.7258158  13.3132303   3.7878206  46.9346762
  40.1794624  62.2062635  45.1101875  39.9674916  62.1423388  46.0414314
  39.7969604  61.4189100  44.7228861  66.1517859  71.0392094  37.4082208
  66.2763214  71.9528770  37.6650023  67.0394659  70.6965542  37.3041034
  42.9376459  13.5093474  50.8390188  42.8154755  12.7657187  50.2488327
  43.6119747  13.2193053  51.4533377  51.9377899  47.7412844  16.7173314
  52.4261761  46.9582319  16.9713748  51.0688686  47.4158382  16.4821851
   8.1211942   9.6003073  40.9099340   8.5565513   8.7522423  40.8234406
   7.2750819   9.4802630  40.4787588  83.8406181  31.6608930  46.5160656
  83.3350658  31.2814569  45.7972622  84.7538853  31.5100121  46.2723351
  59.3604231  57.7639151  57.0288372  58.4222031  57.7275229  56.8426752
  59.7553349  57.1758699  56.3850355  81.6637230   5.0264800  62.4537086
  82.4709511   4.9625865  62.9641247  81.9376564   5.4061848  61.6188335
  51.5924501   5.5538923  51.6552830  51.0426760   5.8000720  50.9113884
  52.3633099   6.1163175  51.5798950  14.4662988   8.4840643  51.0137844
  13.8568699   9.2221737  51.0186529  13.9041471   7.7093327  51.0107470
   1.8594100  69.9149656  19.9514496   2.7653420  70.0556850  19.6762848
   1.4835441  70.7941151  19.9967611  33.3432245  40.9097290   0.1196185
  33.3223319  41.1206913   1.0530480  33.9756656  40.1946259   0.0497798
  79.3051958  49.1805887  14.6105671  79.9966192  49.8105145  14.8139501
  78.6069918  49.3818378  15.2336538  69.6315861  20.6892657  39.6847868
  69.2088032  20.1193762  39.0423608  70.2231121  21.2358475  39.1675019
  51.3410473  66.5866709  27.1320629  50.5134296  66.4452505  26.6724110
  51.8806362  65.8337164  26.8909574  62.2000265  34.9505639  10.8236229
  61.4324331  34.7062540  10.3065670  61.8384218  35.3257489  11.6265619
  70.0725889  78.0677605  12.9612505  70.4456043  78.8270712  12.5134325
  69.5441628  78.4413719  13.6665273  51.6234541  55.6502485  46.9176197
  51.2405729  56.2444687  47.5630140  52.3093653  56.1663771  46.4941025
  30.8767653  74.3966961  65.2952003  30.0154757  74.2107010  64.9212742
  31.3013673  74.9614096  64.6494102  35.9431267  59.1870356  54.3625402
  35.1303792  58.8904810  54.7720909  35.9492469  60.1341867  54.5007229
  15.8017790  53.2125235  59.9504471  15.6167448  53.8188314  59.2332411
  15.8987606  52.3606205  59.5249081  58.4892225  75.9394026  44.9997950
  57.6142406  75.5813885  45.1496553  59.0704346  75.1805592  45.0505829
  80.2508354  24.2972350  26.0747266  79.7377253  24.7214365  25.3869724
  79.9500513  24.7075343  26.8855405  56.6005230  65.0631428  13.8696265
  55.6933260  65.3357601  13.7321401  56.9554043  65.7104349  14.4789779
  60.0921249  72.9951668  29.0717149  59.8693037  72.3685551  28.3832836
  60.7903051  73.5291529  28.6927247  11.9557524  33.8234758  43.8650131
  11.1180389  33.5520959  43.4897518  11.8624401  33.6588359  44.8033190
  31.5950012  12.8039026  40.2326870  31.5510392  13.2233644  41.0919619
  32.5297880  12.6630831  40.0824451  48.2948112  62.0078897  24.7303176
  47.7237988  61.6364193  25.4027653  47.7596140  62.0111656  23.9367270
  42.9459524  66.4527798  44.3593884  43.4790182  65.7476807  43.9920950
  42.1079826  66.0378313  44.5639801   3.2363573   0.5009068  39.9996591
   2.7609926   0.1115203  39.2657375   3.8730490  -0.1670378  40.2540302
  44.0608120  77.4152470  61.3984537  43.1435823  77.2375488  61.6066599
  44.5165062  76.6003180  61.6093206  22.9137969  68.2832527  36.1290455
  22.9721713  68.3046150  35.1738667  22.1731067  68.8529491  36.3365412
  47.9210758  53.6785269  30.8726454  47.8525114  52.8919888  30.3314495
  48.7387228  54.0906715  30.5936885  41.2301159  66.2769032  39.1641212
  42.1695662  66.4553595  39.1214752  41.1646175  65.4519510  39.6451569
  43.0904722  60.8865499  33.9891481  43.2555056  60.0020838  33.6624765
  42.1366453  60.9667969  33.9918137  50.1751614  73.3738661  45.3828907
  49.3026114  73.2768822  45.0014591  50.1514482  74.2240620  45.8220196
  64.0893745  42.9742813  33.5198450  64.0111399  43.1797838  32.5882459
  64.7851610  43.5512781  33.8347864  64.9385166  62.0942259  58.2455254
  63.9818096  62.1203947  58.2614422  65.2029943  62.5002718  59.0709972
  47.5776005  43.7985706  51.4530134  48.4870529  43.8243532  51.1555910
  47.0674372  44.0603304  50.6865597   7.2922903  45.8207369  67.3026800
   6.3832021  45.5211782  67.3099995   7.8047967  45.0354242  67.4946642
  30.9037662  77.5376463  42.8731728  30.6704450  77.2040844  43.7395000
  31.5608430  76.9219828  42.5484514  28.4449005  77.5916195  28.2093310
  28.2592511  78.2500648  28.8788247  27.6057243  77.1547604  28.0638409
  65.0656652  68.9232731  29.8336101  64.8176289  69.8335075  29.6718025
  64.9795818  68.4964180  28.9811921  47.5367260  13.8166797  32.3419189
  47.4344540  13.9159942  31.3953948  48.1278944  13.0705297  32.4419665
   3.3305463   4.6925670  51.8883514   3.6435643   4.7425365  50.9851599
   3.9995354   5.1482749  52.3992491  69.1413069  24.2206812  21.4461470
  68.7010765  24.6394587  20.7065153  68.4311390  23.9705610  22.0371890
  21.7207742  34.1589618  44.4390249  21.0887218  34.5431542  43.8314581
  21.8124032  34.8112655  45.1335287  30.0721502  70.9050894  46.0964584
  30.7139158  71.6012383  45.9559298  30.5272222  70.1038980  45.8371687
   2.6940045  46.1937475   4.3320528   3.3257768  46.8380594   4.6513683
   2.4226849  46.5277147   3.4770182   6.8098587  50.1936150   1.8927093
   5.9164435  50.4462194   2.1255839   6.9938588  49.4310856   2.4412793
  75.4223680  69.6802568  36.6301203  75.9075451  68.9859962  36.1842060
  76.0815382  70.1335526  37.1557117   9.6886754  30.7322001  37.0289493
   8.7502480  30.7318425  36.8403077   9.9465406  31.6514111  36.9597435
  58.4386444  43.3567095  30.1889873  58.5555124  42.5049782  29.7681212
  58.0753231  43.9155006  29.5019770  48.6381674  57.2429943  15.9310460
  47.7938747  57.6511240  15.7391453  48.6733246  57.2033691  16.8867803
   4.6007296  70.7177401  48.2132006   4.8034513  71.3757133  47.5482178
   5.4430860  70.3072786  48.4086227  28.2797027  77.3308516  50.3511572
  29.0137339  77.1029282  49.7806454  27.5014710  77.1491575  49.8243046
  80.2298546  50.9269094  50.9319448  79.6220398  50.6070614  51.5986490
  79.6824741  51.4337969  50.3322220  28.9653492  69.7981215  22.5441813
  28.0838919  70.1338291  22.3811960  29.2130876  70.1754808  23.3882546
  15.6923425  18.9763689  31.0810280  15.7222247  19.8806179  31.3935542
  16.1822844  18.9908016  30.2588487   0.4335124  24.4000196  36.2487125
   0.4796845  25.1988506  35.7233882   0.3587088  24.7107029  37.1509933
  38.7459207  76.4298820  62.1469307  37.9911685  76.9422388  61.8569756
  38.7241411  76.4907980  63.1019402   0.4330809   6.1979169  31.7219090
   0.9525350   6.5043390  30.9786034   0.6847024   5.2804929  31.8279862
  61.4073515  20.9516859   8.0948836  61.6522217  20.2721477   8.7229717
  60.6887770  20.5665493   7.5933337  84.2162038  74.3033552  38.7588787
  83.2801710  74.4891167  38.6842656  84.6089628  74.7460842  38.0065751
  72.3646688  32.3274183  34.6556807  72.3292446  32.2235775  33.7047887
  71.8107891  31.6239762  34.9942350  49.9980831  77.8198242  44.5818472
  50.3991556  78.5418510  44.0980577  49.1576052  78.1683445  44.8791027
  51.0557461  67.4158669  37.3707509  51.5625477  67.7890301  38.0919528
  50.3396034  68.0363226  37.2350764  79.0808487   9.4149989  10.7634175
  79.8133516   8.9335001  10.3789282  78.3060217   8.9109999  10.5147064
  25.1726198  64.7718859  31.0446811  25.9277368  64.6048355  30.4806566
  24.5182085  64.1319561  30.7645583  57.8672028   2.8184590  45.1610518
  57.1718884   3.1510380  44.5934582  58.3200645   2.1653843  44.6275377
  49.7593164  71.4251518  47.4261093  50.5446196  70.8834982  47.5044632
  49.9762726  72.0648670  46.7479324  78.3419275  18.0018103  38.1723905
  78.5722637  17.1401393  37.8249693  77.4147272  17.9287946  38.3986568
  59.8212719  43.7871027  51.0570145  58.8673639  43.7549496  51.1295319
  59.9938011  44.5479822  50.5024624  49.3160343  53.2296705  20.2156782
  48.8121796  52.4699640  19.9237776  49.0834951  53.9229822  19.5980406
  59.2305994  41.8323231   8.1704956  58.5008764  41.6519737   8.7631226
  59.9729633  41.3671732   8.5561872  80.6374550  73.4465218  45.5580425
  81.2351894  73.3107758  46.2932444  80.3769398  72.5638056  45.2950287
  71.7138624   9.8294222  46.9951248  71.8119907  10.5547905  46.3783216
  71.7198706  10.2455330  47.8571272  44.8569250  78.0391884  35.0416923
  43.9382315  78.1995106  34.8259950  45.0063610  77.1276760  34.7905898
  45.8686638  68.7693501  61.8846273  45.1326799  68.3118582  61.4781094
  45.5646801  68.9736938  62.7689743  32.3919845  57.5037289  19.5847297
  31.8946028  56.7572737  19.9188757  33.0334949  57.6902628  20.2702212
  39.1187096   0.4136374  20.0425601  38.3106995   0.0002051  20.3465748
  39.6837425  -0.3182370  19.7949147  35.6358004  66.6533804  10.4366326
  35.8838415  65.8993483   9.9017060  34.7340393  66.4725924  10.7019114
  57.2640324  53.2273054  35.0798798  58.1184864  53.6106443  34.8819041
  57.2935295  53.0489445  36.0198522   4.0210271  46.6315651  30.5140781
   4.3318835  46.8429422  31.3943744   4.4259134  47.2921753  29.9520397
  41.3110733   3.7843144  56.5203857  40.8053684   3.6430657  55.7200432
  42.0650101   3.2010075  56.4334011  27.8063798  73.6420393  24.7751594
  26.9092083  73.3803415  24.9821138  27.7228737  74.1838598  23.9905000
   1.8840392  24.8364663  33.4408331   0.9794578  25.0816727  33.2463145
   1.8149395  24.2342663  34.1816521  59.3961430  72.7840853  13.6791837
  59.8479748  73.4139061  14.2407930  59.0657330  73.3079052  12.9493403
  43.5519600  70.6195688  25.2642632  43.9724541  71.4692688  25.3962779
  44.1759777  70.1232243  24.7346663  35.8715248  58.9959097  16.6865063
  36.0080886  59.8911238  16.9966364  35.8390617  59.0750456  15.7331359
  33.3544850  59.9875641  14.0487003  32.9759526  59.3600798  13.4329021
  32.9114938  59.8066044  14.8777020  74.1777992   7.6840812  63.5388136
  74.8897934   7.2938013  64.0457487  74.5022106   8.5521865  63.2992649
  59.8514223  65.6702662  39.4564366  59.8168325  65.9097242  40.3825569
  60.0895882  66.4816856  39.0079808  71.4138460  29.5008898  67.9739380
  72.3413706  29.5485640  67.7423000  71.2381077  28.5646033  68.0672836
  43.1234264  40.1011610  10.5200171  43.0477095  40.0183821  11.4706206
  43.9201546  40.6147385  10.3870225  58.0924034   5.1496327  43.0264425
  57.2039986   4.8263246  42.8766394  58.0832672   5.4651344  43.9301062
  54.5173073  50.1449442  44.1091108  55.2348757  49.6157885  43.7608004
  53.7820721  49.9672985  43.5225010  44.8270559  57.7285719   6.0421515
  45.6260872  57.2086143   5.9559643  44.2309952  57.3617458   5.3891712
  78.6579037   6.4286745  42.5549841  78.4757900   7.1783757  43.1215668
  77.8921032   6.3684529  41.9838858  13.0346251  46.2344694  39.9789095
  13.8817596  45.9139490  39.6692967  12.3954153  45.6406546  39.5851779
  17.3952842  72.5379753   9.8774517  17.9325008  72.6639223   9.0952951
  16.4941001  72.5649261   9.5559353   5.9818500  10.3211403  46.0354137
   6.8787009  10.1250565  45.7644129   5.4502493   9.6496159  45.6079912
  16.8213928  66.8357849  10.0488842  16.6661203  66.0999918   9.4566548
  17.6016510  67.2651148   9.6980226  51.5806341  50.9600496  23.4154344
  51.2742662  50.8049107  22.5219560  52.4490881  51.3476610  23.3069372
  34.5484829  74.2947817  51.6416740  33.7473536  73.8810921  51.3203001
  35.2554655  73.7574244  51.2843847  25.3051925  31.6943884  41.8900156
  26.1599445  31.2684917  41.9551277  25.5001116  32.5747848  41.5688658
   8.8625914  26.9370770  33.9027166   9.6486926  26.6645074  34.3759847
   9.0973157  26.8508530  32.9787564  44.3188763  73.0091095  31.5039992
  45.0696230  72.7560854  30.9667945  43.5717249  72.5770092  31.0901332
  30.4572082   8.2321721  51.5532684  29.9162269   7.4838752  51.8055105
  31.3391924   7.9984421  51.8425846  76.1707258  53.4236002  44.4394016
  76.6853476  53.8160610  43.7341595  75.7227659  52.6851988  44.0266895
   1.9144660   4.1553032  37.3581767   1.1522626   3.6545283  37.0674825
   1.5600954   5.0098813  37.6038384   5.0100762  37.1586442  50.5296087
   4.5315573  37.3476076  51.3367891   4.5343038  37.6380062  49.8513126
  14.2650211  50.7233667  30.3956985  13.5932779  51.3973331  30.4994631
  14.8413503  51.0630322  29.7110796  68.6016941   4.2183936  46.2144136
  68.2172537   4.5311710  47.0333195  69.4810581   3.9290547  46.4577913
  56.7137003  77.1382952  31.5179372  57.1933126  76.8834782  30.7297301
  56.9115686  78.0682659  31.6285515  69.0373039   1.3055205  31.7088556
  68.1043291   1.2571010  31.5004277  69.1147804   2.0656469  32.2854280
  64.7344780  41.5148735   3.8041610  64.7238493  42.2840357   3.2345074
  65.1061153  40.8197451   3.2610992  47.6266193  74.3684387  49.9106216
  47.1173477  75.1241875  49.6178389  48.2422686  74.2032957  49.1965246
  48.6303043   6.5207678  12.2721827  48.1956720   6.2311763  13.0743444
  48.1381750   6.0993510  11.5675926  17.1493936   9.5671695  54.9431515
  17.2562778   8.8015121  55.5075788  16.2496626   9.5046365  54.6225214
  61.0335159  33.5185051  54.8962784  61.4896679  33.5924387  54.0580130
  61.1928415  32.6173687  55.1769972   7.1115017  48.5412979  58.3616829
   6.4391285  48.3037281  59.0002012   7.7623516  49.0267420  58.8686085
  80.9116173  29.1946077  59.0340376  80.2851009  29.5387316  59.6706581
  80.6775093  29.6242046  58.2113123  58.2180452  50.9707642  50.3699064
  57.8922319  51.1970472  49.4987726  59.1105556  50.6597567  50.2184820
  62.1365166  56.9119072  10.6129742  63.0145597  57.0715189  10.2668583
  61.5780497  57.5325346  10.1448238  81.4018726  13.4170222  53.7210321
  81.3691711  12.9407418  54.5506859  80.6516838  14.0105140  53.7558413
  78.5614014  14.8884809  61.8127775  78.2464933  14.4698393  62.6139021
  79.4980049  15.0175703  61.9622278  44.6826220  76.2621307  14.5653379
  45.2464008  77.0104837  14.7611713  44.4634581  75.8966017  15.4224193
  77.8195477  76.3992643  68.5202122  76.9123650  76.4679098  68.2226562
  78.2178783  77.2324467  68.2684851   7.8046250   3.7868643  29.4383860
   7.3461556   4.4680929  28.9464855   8.1759715   3.2150966  28.7665105
   1.6746159  28.7885928   8.2574934   2.5732994  28.6575198   8.5598511
   1.1320598  28.5556936   9.0109009  11.1580884  28.5511899  18.3795238
  10.8103299  28.6877394  17.4982464  11.0419405  29.3950009  18.8162458
  46.1239290  54.3081570  23.9711738  46.2484407  54.0140200  24.8735118
  45.4136610  53.7606001  23.6366153  20.2735376  26.8451738  36.2107825
  19.4946790  26.3052344  36.3452339  20.6633282  26.5067840  35.4046869
  63.5281992   1.4216308  36.5419912  63.5315847   1.3028307  37.4917841
  62.7814817   0.9052537  36.2386847  45.1295424  64.7356272  30.1683378
  44.5647860  64.9980354  29.4414115  44.6698046  64.0016460  30.5759454
  81.8785095   9.9304169  46.4916229  81.1733437   9.4447738  46.0636997
  82.5038338   9.2574793  46.7606163  70.5476427   4.9115190   2.5316978
  70.7926941   4.6340841   1.6489677  69.6771812   5.2961701   2.4288781
  49.3140841  45.4657364   4.3867207  49.2923260  44.9817181   3.5612011
  49.7851372  44.8903131   4.9894059  12.5032246   2.8112042  34.0870976
  13.2414424   3.2556534  33.6702871  12.9050803   2.1140587  34.6054912
  11.0075474   6.1115474  11.5049112  11.8298817   5.7011062  11.7723739
  10.9548616   5.9506398  10.5628049   2.2479671   8.7069649  50.8792734
   2.1921934   9.6266806  51.1385870   3.1847277   8.5466647  50.7651854
   0.4149056  17.3280072  50.9264040   0.3620845  16.3862145  50.7637119
   1.0512985  17.4131072  51.6363287  31.5494919  33.2610488  34.4817257
  31.1213541  33.3396006  35.3342271  31.4690280  34.1316795  34.0921664
   8.5692179  14.1921711  43.4948397   8.2762706  13.4969449  44.0839672
   9.4854093  13.9823794  43.3136940  71.6704750   7.5087374  43.4714556
  70.9138823   8.0950439  43.4647846  71.3154030   6.6626108  43.7438965
  17.6701570  60.5659866   9.8030239  18.5519958  60.1951551   9.7702461
  17.7898848  61.4887714   9.5785856  10.1555538  29.1166472  50.1184368
  10.1777577  28.2531404  49.7060156   9.9943161  29.7231889  49.3957090
  71.0150146  69.6810675  50.0246477  71.6230392  69.2675161  49.4118547
  71.1586666  70.6201553  49.9075508  23.8500190   3.1212378  16.2249184
  23.4792876   2.2421731  16.3026130  23.6216593   3.3999667  15.3381288
  77.1762466  16.9079137  11.5826786  76.9225788  16.0131443  11.3562477
  77.7529860  16.8089366  12.3401773  41.7932510  61.1906099  31.0381484
  41.3637400  61.2332487  30.1837850  41.1123943  60.8764315  31.6330934
  44.4767857  26.7084360  56.2942362  45.1241779  27.4134302  56.3041210
  44.5659304  26.3135433  55.4268551  15.1425505  33.5488510  58.1587362
  14.7603250  34.4251060  58.2068300  15.5505443  33.5126662  57.2935963
  43.2697678  71.3026476  36.2069082  43.2388067  72.1987629  35.8718729
  44.1325760  71.2291241  36.6148186  73.9891338   2.1780680  65.2437115
  74.6747732   1.9692390  64.6092653  73.2657146   2.5121063  64.7133255
  77.2977161  70.2729464  38.4272552  78.2543755  70.2932787  38.4023285
  77.0587778  70.9777498  39.0292454  55.1862335  78.1340694  55.2169418
  55.8845854  77.5005245  55.0521469  54.3777180  77.6405001  55.0793648
  65.4314137   4.5989540  32.2366881  64.6875143   4.0992790  31.9002819
  65.7005548   5.1512522  31.5026855  48.9768934  58.0506468  63.4382820
  48.8036299  57.9787970  62.4996376  49.7159624  58.6558151  63.4997797
  40.5159140  71.0035801  45.5445337  40.1149130  70.2717304  45.0756741
  40.3610992  70.8094311  46.4689636  38.4592175  38.3945394   9.5313811
  37.6497531  37.8862071   9.4804192  39.0054345  37.9134345  10.1530039
  23.0831861   3.0651104  35.5565119  23.2777643   2.7397275  34.6775937
  22.2472811   2.6575392  35.7831860  31.0048079   3.4459886  47.7663088
  31.1064649   2.7954817  47.0715189  30.4911733   4.1469002  47.3648930
  13.7913167  23.1769013  49.7199917  14.5699227  23.5066056  49.2713261
  13.8383007  22.2267199  49.6142626  15.8175957  23.3301282  55.2072048
  15.4037178  22.4703741  55.1313114  15.3004432  23.8963127  54.6343040
  28.7153721  28.7333846  32.2040582  29.0314746  28.6711717  33.1054139
  28.7688160  29.6660209  31.9953370  22.2129703  58.5301781  39.4770861
  22.8634357  57.9761696  39.0455723  22.3232651  59.3898726  39.0708971
  33.4931397  67.8638268  60.8068275  33.8386822  66.9717073  60.7758760
  32.8498936  67.8470802  61.5154791  16.9464350  69.0304279  49.9459648
  17.5910056  69.2695141  49.2799330  16.1375141  68.8853073  49.4552326
  23.4926295  16.5684164  31.7319465  22.7187896  16.7136312  32.2762966
  23.1597281  16.5795231  30.8345699  32.9054570   7.1912527  51.6469479
  32.7035379   6.2800747  51.8595839  33.2253695   7.1615493  50.7452774
   0.5420910  33.4989500  28.5948205   0.4346812  33.4040189  27.6484156
   0.8134998  32.6309299  28.8933301   7.1360523  29.3844056  57.3135328
   6.8752456  29.1990399  56.4113998   7.5194663  30.2606916  57.2767639
  68.7315369  20.6207943  58.7984896  69.4784832  21.1773992  59.0186930
  67.9675007  21.1201859  59.0867376  78.5239744   9.0562481  61.4909315
  78.6200142   8.8066095  60.5718660  79.2964363   8.6891788  61.9208097
  80.6277180   3.9535487  55.9512329  80.1766872   4.7971594  55.9176970
  80.9428883   3.8147801  55.0581217  79.5665932   5.1064587  36.1966872
  79.2244434   4.2365462  36.4026427  79.8013306   5.4789060  37.0466352
  28.9476085   6.8593621  32.4368382  29.4453788   7.1550572  31.6745901
  28.9928818   7.5918770  33.0513334   7.0079738   4.8481250  67.6150084
   7.6121688   4.1151398  67.7329588   7.4880302   5.6091529  67.9415274
   6.1972111  11.4989412  42.7887297   6.2564218  11.8390214  43.6815214
   7.0119762  11.0124934  42.6632023  61.9515896  75.7109690  26.0133195
  61.1075211  76.1449099  25.8889103  62.4948215  76.0330915  25.2940392
  35.6459832  17.3785770  40.3661537  35.9803510  17.2236991  39.4827271
  34.7891355  17.7830839  40.2304411  83.0273724   1.7445105  60.9779024
  82.5450325   1.9465308  60.1761723  82.4085617   1.9325851  61.6835403
  74.2349911   1.4450422  43.1804180  73.4058857   1.9233565  43.1865788
  74.8880959   2.0944618  43.4410620  63.7301302  78.1601954  64.2100191
  63.0050516  77.7410984  63.7464952  64.3879795  77.4706030  64.2990589
  68.3538246  70.9843969  27.3858857  69.0970087  70.8601427  26.7955756
  68.2894611  70.1593399  27.8668952  46.6011810  76.5155649  48.3277130
  45.9873152  76.4157915  49.0553427  46.1491108  77.0903349  47.7100563
  52.1656609  68.2478428  39.7002721  53.0963993  68.2267380  39.9227905
  51.7366123  67.7863026  40.4207802  75.2793360   7.6964515  45.2984762
  74.7956848   6.9195759  45.5791473  75.1630259   8.3222508  46.0133696
  56.9399023  72.3917294  29.1790867  57.7545452  72.2687101  28.6917901
  57.2210789  72.6872969  30.0450039   5.1697320  65.4962206  14.1569364
   5.8126956  66.1907959  14.0141380   5.6946522  64.7046375  14.2756271
  79.6874666  78.4059715  23.8456368  79.3628407  78.7103701  22.9981756
  79.2365265  78.9558077  24.4863915  81.8160057  23.3374858  42.2323751
  82.5216293  23.8315010  42.6498365  82.2411060  22.8783464  41.5080023
  53.5593605  45.5132484   3.5649276  53.9326954  45.2333975   2.7291426
  54.2604113  45.3693247   4.2005742  71.3500977   9.7446489  19.7842562
  71.9242334   9.9889052  20.5101609  71.7913675   9.0038216  19.3686962
  56.0300636  45.0048304  34.3724155  56.8719959  45.0382328  33.9182472
  55.9054852  45.8912611  34.7114563  41.2041903  71.7091703  53.7498999
  41.0605907  72.6366091  53.5615683  40.3272820  71.3572931  53.9030266
  28.7190270  55.5423355  36.0254669  28.3378077  54.6823406  35.8485079
  28.9945531  55.4983759  36.9411016  38.8191772  23.8303280  36.0162139
  38.6223722  24.4520068  36.7169380  38.6923766  22.9701638  36.4165521
   9.4367141  39.3392897  40.7988691   9.3954241  39.7821879  41.6464376
  10.3647327  39.3558955  40.5649090   0.0793707   2.1109727  13.7076998
   0.9313551   1.7030390  13.5529602   0.1232970   2.9432750  13.2369828
  79.0488005  57.7610493  33.1039619  79.9009895  58.1886053  33.1888103
  78.4552908  58.4615231  32.8331995   7.2087413   8.1778097  59.3998909
   7.2036129   7.2251284  59.4926453   6.7390889   8.3413535  58.5820198
  16.2938285  24.7749472  44.5363522  16.3882661  24.7893953  43.5839319
  16.8998528  25.4474354  44.8473597  68.7855053  75.0101423  43.8077879
  68.3719254  74.1539097  43.6980295  68.3777142  75.5605698  43.1392336
  42.0111847   2.7935132  48.3818817  42.8499699   3.1789219  48.6351204
  42.0840359   2.6611608  47.4366808  81.3673210  15.0387061  61.3466215
  80.7068253  14.4545960  60.9740591  81.0030079  15.9163868  61.2318087
   5.6320220  34.5854449  48.7148714   5.8541322  35.4671836  49.0139294
   6.4756387  34.1827464  48.5090160  52.8988457  50.4766321  14.3134832
  53.7219095  50.0008345  14.4248629  52.4639845  50.0354195  13.5837853
  45.9722567  45.4112291  44.8423004  46.5654707  45.9653807  44.3351030
  46.2348890  44.5169306  44.6243906  37.0441747  75.4888630  68.1452179
  36.3383818  75.7332087  67.5465679  37.5704217  74.8602057  67.6511621
   0.3394048  53.0560875  46.0863447   0.8400697  52.4022961  46.5743208
  -0.5745579  52.8621483  46.2944078  36.1404085   2.5001159  51.5657091
  35.9442306   3.0230919  50.7883787  35.8270240   3.0317515  52.2974110
  64.4511080  55.0988054  58.4952068  64.6937370  55.9187555  58.9253807
  63.5910606  54.8841858  58.8564348  35.7065606   4.3899947   3.3651090
  34.8236132   4.1894999   3.6756536  36.2809610   3.8602766   3.9180052
  37.2132659  59.4780016  51.7985201  37.0271993  58.6380863  51.3788080
  36.7799973  59.4213676  52.6501656  78.8411283  77.6978016  34.9538708
  78.2673931  78.4537506  34.8289490  78.2560825  76.9987679  35.2459431
  47.1237135  18.9619195  23.4568191  46.3037443  19.3048656  23.1014681
  47.8054714  19.3719447  22.9245472  30.1177025   2.9006493  53.0959606
  30.6951094   2.5117621  53.7529230  29.7197247   2.1511599  52.6531172
  39.6909189  62.2077751   7.9431146  39.5530224  61.2643528   7.8584504
  40.2153683  62.4428225   7.1776497   2.5789174  21.9773602  31.0783195
   2.3270380  22.7295613  31.6140246   2.2301587  22.1748543  30.2090693
  75.2330971   3.4938645  60.0072145  74.3208504   3.2967055  60.2197409
  75.5438852   2.7172008  59.5419836  24.9833274  32.0645833   1.3090008
  25.4959130  32.3056340   0.5373904  24.5532990  31.2451291   1.0644521
  10.5991697  23.5847664  39.0375018  10.9832406  23.4122920  38.1778669
   9.6565902  23.6232591  38.8753438  46.9469500  22.8130865  14.9442601
  46.0805750  22.5876975  14.6054089  46.9278955  22.5294065  15.8582592
   6.1530763  19.2606556  32.4585986   5.7685816  20.0668311  32.8028035
   5.7385474  19.1435361  31.6037989  63.3555937  63.0127144  13.8369954
  62.5660801  63.5324574  13.9878774  63.0588961  62.1044302  13.8937867
  83.8659382  50.3243446  21.2152171  83.3035374  49.5748663  21.4107251
  83.8927555  50.8231163  22.0317578   3.8807389   0.2693574  20.8989954
   3.9748150   1.2158182  20.7913232   3.8654676  -0.0730291  20.0052547
  50.2577877  52.6085997   9.2292982  49.9234581  52.4616957   8.3444965
  49.9478006  51.8544912   9.7307491  40.3883457  72.5083303  38.4353018
  40.5187035  71.6823244  37.9695129  40.5240202  73.1826639  37.7696443
  49.2991257  72.8008604  60.5170631  49.5300913  71.9926643  60.0591278
  48.3467770  72.8567600  60.4387140  47.3147058  68.4713459  17.5798559
  46.4934492  68.7528467  17.1767092  47.0606470  67.7631378  18.1715739
  14.4036674  21.0868478  43.4659767  15.1804435  20.6622100  43.1019258
  14.3951941  21.9556355  43.0642748  76.1550903  41.0896873   4.8803869
  75.9111023  41.3153172   5.7780463  76.5624905  40.2265358   4.9526796
  64.2417240   9.9902642  26.6397643  63.7749767   9.9786919  27.4753737
  64.1611624   9.0960139  26.3080144  70.5106211   4.1885367   8.5193044
  70.0981426   4.6564233   9.2453748  69.7884655   3.9834738   7.9254425
  70.0977516   4.2516029  41.9768715  69.7004795   3.7980989  41.2334108
  70.8877897   4.6548739  41.6170883  13.2841527   6.0198265  28.9080262
  12.8642583   6.8794709  28.9385581  13.2523143   5.7703841  27.9844499
   9.8280066  76.5111160  25.8445883   9.2532074  76.0161638  26.4284205
   9.2317677  76.9578886  25.2436495  68.0705404  65.0265551  63.9895821
  68.4761333  65.2381754  63.1487846  68.2433701  64.0929031  64.1106319
  79.4953299  45.4392052  28.0995226  80.0154495  45.1094341  27.3667526
  79.9590349  46.2254429  28.3876991  44.1604948  11.7200840   9.9227905
  43.4486771  12.2809064  10.2310598  43.7676668  10.8498216   9.8552567
  20.5881095  52.2589493   9.3538409  20.4262328  53.1166983   9.7466409
  21.1737490  51.8197584   9.9705827   8.7104589  75.6773758  53.8247156
   7.7894038  75.7622385  53.5783672   8.9544404  76.5466642  54.1425896
   0.6475946   8.9464670   1.9125308   0.6017974   9.5583963   1.1779035
   0.0230668   8.2564473   1.6887698  37.1010590   5.9454143  19.8229051
  38.0305672   5.7497776  19.9411130  37.0874286   6.6867143  19.2174959
  17.5932467  31.1803770  33.2035708  17.8667402  30.4622126  33.7742496
  17.9339373  31.9673157  33.6288786  13.9186084  11.3766241   3.1648934
  14.2938900  12.2381437   3.3470479  14.0329540  10.8883202   3.9801946
  65.7842159  64.2173195  44.0113640  66.6500759  64.2035627  44.4192028
  65.1850796  63.9612818  44.7125864  82.4585915  49.2798805  41.4685583
  82.0074654  50.0435352  41.8284845  81.9329453  49.0268135  40.7096863
  19.1636169   8.6359239   2.9206976  18.4476197   9.1393518   2.5332198
  19.8165810   8.5726982   2.2236526  18.1474566   7.9461074  12.8786039
  17.6159382   8.7407660  12.8313017  18.9238858   8.2064307  13.3742058
  72.2035456  79.5710039  30.5710173  72.8283215  79.9956656  29.9831867
  71.8092299  78.8780546  30.0413299   6.9171399  60.2591324  51.3575649
   6.7987746  60.5245113  52.2695923   7.4683321  59.4780016  51.4050150
   6.2220323  74.0518236  33.7797499   5.4368472  73.5043621  33.7823367
   6.8309051  73.5945845  33.1997156  14.9307466  42.7011013  25.7510996
  15.4306054  43.1607580  26.4257050  14.0180922  42.9217052  25.9371901
  75.3734779  68.4618521  32.8561974  76.0861015  68.2098770  33.4434891
  75.0364399  69.2782879  33.2250786  73.7218285   7.4194294  19.4646120
  73.5973787   6.4923006  19.6675324  72.9549837   7.6553887  18.9425933
  11.2759638  23.8055515  13.7923610  11.4285791  24.4638300  14.4703054
  12.1502602  23.5864139  13.4701562  69.5507002  72.8426456  38.3274984
  69.3984747  72.5390005  37.4325895  70.1624346  72.2052336  38.6958981
  70.7254076  31.5501714  49.5394707  70.4198790  30.7974362  50.0457096
  70.0413275  31.6924119  48.8852310  46.2016869  16.8988788  39.2038655
  45.5097723  17.1100974  38.5770726  45.7407570  16.5111446  39.9477983
  27.6581073  75.3618193  17.0284581  27.4385929  74.4762802  16.7388523
  27.7463078  75.2880716  17.9787290  75.1076794   7.6072228  24.9358487
  75.3846836   7.1043938  24.1699100  75.8812904   8.1143028  25.1820636
  75.4301691  47.0705652  64.7041464  74.9067259  47.7317953  64.2513657
  74.7913933  46.5560675  65.1975918  45.9264565  58.2011461  15.6467593
  45.5453300  58.1531715  14.7700202  45.5508518  57.4539423  16.1124182
   9.2553413  26.4568090  10.6807184   8.9906543  27.1095824  11.3288391
   8.7161189  25.6909704  10.8781087  67.5238514  45.9510326  35.6856823
  67.9292440  45.7298994  36.5241241  67.9320383  46.7792416  35.4333186
  47.4162817  75.3842974  30.7588506  46.6611099  75.3391123  30.1724172
  48.1128550  74.9267340  30.2880478  73.5436583  16.8416512  46.8756104
  74.4297981  16.5278018  46.6953611  73.2062864  17.1103406  46.0210848
   1.2148849  72.9884005  43.4324265   1.1079689  72.0752239  43.1661463
   1.1995596  72.9622746  44.3891478  54.4946480  47.8866768  15.0833261
  54.9194860  47.1560049  14.6340311  53.6462355  47.5385141  15.3575683
  13.8953090  16.1874151  33.3322763  13.3460653  16.9444072  33.5360575
  14.3597925  16.0018682  34.1483998  19.8376870  38.2166362  26.7301559
  19.2713451  38.8086009  26.2351155  19.5835376  38.3498597  27.6433325
  26.4519429   5.0570214  56.3555670  26.5825367   5.9746355  56.5946484
  25.8371091   5.0856805  55.6224966  59.4008875  36.2532830  22.3567486
  59.2245340  36.8947864  21.6685581  60.0188351  36.6925812  22.9410291
  49.6188784  21.0689521  29.6145511  49.5737696  20.2997470  29.0466404
  50.3143120  20.8646345  30.2397394  40.7549143   2.0433477  21.5954900
  40.4336071   2.1824697  22.4863529  40.0989580   1.4762188  21.1901259
  11.9265366   1.1329782  32.0186901  12.2372639   1.7798066  32.6521659
  10.9789574   1.2646240  31.9871593  77.9797983  52.9710674  17.5010741
  78.2685232  53.2486248  18.3704591  78.5119724  53.4874344  16.8957770
  28.4155965   1.6608453  18.7834775  27.5408292   1.9731168  18.5521758
  28.4454203   0.7638083  18.4508109   0.5734956   2.1937339  57.5041008
   1.0116236   1.9009829  56.7049932   0.2293974   1.3912459  57.8963280
  34.0816712  69.5017290  63.6102915  34.9040818  69.6279526  64.0835190
  34.1591978  68.6294842  63.2237530   6.7512834  63.8564634  62.3547506
   7.2961539  63.4150553  61.7032146   6.6519797  64.7476387  62.0198202
  63.5947514   5.6548065   7.8156430  62.8397274   5.8296055   8.3774382
  64.2798376   6.2349635   8.1477678   6.2272924  24.3985200  37.2595406
   5.3488880  24.7770834  37.2231078   6.4785028  24.2875671  36.3425803
   3.3006805  29.9516058  28.6553097   4.2116070  29.9402595  28.9491057
   3.3505219  29.7851729  27.7140093  68.2385540  70.5610847  16.0314989
  67.9846573  69.6756649  16.2918699  67.4452353  70.9346151  15.6476259
  73.1746197  71.6132498  37.4837041  72.8594685  71.7606211  38.3754396
  72.7560234  70.7958555  37.2137523  80.2512360   1.5706559   9.4755477
  81.1715317   1.6037284   9.7366917  80.2123165   2.0855722   8.6695832
  67.4306774  11.7179024  15.3660548  68.0946636  11.1597562  14.9613035
  67.8006124  11.9513261  16.2174618  44.4140530  63.9343691  63.5436249
  44.5906734  64.5414019  64.2623377  43.6473608  63.4388733  63.8315487
  25.8563256  32.0384955  14.4148695  25.9164619  32.8112221  14.9765718
  25.9728432  32.3778129  13.5274470   2.0597315  69.8874283  47.1791363
   2.3423068  69.7648239  46.2728500   2.8704301  70.0422668  47.6639271
   5.3551537  26.4807534  50.0627470   5.4127127  26.4369392  51.0172129
   4.4523227  26.7472458  49.8892260  15.7611096  12.6377058  49.9602079
  15.5864429  12.0962000  50.7299471  16.7159605  12.6684105  49.9006414
  18.7369275   6.6494936  45.4109573  18.9665627   7.3635620  44.8163080
  19.5708764   6.2212777  45.6043291  15.2806020   1.3209751   5.6429684
  15.4318583   1.3206430   6.5881419  15.9115839   1.9536130   5.2996558
  68.1881380  14.4017994  24.5154977  69.0276670  14.3245912  24.0622187
  67.8331327  15.2405024  24.2209125  54.8274994  60.6642199  37.8167057
  54.6114397  59.9318647  38.3939457  53.9859533  61.0828781  37.6357126
  52.7123260  22.4148440  57.9477549  52.9878092  22.1551824  58.8269091
  53.5167122  22.3956776  57.4292707  79.9158955  34.0971947  58.5775566
  80.3626537  33.7027955  59.3266201  80.6015491  34.5814204  58.1175137
   8.4265280  18.4183395  18.7509799   8.5423058  17.7423012  18.0832982
   7.5629365  18.2412422  19.1239119  73.7171841  75.6664181  43.7812185
  72.8748941  75.9105730  44.1648388  74.3481064  76.2567282  44.1931677
  23.0414844  36.2340331  11.2178707  22.2953081  35.6696153  11.4200735
  23.0025673  36.3516378  10.2687204  79.3330574  53.5950994  29.7773767
  79.0857220  54.1742086  30.4982686  78.8879061  52.7697992  29.9696088
  16.6213588   0.2929206   9.0836734  17.1030072   0.9181924   8.5421145
  17.2581748  -0.3941970   9.2800480  74.4453096  77.6246214  17.8221369
  73.9641857  77.2830677  17.0684183  73.7970448  77.6564837  18.5256791
  18.6249983  58.4021807  62.8895140  18.5542095  57.7500153  63.5865784
  19.4126511  58.9007044  63.1070185  21.2727070  36.9268155  33.7016654
  22.0385098  37.4251390  33.9870644  20.8494520  37.4888730  33.0526829
   1.8344644  17.3970175  46.5644360   0.9592060  17.7798772  46.6242170
   2.4247788  18.1503320  46.5477657  19.8085821  24.7846174  18.0461514
  19.2377174  24.1491508  17.6142633  19.2075348  25.4029083  18.4617102
  75.9498739   7.8436601  61.1401701  76.5769672   8.4509987  61.5327501
  76.0787725   7.0242774  61.6179037  37.0157361  29.3689871  38.5264993
  36.2218285  28.9006257  38.2684660  37.4678111  29.5465922  37.7016878
  11.8454313  15.0241756  23.2649541  12.7221537  14.8992801  22.9016519
  11.6803133  15.9627151  23.1748891  17.3895609  50.2772617  23.8065529
  18.1486702  50.1474190  23.2381105  16.8576181  50.9294224  23.3505368
  82.1072102  63.7411547  46.2608051  81.4369583  63.1493616  45.9190798
  82.9365158  63.3323240  46.0131407  39.4937468  67.1281672  63.2274914
  38.9503312  67.1697330  64.0143871  39.2676306  66.2900066  62.8242636
  74.1721153  41.8292284  24.8773170  73.8431883  40.9607506  24.6453977
  74.9838352  41.6582346  25.3549194  75.9964991  76.9775629   3.9203486
  76.0324955  76.0304117   3.7868068  75.2668381  77.1064472   4.5263308
  39.8935199  67.8438950  21.1486220  39.0486932  67.4115133  21.0239387
  40.4802704  67.1446180  21.4366627  18.6288035  17.9036045  18.3972943
  17.8101933  17.5280476  18.7214363  18.4082246  18.8101137  18.1832445
  13.6724102  11.0095751  33.1114221  14.6032274  11.2258494  33.0563164
  13.2242882  11.8046772  32.8229260  39.1142035  77.3525476  21.5144801
  39.5815015  78.0676174  21.0825801  39.6309114  76.5724421  21.3127804
  48.0971909  73.2101011  43.0349874  47.3626089  72.6778746  42.7294445
  47.6922083  74.0164328  43.3544397  62.4078321  24.9190402   3.9113480
  63.1771469  24.7697258   4.4609788  61.7675686  24.2758560   4.2156699
  10.8735454   8.7375534  12.3966122  10.9147847   7.8305459  12.0935130
  11.7772305   9.0488023  12.3445594  16.4438057  13.1916022  15.2383542
  16.2701344  14.0384352  14.8273265  15.7324779  13.0812252  15.8692753
  44.3712425  59.6126699  64.0669680  43.6500740  59.6368933  64.6959019
  44.7158337  58.7220097  64.1318703  58.1511211  76.2080765  29.4527006
  58.2143831  75.8880758  28.5527945  58.8863134  75.7953596  29.9059010
  19.2570257  35.5133533  12.8723264  18.7297475  36.3080573  12.7907455
  20.1334929  35.8289838  13.0923533  17.1685135  27.6319766  44.8673725
  17.4878621  28.3152819  45.4567289  16.8833244  28.1043530  44.0852261
   2.5535762  52.0903015  40.7858610   1.9540241  51.9222689  40.0588608
   2.0593050  51.8404722  41.5665770  60.8321714  48.1747103  15.9229505
  60.0735092  47.8464603  16.4055681  60.4573965  48.6374140  15.1734960
   3.5231292  74.0852547  25.6752467   3.0954680  73.2692957  25.9351540
   4.3958816  73.8172054  25.3876972  69.2868423  66.3725281  45.2804852
  70.2104235  66.2266350  45.4852915  68.8360882  65.6154442  45.6544828
  83.9183521  44.2802525  51.3478947  83.4619713  45.0105047  51.7658377
  84.1568851  43.7011147  52.0717287  54.1532803   6.6173100   8.3169383
  54.5708895   5.8055985   8.0289161  54.8733234   7.1508950   8.6531729
  83.8240147  62.3001051  19.4347000  82.9041004  62.0357323  19.4448340
  84.0361118  62.3936749  18.5059965  81.4117718   2.3399149  62.9855013
  81.2338066   3.2438293  62.7256966  80.6229973   2.0654063  63.4531641
  14.8872757  10.4927754  17.2620118  15.8270156  10.6576586  17.3390472
  14.7967887   9.5507979  17.4059606   1.4178222  12.4369133  35.5220628
   0.9430762  11.6210151  35.3634477   1.2290836  12.6500618  36.4359426
  72.2924328  67.6911354   1.3962263  72.4977207  68.3929491   2.0139183
  71.8367386  67.0343590   1.9227418  39.2569160  59.6767235  24.7166038
  39.6348524  60.3948641  24.2089891  38.5822320  60.0921679  25.2536678
  77.3425817   8.9927119  25.3457093  77.9178905   8.3125931  24.9954391
  77.8221226   9.3506932  26.0927844   6.4917642  73.7197495   9.6061063
   6.4313686  73.0325222   8.9425504   7.4124700  73.7196684   9.8678935
  51.7235899   5.5286449   1.2262148  52.5910234   5.5191278   1.6308133
  51.7934513   6.1764890   0.5250377  12.4632347  21.3967156  26.0828996
  12.3265517  21.8623185  25.2578139  12.9307020  22.0223260  26.6363573
  81.3962460  26.5751076  34.0496540  81.2847328  27.5021505  33.8389730
  81.2888336  26.5308094  34.9997759  27.3393297  13.9961350  35.2546525
  27.6854563  13.5784316  36.0432911  26.8462491  13.3041763  34.8138618
  73.3397913  77.4922895  49.9376440  73.7378454  78.3624077  49.9638367
  72.7688885  77.4668646  50.7055283  23.8231111   0.5045293  57.0335531
  24.5854211   0.9198697  56.6303062  23.8238072  -0.3870063  56.6851377
  48.9690447  68.2738781   8.6000818  48.7564468  68.3056211   7.6673293
  49.9203539  68.3748341   8.6324829  79.5174360   0.0626927  34.2478442
  79.2665672   0.0709040  35.1715493  78.8692188   0.6211093  33.8186359
  55.4543352  30.9693193  67.9334784  54.7762203  31.5192795  67.5411320
  56.1852598  31.5667176  68.0918980  32.9836583  34.2376637  24.8060393
  32.1068811  34.5494890  25.0302243  32.9703546  34.1502666  23.8529301
  83.2472897  67.3274183  31.6666555  83.1398010  67.7594852  32.5140023
  84.1610050  67.0423269  31.6573691  18.1036639  50.4765797  13.1394279
  19.0550530  50.4103756  13.0575275  17.7705359  50.2136850  12.2814381
  40.4872894  27.9897809  64.5806360  40.4957294  28.8863611  64.9157524
  39.6670461  27.6197934  64.9070454  25.8271575  15.6972001  68.7152170
  25.6228042  16.4886401  68.2171277  25.2885556  15.7646344  69.5036264
  28.4356356   1.7928647  59.4930553  29.1487741   2.3559189  59.7941160
  27.9231405   1.6133238  60.2813101  62.9553556  15.7161760  23.0398083
  63.5443735  16.4585793  23.1744361  63.2832909  15.0397301  23.6323524
  75.5561447  16.7397022   8.8315767  76.4780664  16.9265819   8.6544597
  75.5742550  16.0063493   9.4464737  24.1549683   8.0051410   3.4877297
  23.9405036   8.9338011   3.3992556  23.6367130   7.5738519   2.8082952
  12.2083485   0.6920727  29.2823505  12.3628318   0.9439770  30.1927972
  11.2572312   0.7298923  29.1814613  46.1198568   8.8550270  20.8166862
  45.3182316   9.3095720  21.0755634  45.8249664   8.1764758  20.2093649
  26.2316227  15.9774745  36.8287826  27.0706940  16.4354646  36.8781257
  26.4215946  15.1825273  36.3305831  63.4638023  14.7721851  38.7720037
  64.1940832  14.3497360  39.2241764  62.7674341  14.8126936  39.4274926
  22.6899743  11.9296694  19.5312011  22.4135828  12.5761247  18.8816345
  23.5001278  11.5642440  19.1757488  19.0728700   9.9625409   5.2542585
  19.0806615   9.3722624   4.5007715  19.9326980   9.8462749   5.6584984
  30.0922537   5.1235056   7.1768337  30.5727887   4.4397807   6.7101008
  29.4550228   5.4460061   6.5395260  78.5635519   4.5610562   4.5835313
  79.2971325   4.6978897   3.9840585  78.0302238   3.8885468   4.1598266
  25.9949636  17.7980101  39.4561481  25.5494714  17.2421467  38.8167858
  26.6427279  18.2812762  38.9432263  39.5822644  17.8256774  36.0242605
  39.9675870  18.0431747  35.1754642  39.9665213  16.9790506  36.2518597
  76.3935757  14.1008484  41.4104176  76.1349487  14.9524117  41.0580206
  75.8288479  13.9757216  42.1730852  10.1668644  18.7425292  55.1756382
   9.4537377  18.7203109  54.5375252  10.1206648  17.8939450  55.6160927
  27.8884697  58.5768604   3.7966505  28.2871103  59.4269753   3.9827266
  28.1683683  58.3711624   2.9046994  81.1310196  70.8792591  29.2579889
  80.5097771  71.1720467  28.5912299  81.8815422  71.4651871  29.1598487
  43.8377094  70.0360870  68.2642031  43.7751579  70.5279970  69.0829515
  42.9828644  69.6155024  68.1715775  42.5718451  25.6054854  17.3429799
  42.5413227  26.3928270  17.8864801  42.9994297  25.8887625  16.5347970
  19.9216700  22.1577024   9.4213629  19.1412079  22.5171399   9.8431653
  19.7885573  21.2099695   9.4391453   2.5715765  27.2311068  32.1518826
   2.5708374  26.3421321  32.5067830   3.0917427  27.7376032  32.7756786
  12.9808199  40.3126669  13.8148618  12.2549987  40.8949757  14.0392125
  13.7493169  40.8830929  13.7986803  27.6352954  65.3761244   7.1996284
  28.2103205  66.0137844   6.7765778  27.2555828  64.8785400   6.4754319
   4.2474777  16.5242708  31.4165139   3.7888217  15.6859386  31.3611412
   3.8917312  17.0401669  30.6929612  78.3646631  46.3155079  49.8634243
  77.9644680  46.5253401  49.0195942  77.7775669  45.6672096  50.2523422
  33.2502031  31.0049367  66.3214159  33.3584738  31.9282246  66.0932732
  34.1416168  30.6567025  66.3400555  84.1367722  13.5932958  60.8002138
  83.7882137  12.9997826  60.1350260  83.3777142  14.0980256  61.0922861
  21.9860196  45.8807325  18.9901590  21.3558841  46.1698484  18.3301783
  22.2571898  46.6857815  19.4312906  29.0693021  60.7931566  10.9486568
  29.8045540  61.1685276  11.4331520  28.8994360  61.4212608  10.2466142
  21.7615366  26.2220907  38.7221241  21.3258910  26.6385341  37.9784703
  21.1970901  26.4169860  39.4702196  56.8397856  78.6691523  61.9304180
  57.6532459  78.8497782  62.4014711  56.2124825  79.2989397  62.2855139
  68.8481712  27.0162439  65.6042719  69.3620014  27.5070310  66.2456274
  67.9610920  27.0080304  65.9637928   7.0752007  44.2842340  17.0081031
   6.6438848  43.8149166  16.2940037   6.5007490  44.1529274  17.7624202
  41.3868237   3.4602174  17.1498454  42.0891762   3.5620829  16.5075421
  41.2733173   4.3350267  17.5214064  32.7336502  14.1993165  63.4453917
  33.1615138  15.0105512  63.1714106  32.8567982  13.6024690  62.7072573
  82.6917648  57.6218653  53.3507156  83.4915543  57.0965767  53.3759403
  82.6420498  57.9393148  52.4490595  38.7295079  28.5771465  22.9844475
  39.5902967  28.6206794  22.5680590  38.4800148  29.4920039  23.1149197
  48.1374645  12.2915471  16.6976357  48.3822155  11.6261625  17.3407459
  47.9881620  11.8003500  15.8897579  82.9846096  72.8007793  52.1613789
  83.0045795  73.7305117  52.3881674  83.0042458  72.3480988  53.0045414
  14.4493389  40.2881479   9.6971232  14.3464923  40.2284193   8.7473404
  14.3189967  39.3925977  10.0089407  22.7161741  23.0154991  27.8472543
  22.1129251  23.6887097  27.5324392  23.1909013  23.4356999  28.5643983
  38.1172419   8.0985415  18.1341064  38.9727616   8.4600395  18.3657050
  37.5011063   8.5558796  18.7063408   2.9145145  25.0361681  11.7342436
   3.6978155  25.3883028  12.1569407   2.5475866  24.4294429  12.3772681
  26.1394501  30.7821393  16.6945863  26.8859196  30.2788258  16.3694859
  25.8267498  31.2671494  15.9309018  17.8538072  26.5407228   2.6958832
  17.4900258  27.2535801   3.2209808  17.3528838  25.7689810   2.9599354
  33.0707026  22.3383713  47.9315472  33.8874769  21.8669415  48.0954504
  32.3975086  21.6579008  47.9302788  15.2556849  24.4478822  47.6422691
  15.5049324  24.1471052  46.7684031  16.0118306  24.9489999  47.9478121
  38.5790563   8.3029294  46.0608912  38.2009077   8.1205624  46.9211102
  37.8847146   8.7596285  45.5859709  56.7680740  10.2098644  24.8197031
  55.8231258  10.0786281  24.8976588  56.9476700  10.9821749  25.3559065
  34.6663690  54.0904140  11.3109863  34.0848565  54.4870710  10.6623411
  35.3570032  53.6773539  10.7926834  39.3738294  42.2920799  14.6296191
  39.7087312  42.3847437  13.7377191  38.4827161  42.6391077  14.5881152
  45.5387878  79.2329168  49.7288322  44.6887684  79.2033577  50.1679516
  45.3254080  79.3077040  48.7987232  11.2870669  79.2888975  23.9218783
  11.3793099  80.2294350  23.7698483  12.1844876  78.9560032  23.9149237
  40.6006527  17.5700283  40.0208473  41.1584425  16.9165945  40.4429007
  39.8604584  17.0683873  39.6792364  83.3502388  10.5492163  66.5785027
  84.0192223   9.9694610  66.2143850  82.6314545  10.5115497  65.9475040
   9.3302363   7.4668902  31.2882423   9.6240294   8.3774126  31.2588024
   9.2023414   7.2864789  32.2195458  21.3351965  29.6106362  58.4787703
  20.4478860  29.6955538  58.1299162  21.6063261  28.7266636  58.2311487
  53.2455444  21.8492103  19.3688011  53.2248783  22.6330638  18.8198245
  53.2500648  21.1214232  18.7470794  47.8404999  67.0627975  63.4303236
  48.3795357  67.0014238  62.6417112  47.1436882  67.6761913  63.1970167
  36.7326617  61.4477491   7.7951276  36.7371750  61.6501236   6.8595767
  37.4350214  61.9860601   8.1600159  62.9441309   6.2002772  41.4069748
  63.0710888   6.9695187  41.9622946  63.1394863   5.4575491  41.9783068
  56.9388723  12.2036791  17.7041399  57.6046848  12.7653122  17.3072863
  56.6207933  12.7037013  18.4558296  31.9151640  38.8341260  11.9022942
  32.7417922  38.4139657  12.1397424  31.3974881  38.8161945  12.7072310
  60.1085377  36.5355802  58.8838005  60.9455061  36.6172457  59.3410158
  59.7933483  37.4353766  58.7986326  52.0781851  42.9816437   1.3308614
  52.7521038  43.6591148   1.2752180  52.4029350  42.3748302   1.9961068
  22.6660538   8.5329509  18.4491837  23.2859135   9.1220093  18.8793194
  22.6528573   8.8235384  17.5372541  49.1097069  18.4475279  12.0915413
  49.6538305  18.5641456  11.3127232  49.7066402  18.5952413  12.8250813
   4.5420471  22.3123479  41.0867357   4.0906152  22.1424627  41.9135237
   5.3844953  22.6854992  41.3461018  72.1050692  63.9219427  64.6148634
  72.2697544  64.8537445  64.7592831  72.0255709  63.8372087  63.6647415
  31.7730570  19.3819451  30.7435918  31.5307665  19.3715155  29.8176217
  32.7263021  19.2950165  30.7427335  16.5407395  22.4069810  34.2561078
  16.8538558  23.2154417  33.8504243  17.1944869  22.2062898  34.9258614
  38.0513263  12.3288703  15.8030570  37.1000481  12.3874366  15.8917785
  38.2707191  11.4616895  16.1437845  18.6158097   7.8214687  42.1074772
  18.0179834   7.9231423  42.8480816  18.6756003   8.6973053  41.7259455
  27.4320269  41.9221830  21.0480952  28.0994654  42.5044346  21.4110494
  27.4604893  42.0836639  20.1050448   4.7453979   7.1766025  37.5520062
   3.7911993   7.1698046  37.6274419   5.0535434   6.8010807  38.3767843
   7.5163108  31.7867255  16.8587697   7.2588795  30.9118128  17.1494353
   6.7134315  32.3045588  16.9176400  17.1728313  79.3723440  12.1823704
  16.9120371  78.7077188  11.5448058  17.3374796  78.8807821  12.9870379
  27.0525527   6.2160385  13.5348427  27.6788068   5.5060005  13.6758494
  26.2125444   5.7737285  13.4124458  13.8957334  28.9724755  24.0654135
  14.8421192  29.1036892  24.0073657  13.6781180  29.1952133  24.9705434
  62.4091959  34.1611147  -0.0140712  62.9971361  34.3406534   0.7196368
  61.5324640  34.1896820   0.3690154   5.7477337  56.1408806  40.0963736
   5.3936052  56.2834120  39.2185855   5.3722703  55.3050804  40.3733158
  19.0704787   9.3952048  53.0587006  18.4357131   9.6485978  53.7288475
  19.0029728   8.4414691  53.0132771  25.2284002  75.4528475  15.0367188
  25.3468966  75.7784891  14.1444480  24.2792106  75.3990221  15.1479602
  36.1312914  19.5620155  27.4676323  36.7627144  19.8324597  26.8010020
  36.3547754  20.0869846  28.2361984  41.6733837  16.3528371  43.6131096
  41.0267067  15.8180618  44.0736103  41.8432283  15.8763874  42.8004694
  39.5464706  67.5790262  34.4380689  40.0697374  67.5335932  35.2382922
  39.1385722  66.7158222  34.3692899  26.6234899  16.3842821  30.8171773
  25.9086466  15.9943283  31.3203335  27.3000979  16.5714645  31.4678693
  61.9118357  14.5726764  45.2190781  62.6952887  14.4070268  45.7434702
  61.6058350  13.7022817  44.9641085  20.9902096  40.1242495  20.5814266
  20.8428073  39.3080115  20.1036620  21.5228844  40.6553984  19.9895024
  62.1768713  19.0052176  12.4807918  61.7119598  18.2278228  12.7902234
  63.0960131  18.7394273  12.4531090  34.4110727  17.6561773  47.8465843
  34.7754645  16.8618357  47.4561071  34.3698192  17.4652398  48.7836409
  19.1400146  37.3914266  22.4511766  19.6177578  36.5887833  22.6603556
  18.9816761  37.3371983  21.5087223  65.4070091  34.8590732  64.4591284
  66.2194538  35.1514697  64.8722506  65.1547050  34.0787005  64.9526787
  78.1058407  32.8530431  13.6315620  78.5534620  32.0148325  13.7467551
  77.1763134  32.6262975  13.6034024  17.8126812  12.1918237  18.2243800
  18.1217182  11.2893760  18.3038545  17.8175509  12.3646247  17.2829199
  15.3951991  42.5452423  35.8913589  15.0139666  42.8738117  35.0771475
  16.0122609  41.8692398  35.6112123  34.5551968   9.7140163  27.4655318
  34.9240041  10.0989485  28.2605433  33.7372184  10.1910639  27.3256397
  29.9265242  18.0299532  50.5461884  30.4599333  18.7937737  50.7659197
  29.4669032  17.8171241  51.3583946  40.4198265  20.7144880  33.1515765
  39.8057485  21.1132455  32.5350285  41.2159967  21.2395549  33.0700374
  20.8139920  70.2507019   1.8755193  20.4770398  71.1463976   1.8962102
  20.1223278  69.7443867   1.4495154  11.3155985   2.7258435   9.4949508
  12.2535121   2.6658824   9.6764863  11.0326290   1.8170317   9.3938535
  73.8264227   2.2858196  23.6206365  73.5630798   1.7758693  24.3866873
  73.5429430   3.1784901  23.8181496  39.1140175  26.3848233  30.6437159
  39.0459275  27.3119521  30.4156208  38.3089757  25.9946585  30.3032613
  73.3609581  33.3730364  37.9068637  73.4148359  32.9912949  38.7829924
  72.8453732  34.1708827  38.0245280  20.5296946  43.7077808  19.1648364
  21.1617732  43.0175114  18.9642477  21.0672522  44.4611406  19.4092047
  17.7204740  31.5838933  30.1867318  18.3409393  30.9393501  29.8464084
  17.8066301  31.5202880  31.1379218  81.0988903   4.5739284  23.3113503
  80.4172421   4.8326033  23.9315701  81.1245537   3.6187673  23.3682752
  42.6940918  27.2330332   3.8118705  42.6731539  28.1589031   4.0538564
  43.6027145  26.9684339   3.9554581  37.6704216   3.4104240  39.0405464
  37.1378922   4.1779011  38.8316870  37.2412658   2.6888177  38.5808277
  79.1825771  18.0467272  26.8805861  78.5688210  17.3128033  26.9104576
  78.6900330  18.7855506  27.2380400  80.1564312  68.7828779  67.8219271
  80.7095909  68.8545227  68.5998201  79.4541311  68.1865454  68.0815363
  57.7400732  32.4979520  11.7091680  57.9383087  31.9859958  10.9250534
  58.0263329  33.3857107  11.4942932  12.5426364   6.9326991   3.1663072
  12.7288556   6.1063701   2.7205101  13.4023809   7.2637612   3.4260562
  19.2595124  14.8359680   1.5233018  20.0003815  15.0125968   0.9435207
  18.9110148  13.9982939   1.2182063  30.9219956  32.8150272   2.1801168
  30.3260326  32.9826045   1.4500645  30.6656575  33.4498191   2.8491175
  21.1641908  14.2105913  26.5027428  21.5530753  14.7228706  25.7938218
  20.2749491  14.0226150  26.2024999  35.7262421  67.2566557   6.3493955
  35.0609112  67.8357553   6.7211622  36.5307927  67.4867678   6.8141317
  29.1274881  34.6122408  17.3585165  29.8165941  35.1300216  17.7747691
  28.8317227  34.0125012  18.0434024  81.0930157  49.4354105  53.7476206
  80.3848457  49.9736881  54.1011667  80.6467533  48.7349701  53.2717276
  10.5285168  63.9082527  13.0931902  11.4503050  64.0909672  12.9111099
  10.3921664  63.0180883  12.7687681  18.1278181  12.8907812  22.7330065
  18.9907253  13.2746196  22.5771475  17.6087093  13.6081290  23.0965590
   7.0119947  14.9275672   8.1438607   7.2418153  15.7586527   7.7282757
   6.1107147  14.7624791   7.8669637  77.0830727  44.3384218  35.6855893
  77.8537703  43.8401270  35.9575462  76.4262438  43.6721897  35.4832602
  23.4960914  35.4936266  39.9356484  23.4762287  35.5141759  38.9788747
  22.5984335  35.2788973  40.1892900  30.6082225   3.1437939  60.7461023
  29.9875903   2.9135606  61.4375067  30.6150079   4.1009459  60.7393312
  53.2620478  78.0060863   2.0495531  52.7859402  78.6802769   1.5647605
  53.8171625  77.5857544   1.3927428  65.8829498   4.6150619  56.9306850
  66.8014193   4.5138717  57.1804905  65.9047031   5.1904023  56.1660004
  38.3099127  32.9228950  49.4786978  39.0951228  33.2362032  49.9275970
  37.6762199  33.6329937  49.5808125  29.7851372  14.1884935  43.5070515
  29.8460150  13.6101246  44.2673254  30.6711674  14.2023969  43.1451321
  46.7405701  20.5571151  40.0026655  47.0284653  19.8969507  40.6331682
  45.8827734  20.8361602  40.3229046  23.8876224  16.5632164  38.0309200
  24.5476174  16.3032734  37.3882174  23.6693883  15.7528615  38.4912777
  77.4526167  62.2515202  52.4500036  78.2288647  61.9309187  51.9907808
  76.7461395  61.6760683  52.1567869  19.1244733  21.0042238  66.6813850
  19.4443083  21.7118764  67.2409964  18.2712257  21.3095760  66.3732290
  10.4211307  46.7114449  16.1784530  10.1219046  47.3376131  15.5192041
  11.3045073  47.0038080  16.4029527  58.3092642  42.4513531  67.0631504
  58.2359219  41.5480757  67.3712778  58.9597416  42.8496313  67.6414967
  44.8543072  14.1832316  12.9796481  44.6943331  14.6930563  13.7738252
  44.4550753  14.6992838  12.2792673  10.2411246  74.9494648   7.7299076
   9.5848292  75.4273701   7.2228450  10.7291746  75.6307173   8.1924379
  28.0453181  29.9311471  51.8013668  28.9253736  30.2868247  51.6779757
  27.5833392  30.1487803  50.9917736  83.0222988  42.0288277  30.2461028
  83.0004120  42.5545216  29.4464779  83.9080429  41.6667509  30.2705288
  79.2460251  10.4041088   7.9437917  79.4297218  10.8958280   8.7442285
  79.1920996  11.0715067   7.2597563  56.8325806  15.2405369  37.2807360
  56.4671326  16.0272217  36.8760061  57.7649164  15.2718771  37.0662642
  73.2548475   5.3197837  21.2613964  73.8461637   5.8597016  21.7858624
  72.3839045   5.6732702  21.4423251  27.0608783  30.5072951  62.2974491
  26.1485195  30.2665997  62.4583769  27.3292971  29.9526262  61.5649700
  24.7255731  11.5280926  43.4955168  25.5542541  11.9341183  43.7498045
  24.2186046  11.4902008  44.3065500  29.7786593  37.3806691  39.7189665
  29.1603446  37.2397280  40.4359436  30.4822445  36.7526150  39.8825145
   2.3745655  48.1302214   8.5795891   1.6157976  47.9547071   8.0230832
   3.1015682  48.2379913   7.9663324   3.5831696   4.0237466  34.3325806
   3.1455123   3.7757280  35.1469374   4.0445548   4.8347926  34.5460296
  82.9326534  36.3311577  39.7448444  82.7519226  37.2709703  39.7269630
  83.8873768  36.2702012  39.7129917   5.3701586  17.3269951  17.1691096
   6.2435549  17.0326829  16.9106698   4.8784801  17.3671758  16.3488233
  11.3873374  36.3502240  26.8751359  10.9582090  36.6967249  27.6574516
  11.9801414  37.0487499  26.5978670  24.2394304  75.7966661  12.2443962
  25.0762773  75.9983253  11.8257618  23.6519718  76.4942694  11.9537568
  22.8937602   4.1227949  27.5232124  22.2908735   4.8096359  27.8078365
  22.5288129   3.8120064  26.6946864  35.0713086  51.0817480  17.0005703
  35.2093673  50.1401949  16.8973589  35.9268570  51.4219999  17.2622859
  69.6512079  53.8424921  33.8450885  69.2551088  54.2475891  33.0735779
  69.0493536  54.0496254  34.5600009  46.1254740  79.1246557  14.2347932
  46.7212534  79.1247082  14.9839771  46.7016077  79.1427326  13.4706116
  74.1612959  32.5932980  55.8431005  74.6848679  33.0098724  56.5276241
  73.2571554  32.8175640  56.0632610  20.1007581  64.5690584  36.3494825
  20.1755023  64.5780373  35.3952479  19.2742634  65.0172091  36.5292168
  28.5843968  54.4128418  27.1996331  29.0443683  54.5870256  28.0208015
  29.2671156  54.4514704  26.5298295  40.6088543  34.0757608  50.2756977
  41.3897181  34.3717289  50.7435417  40.6474304  34.5299077  49.4339752
  13.0860269  16.0942650  26.5429163  13.3801961  16.0466015  27.4525452
  13.0340254  15.1813531  26.2598610  66.5849066   5.6217289  64.3516016
  66.1897898   6.2387526  64.9675512  66.6618490   4.8057842  64.8461151
  32.0779061  22.6322222  20.5236983  32.0822120  23.5510230  20.2553368
  31.8551111  22.1509933  19.7268188   7.1208996  37.7429342  29.3710279
   6.2871671  38.0914783  29.6866870   7.2723663  38.1978035  28.5425425
   1.3967453  76.3404322  12.8900969   1.3332810  76.0835600  11.9701946
   2.2392373  75.9898376  13.1790960  31.0437822  21.0526991  54.7859430
  30.2257729  20.5691242  54.9010420  31.7024183  20.3757024  54.6306849
  72.2095919  10.9410179  29.1161084  71.8102694  11.1626267  28.2748818
  72.0130301  10.0120807  29.2372322  20.2331781  26.6975594   1.4453207
  20.8913684  26.2929940   2.0104226  19.4250023  26.6643643   1.9571641
  13.6439967  45.1700211  13.9279485  13.3846104  44.8818016  14.8030949
  14.5668995  45.4075480  14.0177464  23.4443259  35.2314615  59.0056562
  24.0215278  34.6191168  59.4618368  22.6808834  35.3121591  59.5773840
  19.3014634  39.4178700  29.0356493  18.5270071  39.2915273  29.5838165
  19.1913199  40.2928448  28.6634707  36.4845848  27.7966237  14.7654760
  36.9111490  28.3223915  14.0888345  36.8130136  28.1552005  15.5899692
  33.2036519   6.2296790  61.6963434  33.5460830   6.5400267  60.8580971
  33.1736755   5.2773190  61.6050053  52.6671362  27.2012424  20.1188040
  53.5969925  27.3651218  19.9615180  52.2345638  27.4831104  19.3127871
  37.3142004  50.2164459  20.1394129  37.4488878  50.9513283  19.5410538
  36.8169713  49.5786572  19.6273327  55.2425480  16.5339351  42.0932913
  54.5353508  16.8265915  41.5184402  55.6542826  15.8121777  41.6181374
  29.8967075  75.2044249  28.1731868  30.2932096  75.4165077  27.3281765
  29.6327162  76.0511684  28.5331416  71.6272831  12.2672713  61.4566565
  71.7690372  11.8994939  60.5843735  72.4218893  12.7696431  61.6368055
  72.1513605  79.0447855  58.6501551  71.8464041  79.4056082  57.8176641
  72.0203924  79.7531033  59.2805243  14.6836281  39.9499464  38.0876064
  15.1774549  40.7335186  37.8459907  15.2099323  39.5367265  38.7720656
  57.2479343  49.5761776   3.7988266  56.4292002  49.2699289   3.4087968
  57.7237034  49.9783707   3.0721131  40.8581734  77.4072552  18.5990083
  40.5661011  77.1585512  17.7220416  41.7335653  77.7708101  18.4657824
  78.0481863  33.4069777   8.0107427  77.6064730  32.6616096   7.6038706
  78.9642859  33.3144689   7.7491307  10.8776724  17.5639772  28.0730796
  11.5256214  17.4062884  27.3864007  11.3962126  17.8028250  28.8413906
  23.0601859  29.5346475  19.2457044  22.9216075  28.5896063  19.3083560
  23.0951524  29.8323774  20.1547503  73.1532001   5.6142426  25.7263494
  74.0197134   6.0207337  25.7385802  73.2490349   4.8297054  26.2663031
  84.4052124  41.6103411  47.4778318  83.5959911  41.4238739  47.0017815
  84.8023033  42.3380899  46.9993639  74.4699860  27.1552134  30.8504844
  74.1356230  27.8836942  31.3736963  74.5547056  26.4326286  31.4725184
  34.0040660  10.1006866  42.0075512  34.8971367  10.4262352  42.1201277
  34.1098714   9.1643035  41.8395519  62.5575781  66.2390566  34.8671603
  63.4500265  65.9325123  34.7065616  62.0681620  65.4465532  35.0877190
  18.8844144   5.9416890   2.5970191  19.2174351   6.8248403   2.7563068
  18.3376789   6.0290891   1.8162031  43.5594463  26.2226415  14.6918178
  44.4703388  26.3202429  14.4143629  43.1749392  25.6289315  14.0469170
  57.8353739   3.7347457  31.9619131  57.6982498   3.2159579  31.1692667
  57.6518202   4.6350628  31.6936445   4.1058689  34.5041060  39.8548460
   4.8166195  34.9246001  40.3388405   3.4008747  35.1515722  39.8539305
  21.9789791  23.3473158  38.0599141  22.0100522  23.1174827  38.9885926
  21.9780087  24.3044639  38.0499554  51.1844063  66.5306759  67.4455118
  50.6910133  67.3308277  67.2650814  51.3635397  66.1597729  66.5814686
  79.5809555  57.2781610  60.9708595  79.4235420  58.2223272  60.9714746
  78.8469648  56.9132900  60.4765320  55.9972239  28.5942388  54.4472980
  56.2366343  27.6678896  54.4191313  56.7334890  29.0186191  54.8878050
   8.3518201  30.3973556  32.7173042   8.0576289  30.3672457  33.6276770
   7.6167256  30.0440836  32.2162390  13.1457722  47.4317551  31.9636798
  12.7313149  47.7744341  31.1718297  13.9815331  47.0759487  31.6617870
  27.8673267  14.7266316  53.9166832  26.9285846  14.7287464  54.1037416
  27.9695821  14.0875280  53.2114697  75.8520269  40.5050993  66.1022472
  75.9986973  41.2540913  65.5245495  76.7302418  40.2303362  66.3658285
  71.5059090  68.6781168  63.0654097  72.0182562  68.7376404  63.8717556
  71.3501453  69.5881701  62.8128815  53.6903667  37.8341317   4.7994766
  54.1741467  37.7034020   3.9839387  54.1487455  37.2899032   5.4397404
  69.8638296   0.6257620   8.6351711  70.2272034   1.3476735   9.1480428
  70.6295490   0.1807921   8.2719773  31.5078735   8.3882672  25.1689553
  31.7036891   7.5941908  24.6716309  30.5524015   8.4074020  25.2231836
  71.0966158  19.5070541  25.4569149  71.7517185  20.1953053  25.5726099
  70.5609417  19.8072541  24.7226381  12.2093332  14.1975403  35.8329344
  12.0744848  13.6335850  36.5945125  11.3691723  14.1857851  35.3744340
  78.3340931   9.4011450  58.4941673  78.7010765   8.5661608  58.7846041
  77.6276875   9.1572016  57.8960752  80.4392052  46.0140371   9.1228658
  80.4125023  45.1931286   8.6313123  80.2133274  45.7641602  10.0188410
  28.4238386   8.4233904  13.6748064  29.0360212   8.2067800  14.3780446
  28.0676222   7.5789094  13.3987772  44.0362263   9.5638537  14.1910446
  43.1351614   9.8018277  13.9726865  44.5185280  10.3896821  14.1507494
  73.2540369  53.9916182  13.9575136  74.1449785  54.0493727  14.3026531
  73.3696938  53.8677168  13.0154395  54.3288803  70.9930277  60.9316635
  53.5375118  70.5220795  60.6705523  54.5976305  70.5747318  61.7496109
  35.8877397  49.0455914  11.1105514  35.9323931  49.6245670  10.3496134
  35.2058506  48.4113359  10.8892381  83.4708786  17.8952122  48.5475922
  84.2236233  17.8730690  49.1384554  83.1372452  16.9980454  48.5510015
  31.2302589  20.6210923  27.4061775  31.3575482  21.3741207  27.9832172
  30.4823637  20.8619785  26.8594956  48.1481647  36.5849042  28.7941670
  47.5302076  35.9146404  28.5024357  48.9889288  36.3114691  28.4273100
  26.5818334  67.2326899   9.5447236  26.1329746  66.4266777   9.2895824
  27.1950054  67.4020672   8.8294864   6.9023752  17.8663719  25.2083182
   7.5790375  17.8106236  25.8830404   6.2216997  17.2604072  25.5010962
  45.5828810  35.5973935   4.0235832  46.4493418  35.8625603   4.3320796
  45.6037188  34.6406436   4.0442771  15.7341087  47.6910686  24.2654824
  16.5475500  48.0969810  23.9658475  15.1983988  48.4239244  24.5690727
  65.1547384   6.8114495  43.5117865  65.4038620   6.4784360  42.6496553
  65.9808969   6.8785262  43.9905310  33.5020280   9.8355246  14.7647643
  33.6298013  10.3949082  13.9986074  32.5521564   9.7424102  14.8376048
  34.4600654  33.2554173  26.5710211  34.0566635  33.7940526  25.8903074
  34.4516850  33.8096905  27.3513699  64.3128252   4.1860154  39.2523408
  63.7767458   3.4172636  39.4469428  63.6971521   4.8208550  38.8860679
  35.9821916  37.0688105  37.1103072  35.4499078  37.6287842  37.6754045
  36.8442202  37.0590091  37.5262880  84.1063499  63.5672617   7.6567978
  84.1695595  64.2407227   6.9795334  83.2914066  63.7667179   8.1175786
  71.1172581  74.8423338  57.2409630  71.7899084  74.1786957  57.3937893
  71.4030313  75.2946663  56.4472628   1.2868030  38.3510756  28.8654733
   0.6080099  38.2950306  28.1929159   0.8481577  38.7524462  29.6156216
   5.2664751  75.6170845  41.4232397   5.9268355  75.7692242  40.7472134
   5.1713818  76.4635229  41.8599701  20.4400969  43.5806179  44.2840004
  21.1265731  43.3954000  44.9248409  19.8372006  42.8408670  44.3582726
  52.7394676  55.4792643  63.4619951  53.1514311  56.2515068  63.8494968
  52.1475029  55.1570988  64.1417122  10.3641462  29.2807746  27.5222445
   9.7233433  29.4489312  26.8313575  10.6325138  30.1510286  27.8169799
  35.5531430  26.8521523  38.3708048  35.7270432  26.3024282  39.1348696
  34.6028614  26.8167114  38.2615352  60.4640102  75.3590488  54.3183661
  59.8319340  76.0529041  54.1305494  61.0284042  75.3336191  53.5456800
  13.4495616  10.9221232   8.7563396  13.2460093  10.0818348   9.1670865
  12.8700304  11.5477991   9.1909713   7.6693356  12.1461189  33.7894058
   7.3712432  13.0429780  33.9411211   6.8823743  11.6112852  33.8936973
  32.7062011  18.6718214  42.9030704  32.0733666  19.3807685  42.7884054
  32.3581767  18.1553411  43.6299515  37.8321671  28.6177158  50.4285955
  37.4529505  28.2157326  49.6470356  37.5868011  29.5408273  50.3661966
  37.8327227  28.8472700  12.4175835  37.7419472  29.7857356  12.5827193
  37.0194507  28.6019421  11.9764054  41.5152931  60.7037210  18.8060629
  42.0360613  60.0587177  18.3275175  40.6426048  60.6428051  18.4175563
  27.3169017  27.0325327  13.6944079  27.7270889  27.6847982  13.1264937
  26.6524553  26.6190290  13.1432664   9.9109560  30.8075905  18.8964903
   9.5403033  31.6168571  19.2485332   9.2447537  30.1429677  19.0716588
  41.6520071  16.8026936  29.0304112  41.1258936  17.5461578  28.7359619
  41.9636631  17.0586765  29.8984957  19.0094006  33.9958906  46.4682293
  18.2662964  33.3970928  46.5421724  19.1965759  34.0306377  45.5301523
   2.9935855   1.9284564  65.4402208   2.4860629   1.5313706  66.1480188
   3.4878916   2.6299256  65.8642912  64.6269560  71.0766697  46.9494247
  64.7258949  71.9857740  47.2322083  64.8956871  70.5591297  47.7084780
  25.7377338   8.3262771   5.9646165  26.3687444   8.8898653   5.5169272
  24.9624085   8.3418339   5.4034913  26.6704655  29.9295926  22.8048849
  27.0639777  29.5354271  22.0264149  26.4927602  29.1889167  23.3845854
  21.3855147  28.9941597  40.2073336  21.2753367  28.2893682  40.8455849
  22.2806978  28.8880110  39.8854470  15.2717257  53.4065771  32.4444056
  15.3593552  52.5977564  32.9487467  14.3981409  53.7313938  32.6625276
  53.2106638  10.5625546  19.5874953  53.6668730   9.7692853  19.3067276
  52.7736187  10.8799195  18.7972414  21.7184591   7.8051358  39.4641685
  21.7073059   7.0280653  40.0229788  22.1887350   7.5279760  38.6778760
  21.2066388  52.8612471   6.7979658  22.0434451  52.9687023   7.2501159
  20.5941796  52.6014185   7.4861640  33.9072013  34.8521256  18.9315867
  34.3985939  34.2724037  18.3496177  34.4428134  35.6433153  18.9896405
  32.4798369   0.7284629  28.8273001  33.0202317   0.0384694  28.4424448
  31.7585802   0.8411741  28.2081771  46.4538622  19.6905971  62.2882032
  46.3320446  20.5442238  62.7037954  45.5653524  19.3799257  62.1142387
  63.8820362  67.4372387  67.8575373  63.2118034  66.8486738  68.2048368
  64.7055435  66.9681025  67.9916239  26.5320587  36.8827367  14.3567657
  26.0042024  36.6129899  15.1083219  27.4369359  36.8019652  14.6582687
  14.6226382  35.6329560  18.4273720  13.7353027  35.9134889  18.2033908
  14.5835412  34.6767473  18.4082031  32.9341364  40.6609821  16.4973140
  33.8737345  40.6771898  16.3153064  32.6830983  41.5835381  16.5431190
  63.0698490  60.7232714  60.4825163  62.9530764  61.4493132  61.0952616
  62.6463699  61.0193920  59.6767807  22.7765918  39.1707277  39.3805313
  23.0632997  39.4846392  40.2381372  23.5563779  39.2346859  38.8291025
  31.9460630  38.9510489   7.2116780  32.7698421  39.2888260   7.5631452
  31.7627263  38.1724262   7.7373827  72.2360849  52.3949480  26.8829679
  71.6429329  52.5325155  26.1444020  71.6734362  52.0659208  27.5839663
  14.6971500  21.9310975  19.5419538  14.8479772  22.1095276  18.6137044
  13.9028096  22.4212551  19.7540855  17.9726493  46.5854073  19.2769682
  17.8976202  46.0798836  18.4676147  18.5871339  47.2878981  19.0644932
  31.5654039  23.0576682  16.2323833  32.3889041  23.0560064  15.7444513
  30.9096766  22.7714205  15.5965245   4.5057023  50.7604980  17.4730015
   5.3439873  50.8408928  17.9280245   4.1074422  49.9722385  17.8421450
  12.0366788  53.4350109  25.2238870  11.2747729  52.8840876  25.0443959
  12.7881181  52.8641272  25.0636959  34.3137026  15.2622700  19.1707397
  33.4707284  14.8983502  18.9002085  34.2379522  15.3622878  20.1196814
  59.0327597  13.3847892  52.7687025  58.4214926  13.9208484  53.2738972
  58.6848354  12.4957061  52.8373146   8.0193347  45.3379679  10.9066153
   8.4075332  44.8881960  11.6571093   7.1603072  44.9292517  10.8005309
  74.5452070  76.2895060  31.5328956  73.6429977  75.9698534  31.5247607
  74.5725679  76.9109869  32.2603846   7.6251453  28.1619215   2.6821640
   7.8124440  28.2769036   3.6137915   8.0457979  28.9104652   2.2591208
  28.1305957  17.5363028  22.9897237  28.2155323  17.4973118  23.9423513
  27.3612022  17.0009172  22.7957463  48.1467342  11.7537105  21.0981464
  47.9211140  12.3938346  21.7731047  47.5376320  11.9354856  20.3824782
   9.9695790  36.9699097  29.0871763   9.0575194  36.9809842  28.7969041
   9.9610388  36.4389491  29.8835683  51.0121775  66.3142061  24.0461993
  51.9133520  66.4056253  24.3556523  50.7525539  67.2018003  23.7992001
  33.7313128  46.6458225  29.1189313  34.2792678  46.9170856  29.8554063
  32.9908895  47.2522402  29.1351700   8.4950644  38.1388664  26.7648363
   8.2588279  39.0579438  26.8902183   9.3466330  38.1678057  26.3286877
  25.9720850  11.9090009  33.7643147  25.3993106  12.6069987  33.4465742
  25.5918074  11.1061919  33.4077764  22.8684831  16.5261412  55.1023722
  23.4770393  17.2641933  55.1365805  22.1561408  16.7755830  55.6910849
  63.4545088  50.8544207  43.6686563  64.3523932  50.8822489  43.9992046
  62.9902554  50.2868509  44.2839289  22.0188093   8.5088754  55.4351234
  21.9041634   8.9829904  54.6115303  21.1481643   8.1665099  55.6375933
  36.0214257  40.4814720   6.3724637  36.8968105  40.6019258   6.0044670
  35.4847646  40.2068281   5.6289589  38.6250591  23.4168220  54.7472000
  39.4153643  23.9070129  54.9738312  38.9426208  22.5437975  54.5165157
  27.0400000  71.2582159  31.1931872  27.3092937  70.4946709  31.7037845
  27.5716162  71.2144709  30.3983903  31.7956996  31.7816234  24.7231746
  32.3858023  32.5053453  24.9335003  31.4034128  32.0281267  23.8855720
  47.1969557  64.2548275  11.5844691  47.1081734  65.1978254  11.4462709
  47.6668930  63.9426279  10.8112133   7.0545000  56.5953970  58.0649662
   7.3841685  55.9654570  58.7058449   6.1594301  56.7802858  58.3493948
  29.4443512  40.7303953  15.8112061  29.2661214  41.5774870  16.2197423
  28.6853004  40.1919889  16.0352504  73.2313299  31.8125319  32.0553827
  73.2232523  31.6001415  31.1220789  74.0920973  32.2037697  32.2045445
  40.2799845  60.9790850  33.5272431  40.2398109  60.6033707  34.4067073
  40.0462914  60.2549410  32.9465246  78.5794783  79.3317461  21.3708448
  77.6495218  79.2949724  21.1471057  79.0040588  78.7690973  20.7232451
  49.7682571  48.4737110  42.1371698  49.3469572  49.3327618  42.1093655
  50.2975225  48.4406090  41.3402891  63.6286592  68.1909895  27.3231816
  63.4158993  67.6104498  28.0538917  63.5411882  67.6394415  26.5457654
  38.6687541  45.7088804  17.0479000  38.0861831  45.1287127  16.5577519
  39.4948077  45.2283859  17.1025670   5.1696599  51.2181902  42.5748682
   5.1790667  50.6485987  43.3440924   4.4594568  50.8758831  42.0320368
  24.5003700  10.1933491  31.8403077  23.8241458  10.6384170  31.3295555
  25.1603746   9.9403244  31.1948609  64.7722530  59.9713278  54.1372538
  65.0081491  59.1803074  53.6526203  64.5604849  59.6590424  55.0169468
  34.5086408  71.8537664  34.9659061  35.2187109  71.4742708  35.4836035
  33.8968015  71.1299801  34.8316813  66.8409634  38.9239192  12.5989473
  66.2664509  38.2006645  12.8500783  66.4494276  39.2740679  11.7987430
  44.5963478  73.3465672  25.4958534  44.6461201  74.2985916  25.4098082
  45.5079317  73.0651236  25.5735564  80.9749413  44.9907064  58.2867956
  81.7612553  44.4743204  58.1099033  80.3179264  44.3450785  58.5470390
  81.0719109  53.7433386  27.6603866  80.6813717  53.6593771  28.5302520
  80.9807491  54.6716452  27.4455047  41.6199255  77.9975700  -0.0496858
  42.3749781  78.5810614  -0.1249458  41.2167454  78.2341242   0.7856113
   6.2299472  31.2973571  25.0964022   6.6903031  31.2817407  25.9354854
   6.7300701  30.7023978  24.5377135  59.3330908  49.2190409  40.9999037
  59.9138403  48.9981031  41.7280197  58.4780979  48.8791084  41.2638378
  12.6861823  76.5907860  12.2321332  12.3852193  76.4187193  13.1243479
  13.3247113  75.8994627  12.0572412  68.8216543  45.4633427  18.6302805
  67.8875685  45.4706621  18.4213400  69.1882086  44.7833824  18.0650175
  46.3101101  61.7016315  32.1039104  46.1399555  60.7841873  31.8904305
  47.1898365  61.8672323  31.7649555  53.9337587   7.2700560  32.2386909
  54.8584986   7.0820433  32.3991179  53.8130140   7.0986485  31.3047361
  61.5732050  62.9880428   7.4640459  61.9682074  62.2834015   6.9505447
  61.4654064  63.7068558   6.8412137  66.9424820  51.2847090  31.4331889
  66.9499207  51.6441393  30.5460644  67.8059292  50.8847713  31.5368199
  34.0664029   8.0113739   9.1596705  33.3618760   7.3763764   9.2887038
  34.0260053   8.5743320   9.9327666  67.7657747   5.0785595  51.3419485
  66.8528414   5.3581619  51.2740517  67.7528858   4.1552764  51.0897303
  49.8003531  44.8487949  53.7876749  50.5092335  44.6337700  53.1814718
  50.2389288  45.0008535  54.6247911  59.1509867  75.5512428  57.5064945
  59.3619394  76.1313057  56.7748833  58.4433794  75.9986448  57.9705524
  55.2095795  58.7083244  27.5143051  55.5476761  58.4483433  26.6573763
  54.7758293  57.9233646  27.8488564  52.0894766  65.0093889  52.0616961
  52.2927666  64.1488934  52.4283791  51.1331606  65.0369072  52.0312214
  38.1112599  56.4317274   2.1941291  37.6559138  55.9103680   2.8552493
  38.1771922  55.8518171   1.4354515  26.5078950  56.2625122   6.0180742
  26.7385554  56.8828535   5.3265524  25.6830931  56.5946817   6.3724697
  47.5522614  75.3040934  20.1662803  48.4686184  75.4063702  19.9092543
  47.5527716  74.5547819  20.7618999  60.0857067  35.1257372  51.9939947
  59.5507431  34.3435264  52.1288729  60.8939743  34.9490476  52.4753618
  81.8432808  45.0774431  25.9638762  81.9356060  45.6920671  25.2359009
  82.0920563  44.2299938  25.5948639  22.6282978  55.9117842  24.2290902
  22.1741748  55.9456539  23.3871555  23.2303119  55.1721478  24.1469240
  53.0264950  20.8066702  25.3761387  52.9805279  21.5648651  25.9585977
  53.9475107  20.5465674  25.3937936  62.7062368  78.5141802  29.2310858
  63.0099106  78.4991884  30.1387143  61.9587374  79.1120338  29.2384696
  73.6810398  32.7769756  20.2653480  74.5992899  32.9987121  20.4198956
  73.6861563  32.3004651  19.4352007  68.8865614  55.5127239   0.5875807
  68.4598351  54.7788954   0.1452717  68.9311457  56.1999321  -0.0772408
  17.0652032  59.9102068  -0.0359007  16.3747811  60.2951002   0.5039173
  17.6444995  59.4757271   0.5901007  75.8947515  56.4714813  26.2071300
  76.2846756  56.2391329  25.3643942  75.2509594  55.7824039  26.3712788
   2.5275892   7.8875041  25.5270672   2.1664895   8.6320448  26.0082078
   1.8309107   7.2312933  25.5431628  73.3885145  73.1556225  25.6778884
  73.5224247  73.2737160  24.7374868  74.1043568  72.5821400  25.9515953
  16.8566334  32.7837467  21.4489198  17.5482500  33.2173896  20.9490657
  16.6731024  31.9824743  20.9584999  70.8946657  73.1926441  24.7783995
  70.5678654  72.2950888  24.7164869  71.7350769  73.1109762  25.2292609
  28.1554651  63.2083607  12.7286410  27.4701905  63.8391256  12.5078118
  28.2387161  62.6617813  11.9472611  54.2503834  50.5625963  37.9829240
  54.0410948  51.1650991  37.2691870  54.8904896  49.9585724  37.6065540
  46.3527775  55.5442572  12.3547149  45.8800793  54.8717546  11.8642724
  47.0215321  55.0611305  12.8400862  33.4366989  24.8909140  27.8416824
  33.6852884  25.8038783  27.9863644  32.5876570  24.9405837  27.4024868
  76.0333014  52.1746683  36.2237310  76.2841988  52.0850086  35.3043604
  75.2422953  52.7133560  36.2046957  67.0432138  36.2551117  38.9787436
  67.5239754  36.4755821  39.7765493  67.3981571  35.4071736  38.7118149
  56.0160208  32.5009751  13.5708833  56.6285467  32.4482727  12.8372180
  55.1546144  32.3738456  13.1733274  75.1808167  51.9239569  21.8706942
  75.8982658  52.0184135  22.4972486  74.5331001  52.5715113  22.1488500
  56.8799973  56.8450832  38.5379624  57.2276258  57.7328348  38.4526157
  57.6376486  56.3136578  38.7824750  55.6289101  34.2361879  23.3276629
  55.7010651  34.2194557  22.3733330  54.6929836  34.1316128  23.4989643
  58.5762739  64.9277544  45.9996986  59.3731976  65.4349518  46.1542749
  58.7698746  64.4096422  45.2184725  48.2800579  58.1800079  60.4957438
  47.6718092  58.7159538  61.0046959  47.9988432  58.2950592  59.5880508
  60.8127403  59.1199064  40.8745861  61.3358212  58.3510828  40.6475925
  61.2090588  59.8347998  40.3764963  55.0552273  70.7084036  13.9193428
  54.1906881  70.9040070  14.2806482  55.6666183  70.9600353  14.6115243
  48.8185596  49.4899559  46.8303394  48.7988091  48.5544157  46.6288280
  48.2417774  49.5839024  47.5884438  55.2056408  48.3992052  59.5851803
  55.5138493  48.3951902  58.6789703  55.9638786  48.1180477  60.0972939
  44.5223856  13.8826072  63.5794353  45.2671814  14.4043601  63.2806253
  44.9164677  13.0930686  63.9503288  24.3726325  70.6632757  24.1273880
  23.6093616  70.7090998  23.5515833  24.3539405  69.7733927  24.4795036
  23.0090928  11.0282969  24.8181558  22.6624489  11.7091846  24.2415595
  23.0730081  11.4498532  25.6751490  16.1349130  58.7250090  23.0165434
  16.8699622  59.0709305  22.5103092  15.9019423  59.4341755  23.6157393
   9.0973908  75.2972698  66.5810633   9.9604410  75.4681396  66.9581318
   9.1575617  74.4050550  66.2396479  44.5144176  79.0691566  59.3886042
  43.7262249  79.0010643  58.8497686  44.3820047  78.4298182  60.0885630
  73.1050587  74.4457245  17.4328601  73.5338306  75.1589489  16.9598949
  72.2766972  74.3160534  16.9710910  51.6498518  62.8234339  18.5145199
  52.1368790  63.5179186  18.9580584  50.8073425  62.7945757  18.9679301
  81.2516975  26.5701032  12.2749507  80.8747959  26.2826514  13.1065464
  81.3481331  27.5176287  12.3704970  59.0482569  60.4046106  64.3186140
  59.9295139  60.0960588  64.1078806  59.1456699  60.8516073  65.1594114
  67.5461054  40.6419373  22.9010797  67.9425097  39.8678017  22.5013137
  68.2795858  41.2403250  23.0431151  13.0735707  15.2882612  19.2100954
  13.3868444  16.1598694  19.4517338  12.1292365  15.3960621  19.0967607
  47.9594517  48.3921385  13.0564415  48.4482908  47.5709534  13.1105435
  48.6336565  49.0681553  12.9880118  69.8251581  51.7847013  20.7541752
  69.8959589  51.4102602  21.6322494  70.5806303  52.3678923  20.6808591
  17.3299134  40.0092363   7.7440232  16.7599714  39.2452240   7.8316957
  16.9108212  40.5446339   7.0702696  66.9480562  26.0639548  10.0147867
  67.5530767  26.7664289  10.2529359  66.0785341  26.4411211  10.1486003
  79.8369980  70.1251221  17.1674860  80.0718975  69.6990013  17.9917884
  78.8937902  70.2736044  17.2349036   2.9002044   8.2133198  39.9434066
   2.4147484   8.1240982  40.7635307   2.5216791   7.5490028  39.3675303
  44.1266966  76.4764500  27.0096445  43.2007265  76.2629414  26.8946314
  44.3753767  76.9111443  26.1939049  55.6579018  68.2192183  51.1901712
  55.6590843  68.6983967  50.3615475  55.2082777  67.3979330  50.9912729
  58.6688232  64.4557714  24.9726677  58.0634880  65.1860666  24.8443294
  59.5311451  64.8221922  24.7768068  49.6582413  68.0022955   5.5201203
  50.5351543  68.2099056   5.8428508  49.5612478  67.0631123   5.6774724
  20.1084971  52.5015211  64.8687983  20.3422594  51.7687368  64.2990446
  19.6010756  52.1028328  65.5757618  63.1176949  69.5965195  42.6908970
  63.4856701  69.8508692  41.8446493  63.4209538  68.6983967  42.8237343
  50.6403208  55.9878063  39.2903328  50.6068945  56.7517042  38.7145042
  51.5630436  55.7333231  39.2973137  60.3174353  59.3384171   4.8452055
  60.5283880  58.5766172   4.3054047  59.4542122  59.6169758   4.5394495
  63.8194704  39.7504830  19.0700769  64.3319368  39.8892570  19.8665404
  63.1525517  40.4367590  19.0917683  71.1404610   8.2480508  28.8380814
  71.2911463   8.0728889  27.9091883  70.1886320   8.3089769  28.9189982
  67.2427988  49.4454336  37.4774933  66.4425611  49.6989202  37.9374933
  67.2601557  50.0048971  36.7010021  17.7059925   6.7284828  54.1170931
  17.0755506   7.3846543  53.8200855  17.4194205   5.9154463  53.7010670
  20.8981204  75.4251242  30.3562140  21.0441732  75.3964043  31.3017702
  20.1709723  74.8206139  30.2077103  57.6828480  77.5746632  23.8749099
  57.8659439  78.4320927  23.4908223  58.3952141  77.4346066  24.4987249
  44.0116262  64.3721962  41.5835047  43.7777424  63.9759064  40.7441664
  44.0963888  63.6308527  42.1830511  26.6752362  32.0970535   3.9007187
  27.2837162  32.6781917   3.4443623  26.1848330  31.6662502   3.2006153
  36.4740014  72.5414085  50.6545305  37.3954606  72.5641537  50.9126520
  36.3427806  71.6570044  50.3127098  82.2887993  69.4538736  42.8385019
  81.6282463  69.9888563  42.3983908  81.8689823  69.1769934  43.6529493
  46.5907049  62.2069740  22.7037406  45.7361221  62.4094629  22.3230600
  47.1302462  61.9476414  21.9568276  28.4220719  43.1033850  25.5949354
  28.1291056  43.7061787  24.9115324  29.2494559  43.4737206  25.9023690
  61.0529804   9.6054673  13.3514869  61.5127516   8.7671977  13.3978546
  60.1874018   9.4244802  13.7178850  15.8054674  20.2248120  57.6351547
  15.2988088  19.7463620  58.2913685  16.5140903  19.6269953  57.3970366
  18.9158165   1.0048568  45.0207090  19.4681442   1.7698804  45.1816559
  18.2805622   1.3009697  44.3687868  58.0002213  67.2183609  52.2021961
  57.5906134  66.6469908  52.8518057  57.2909021  67.7865601  51.9017839
  60.8176327  59.8137236  31.8849897  60.7639885  59.0063381  32.3963475
  59.9591732  60.2231264  31.9930077  58.8280725  36.2654185  66.7515945
  58.7766838  37.1624565  66.4215708  59.7605610  36.0516381  66.7200041
   9.0224296   8.0976748  34.5545220   9.7510862   7.4900997  34.6815801
   8.7363315   8.3173150  35.4411674  51.1910295  33.4235501  58.6508846
  50.4594707  33.3815646  59.2667484  50.8867216  34.0085316  57.9570341
  61.6442728  29.0057826  25.0871611  62.3252010  28.5914397  25.6171465
  62.1250820  29.5302224  24.4468379  65.9025526  56.7362785  42.5983477
  66.0088873  57.2243834  41.7818403  65.3716183  55.9774685  42.3563719
  47.9775047  55.9573030  34.6540022  48.2026529  56.5942097  33.9758492
  48.2107449  55.1102877  34.2740083  43.7509537  23.0286765  35.1783466
  44.3419981  22.2985244  35.3621411  44.2518568  23.8084126  35.4178047
  59.9777222  50.5202341  14.4788814  59.0946102  50.6154823  14.1221309
  60.3304386  51.4100504  14.4859743  22.9348826   3.4992713  64.0421915
  22.6733017   3.6105788  63.1281805  22.2931290   2.8870356  64.4021273
  66.5437222  67.7220488  41.8940973  66.3002300  67.9392529  40.9942245
  65.7108593  67.5455856  42.3316288  77.9213095   3.4209409  49.4065619
  77.9660988   2.4665990  49.4653654  77.8422880   3.7134057  50.3145552
  65.4577541  61.7274475  37.2492146  64.8085594  62.2655773  37.7021956
  66.2788486  61.9061279  37.7075934  16.6538572  74.6041250  46.1091852
  17.1289659  74.6321917  45.2786922  15.8098686  74.2098284  45.8890867
  57.2669840  65.5672264  29.4670677  57.8674173  65.0137138  28.9677310
  57.8241491  66.2519360  29.8371649   2.9527193  31.7077875  49.5071745
   3.5996526  31.8777752  50.1918745   2.1776327  32.1969318  49.7832394
  65.7845497  78.3052349  40.2249575  66.3688564  79.0616083  40.2770281
  64.9043036  78.6799955  40.2559423  33.8149238  27.0950794  50.2009344
  34.0486360  26.6683888  49.3765926  33.5211349  27.9689312  49.9434376
  82.4903202  48.2477760  17.1545398  83.4082031  48.5116863  17.2184265
  82.0072460  48.9562035  17.5799763  56.8146276  50.8095026   0.7231212
  57.3073387  51.0793400  -0.0518977  56.8153286  51.5819979   1.2883437
   3.2113385  59.6495724   8.1621999   2.5870973  60.3152132   8.4511209
   2.7204904  59.1161633   7.5370777  14.8864186  23.4831977  41.9459248
  14.6350121  23.1011081  41.1050701  15.7281625  23.9056468  41.7749405
  47.8877687  46.5887833  43.3856916  48.3800602  47.2394753  42.8852081
  48.5326052  46.2063169  43.9807892  66.6342688  61.6032839  34.4970417
  66.4051008  61.8428087  35.3950047  67.1502876  62.3428679  34.1761446
  77.4922228  75.0259495  22.2889280  78.2730484  75.1677418  22.8241253
  77.8300810  74.7062778  21.4523315  77.9513645   3.8985527  18.5113299
  77.2610712   3.6063173  19.1065800  78.6521196   4.2026630  19.0881252
  31.2054777  78.2487059  34.5679259  31.5816593  77.6336670  33.9382839
  30.6380272  78.8125372  34.0422583  72.6414490  71.3302517  19.5913541
  72.3040676  70.8493042  20.3470635  73.2072353  72.0036125  19.9691129
  25.0785518  65.4128265  23.5294676  24.8630834  64.9027014  24.3102217
  25.9528685  65.1126957  23.2810187  50.3517199  56.5684891  19.1373205
  50.2278280  57.5145102  19.2143035  49.5018625  56.1957598  19.3719435
  69.9900675  16.8918061  43.3882570  69.1989326  17.2788155  43.0133438
  70.3264475  16.3192236  42.6988888  71.3820648  49.1755009  58.2332897
  72.1518946  49.6942329  57.9998159  70.7693672  49.8100996  58.6049414
   3.6238149  52.2839737  31.3823080   4.1876578  52.8552818  31.9037676
   3.6666614  52.6476240  30.4979134  69.0705538  78.0905581  23.7229490
  69.2696762  77.4432182  24.3993640  68.2286930  78.4617138  23.9870405
  36.4228153  68.2211208  18.4922671  35.9041834  68.9259005  18.8802636
  37.2189045  68.6525393  18.1818593  47.3357964  76.0287094  33.2746124
  48.1391001  76.5459585  33.3328390  47.2879124  75.7632256  32.3562145
  54.5153141  48.7721777  21.6710114  55.1019812  49.2833424  21.1135483
  53.6373234  49.0647650  21.4265680  49.4001865  75.5777645  37.2138762
  48.4511280  75.6120872  37.3336196  49.7187901  75.0802946  37.9670405
  13.8243365  29.3454361  32.9142046  14.1815400  29.4852424  32.0372272
  12.8753042  29.3820024  32.7949023  82.1454716   4.0889317  26.6659117
  82.1137619   3.3335927  26.0788107  81.4097881   3.9583129  27.2641969
   9.8010349  76.0857058  35.1784205   9.1810369  75.4061890  34.9136686
   9.6779519  76.7853546  34.5368814  38.1186247  78.6784267   3.7681812
  37.2993708  78.7510538   3.2785091  37.8717136  78.2451487   4.5852101
  47.8433132  68.3851576  52.7216530  47.3770952  68.0456734  51.9577026
  47.2933388  68.1407690  53.4659910  45.4890251  72.7084255  20.4288888
  45.8787346  71.9763565  19.9509382  46.1661530  72.9765129  21.0500598
  72.8852034  62.9408598  30.3903008  72.2499847  62.3404884  30.0000668
  73.4916449  63.1439877  29.6781230  18.7269688  18.9939559  35.0976539
  17.9134381  18.6679626  35.4825258  18.7244952  18.6491704  34.2047095
   5.4242754   2.3078033  35.9809732   5.5677217   3.1260511  35.5054474
   5.7815439   1.6309240  35.4061460  75.6018925  54.6385860   5.7851297
  74.6994781  54.7204447   5.4766250  75.8757019  55.5377865   5.9659410
   5.0597298  39.8941088  23.0473709   4.7725943  39.5815992  22.1893954
   6.0139847  39.9307346  22.9818845  71.8648529  74.4499636  13.9772832
  71.2002230  73.8789892  14.3626213  71.4097595  74.9015474  13.2665122
  60.3439951  23.8456225  46.3755512  59.8155451  23.6746860  47.1551371
  61.1347389  24.2686343  46.7102385  17.9313624  63.6716509   4.7631916
  17.0603728  63.4252167   5.0744480  18.0650008  63.1392193   3.9790425
  71.1927366  42.8299475  43.4974766  70.6446791  42.4640751  42.8032160
  70.9379578  43.7514830  43.5431814  14.7220707   6.5182418  10.0423896
  15.1540565   7.3718095  10.0746834  15.3489780   5.9492749   9.5957416
  54.1781282  44.6065331   1.1464482  54.0906858  45.0082111   0.2820171
  54.9168682  44.0044403   1.0571615  51.7450237  47.6647949  51.0017967
  50.9503365  47.6023769  50.4718828  51.7782640  46.8374491  51.4820337
  67.0580196  53.1385088  21.1283493  66.6352701  52.4847460  20.5714750
  67.9669905  52.8457069  21.1937475  38.9359212   2.2933635  61.9231129
  38.3097768   2.2888283  62.6470947  38.6952019   3.0600661  61.4030600
  73.9030695  65.8237410  41.8082380  74.0379381  65.4676390  40.9300423
  73.0395555  66.2349606  41.7699385  26.0166097   2.8539905  18.1672573
  25.4459357   2.6104584  18.8961303  25.4852581   2.7016488  17.3857915
  75.3231478  50.8584356  12.8205180  75.8893585  50.1836205  13.1950307
  74.4343519  50.5404472  12.9791188  28.3073330  74.6698666  12.7431810
  28.6149812  74.2065859  11.9641066  28.1528354  75.5657816  12.4436879
  22.5192428  64.0244913  25.6736159  23.3594298  63.5712004  25.6040144
  21.8677449  63.3232260  25.6701398  34.0676212  70.4771137   9.3164486
  33.8704228  70.1578331   8.4358770  34.8193860  71.0576630   9.1979557
  53.3930683  52.6948071  26.9407630  53.1906557  52.8249979  27.8672147
  54.3464613  52.7646255  26.8917918  68.9804459  57.6248074  44.5765924
  68.8117552  58.0440283  43.7327719  69.6992779  57.0171356  44.4026852
  73.3418036  68.0629730  14.4476902  73.1269693  67.4647856  13.7319779
  74.0388918  67.6185751  14.9301958  75.3456116  69.4060087  46.5695047
  75.2977228  68.4673452  46.3882399  75.8813000  69.7600079  45.8596039
   1.2205676  10.1225924  63.3250427   0.6606422   9.5848876  63.8850307
   2.0911786   9.7347850  63.4137774  79.3754911  10.9255159  31.6351795
  79.9408817  10.3842676  32.1861959  78.9184713  10.2996814  31.0733151
   3.2480311   9.0091109   7.6442605   2.9657227   9.5109534   6.8796116
   3.4346119   8.1350565   7.3015535  57.6612329  74.4484806  27.0988655
  56.7303658  74.5818615  27.2775245  57.7462673  73.5047579  26.9632459
  82.9607677   2.5146455  21.9969726  83.8179398   2.5975236  21.5791011
  82.7196026   1.5972109  21.8689632  73.9017105  65.8219624  32.6916623
  74.1468191  66.7335987  32.8500175  73.0534744  65.8750343  32.2513127
  48.4484434  56.0636139  56.4568138  49.0802479  55.7178545  55.8263350
  48.8022137  56.9171619  56.7068720  54.4230509  52.8699541  64.4155979
  54.3431616  51.9168329  64.3780851  53.8604832  53.1854773  63.7083530
  49.6447134  43.5985661  60.3760624  49.1586733  44.3219090  60.7719994
  50.4491854  44.0011835  60.0490189  79.4954348  73.6210823  40.3011894
  78.5502005  73.5541677  40.1659441  79.5966339  74.3268681  40.9398222
  36.3317108  46.6209984  22.6249647  36.3209319  46.4317656  21.6867185
  36.0469580  47.5326347  22.6887202   0.1221465  22.4957132  56.6171026
   0.3060261  23.3472133  57.0137978   0.9831450  22.1505976  56.3808632
  54.8572588  36.3651729  12.9862189  55.3380632  35.5428290  13.0800819
  54.6167850  36.6054964  13.8810086  71.4180374  65.4712677  24.4480920
  70.6790781  64.9085045  24.2168593  71.4430809  66.1306763  23.7547040
  67.6062346  68.7258005  10.3526604  67.5946236  68.0240917  11.0035849
  66.9560480  69.3543243  10.6664145   8.2727033  43.2088518  68.5334635
   7.8495264  42.4035072  68.2358456   7.5958705  43.6640596  69.0343761
  67.7844048  32.1192861  60.4454470  67.6124716  31.2446904  60.0965118
  67.0355272  32.6425862  60.1598406  52.5668573  50.0123978  34.7537971
  52.7829456  49.6966839  33.8763785  52.4853897  50.9608650  34.6537423
   8.2283896   1.3143107  49.9152517   8.6948246   2.1500045  49.8983288
   8.1839341   1.0835752  50.8431625   0.3935478  65.7445908  24.1589546
  -0.4482274  65.4776144  23.7896705   0.8294491  66.2133360  23.4472704
  81.0358715  75.4755735  41.6248989  81.2181854  76.2950802  41.1651182
  81.8987560  75.1408243  41.8690348   0.1868040  41.6632652  43.8632727
  -0.1896695  41.0371161  43.2448578   0.4932913  41.1246395  44.5927763
  30.5411839  68.5379076  14.1837645  30.0935745  69.3268538  14.4894373
  31.3364768  68.4928846  14.7145319   0.6354377  20.0323653  26.5667725
   1.5699710  19.8379171  26.6379690   0.2885489  19.3387794  26.0056686
  62.2699881  51.9792747  39.2128801  61.6543388  51.8721151  38.4878087
  61.7179060  52.0018816  39.9944973  30.8290815  14.0305948  31.7301869
  31.5237379  13.9906526  31.0728550  30.7299280  14.9640453  31.9174600
  43.7414837  13.8191104  44.5875406  43.5573530  13.7454402  45.5239677
  43.1071234  13.2350135  44.1720295  53.0330372  79.3807745  24.9361730
  52.4496746  78.7406015  25.3437185  53.6938667  78.8520336  24.4889998
  15.1863650   0.3244157  40.6010723  15.7074336   0.0809521  39.8359275
  15.3341083  -0.3846078  41.2269211  30.6392217  78.9373922  31.0412073
  30.3955841  79.6038580  31.6836214  29.8293400  78.4536219  30.8790684
  54.9043655  43.9111948  22.5495958  55.7501125  44.3103743  22.3456359
  54.7691107  44.0980911  23.4785795  41.5773058  74.2100143  17.2608173
  42.3912239  74.2417431  17.7635705  41.5965986  73.3567619  16.8274283
  55.1589775  78.9791727   8.7644941  54.6012068  78.6681700   8.0514711
  55.0697517  78.3132601   9.4462788   1.9307315  31.4164996  45.8379745
   2.6927817  31.7794394  46.2894011   2.2258069  31.2861943  44.9367619
  78.8893795  40.1809120  64.5394659  79.7102642  40.5708456  64.8400211
  78.3981228  40.9135818  64.1678572  31.4519715   5.8630645  36.0181379
  31.2860084   5.6170076  35.1081133  31.1775446   6.7784643  36.0726023
  83.7918091  19.6891356  52.1205044  84.0676498  18.8073993  51.8701410
  82.8730297  19.5907760  52.3703241  74.9515438  18.2602334  43.4454441
  74.3641567  19.0115225  43.3631182  74.3685246  17.5152588  43.5914993
  71.9139910  65.8155870  45.9282827  72.3967648  66.6352892  45.8222437
  71.6571856  65.8064270  46.8503428  74.9742222  44.7535658   2.7166709
  74.4356823  45.5393744   2.8100061  75.1906252  44.5034313   3.6149111
  32.6447892  58.2957268  26.8129683  33.4745264  57.8422165  26.9616175
  32.0036030  57.7927208  27.3150611  72.5873899  47.9076195  14.4689155
  72.6329088  48.0810928  15.4091644  71.7116785  47.5453377  14.3343210
  43.6207056  56.5482855  29.3412566  43.1562901  56.3214731  28.5355830
  42.9290676  56.7968130  29.9545288   4.2250904  11.1806071  64.3444109
   3.7439427  11.5374184  65.0910139   5.0040704  10.7803130  64.7306585
  71.0520315  71.5565062  32.9689312  70.7024717  70.7666826  33.3815050
  71.3538361  72.0952415  33.7003040  48.9709044  69.2836905  37.3797512
  48.1535625  69.1408539  36.9024873  49.1873407  70.2013922  37.2148061
  31.9854903   3.0564430  50.2082539  31.5779805   2.2568955  50.5412531
  31.7090821   3.1028706  49.2930079  76.9659519  33.9971232  46.0591364
  77.8285837  33.6084819  45.9140205  77.1452665  34.8061132  46.5383148
  57.7450752  42.8187561   6.1034161  58.0030870  43.7386274   6.1626190
  58.3851147  42.3552418   6.6435391   1.5403460  55.6254864  56.7204714
   1.6007221  56.5104675  57.0801878   2.0745094  55.6526518  55.9266424
  66.1995220  32.8048062  11.1450684  65.8010435  33.6241961  11.4384079
  67.0755148  32.8129148  11.5308213  52.8825045  71.8207979  31.6307545
  52.9091597  70.8792210  31.8009067  52.6193905  71.8910074  30.7131100
  53.4132767  47.6885748  26.8433928  53.1316328  48.5208178  26.4635491
  52.6000500  47.2588444  27.1083999  14.8309386  30.0129271  61.8957472
  14.8475695  29.1812801  62.3693705  15.3371453  30.6115174  62.4449968
  22.0188141  57.6754522  42.1292067  22.0772600  57.7442884  41.1762762
  22.4905586  56.8698215  42.3405266  47.8698444  73.4253120  39.7229218
  47.2172546  73.8767719  39.1876292  48.4983444  74.1072035  39.9600935
   8.0164909   6.9037414  29.1069674   8.4586221   7.0351911  29.9457002
   7.0884526   7.0330352  29.3025684  30.5359674  60.4300213  22.6745892
  30.7007909  59.9455023  21.8656945  29.7543931  60.9499311  22.4873352
  58.4714651  10.5784070  55.8139515  58.8500929   9.7680074  55.4731798
  59.0707731  10.8487856  56.5096188  60.3514814  45.3821373  39.6418095
  60.2070665  45.7998562  38.7927604  59.7436237  44.6427822  39.6514678
  19.4664896   5.6035107  33.9762163  19.1190302   5.0000179  33.3194804
  19.8536468   6.3152039  33.4664774  31.3483930   2.0907539   2.5366962
  31.6831422   2.5233975   1.7512059  30.4354787   2.3726158   2.5947613
  51.8767023  61.2968445  28.6181879  51.7965126  60.4081583  28.9646554
  52.8128576  61.4049196  28.4503603   9.0097451  69.5895958  41.2285423
   8.4821236  69.3818426  40.4573870   8.6341214  70.4038191  41.5634823
  75.8365917  10.1342511   8.3552867  74.8893309  10.2078032   8.2390028
  76.1777592  10.0107014   7.4695259  67.1803045   1.4556088   8.0912346
  66.9093370   2.3394036   8.3396626  68.1156349   1.5355544   7.9041600
   5.0643027   3.2018465  59.9609756   4.1276371   3.3161575  60.1216698
   5.1079172   2.6799577  59.1597509  43.1919575  68.4160662  22.5611472
  43.7996674  68.8314486  23.1730151  43.4320402  67.4895954  22.5769687
  31.3306165  35.2915192  65.6130409  30.5414891  35.2630162  65.0720263
  31.0559177  35.7379627  66.4139557  55.8572769  69.5411682  34.2006540
  55.4176903  70.3039408  34.5763803  56.7373085  69.5625973  34.5765805
  73.4504032  14.4221818  53.3865356  73.0944347  15.1792514  53.8516855
  73.2407618  14.5857501  52.4670076  76.9824791   5.0292492  58.6359310
  76.3431406   4.4795367  59.0890217  77.4929047   4.4164127  58.1066561
  12.2228277  44.3371487  30.2388525  13.0307484  44.6527815  30.6436634
  12.1829200  43.4103441  30.4747915  55.7803488  65.3901577  64.5950031
  55.1460028  65.4714537  63.8828039  55.2536964  65.4458380  65.3923512
  38.5875368  42.9981136   6.8352818  39.2409778  42.3208570   7.0101184
  37.9447651  42.8977203   7.5374198  60.0147295  74.4170713  40.1984453
  60.3470182  74.5183516  39.3065047  60.7868099  74.5199585  40.7547998
  33.9922237  53.1250525  24.6761775  33.2702494  53.5792542  25.1105595
  34.2962766  52.4866247  25.3213072   5.0150359   8.2529771   9.8397809
   5.6935930   7.8044105   9.3352222   4.2256638   8.1721330   9.3044424
  16.7375481  25.9421659  25.3909707  17.6144218  25.9209514  25.0077295
  16.6582942  25.1081729  25.8540154  75.3489351  37.7410460  64.6972513
  75.4480028  38.1379032  63.8318443  75.5902767  38.4367251  65.3088188
  54.0876150  51.2866592   8.9170915  54.9046993  51.7692661   9.0423757
  53.8661766  51.4255571   7.9962742  35.6071401  40.4171371  15.6220281
  35.4071903  39.5415831  15.2908826  36.4629936  40.3251839  16.0407054
  27.2549796  52.8459072  24.0216422  27.1861696  52.0203590  24.5011902
  28.1134057  53.1929970  24.2642593  46.5439129  28.3615947  58.4264421
  47.3717833  27.9508519  58.1771326  46.5596390  28.3705616  59.3834686
  13.7264144  23.4121633  27.5786424  13.6233950  23.4412670  28.5298371
  14.5903277  23.0229163  27.4430943  12.1332037  23.6406779  36.5263176
  12.6871502  24.1409755  35.9270859  11.2486005  23.7405849  36.1745691
  59.0847683  48.5620785  43.9201021  58.1504154  48.5216141  43.7161827
  59.3412971  47.6491070  44.0501356  82.8442860  23.7351727  26.8948007
  82.0195961  23.8663960  26.4269304  83.4228897  23.3272934  26.2505317
  57.9618216  74.6528101  52.2971106  57.0627594  74.9391603  52.1361065
  58.0079079  73.7788725  51.9093752  18.7516582  55.1517439  41.1258411
  18.5750175  56.0544062  40.8608294  19.6694708  55.0094032  40.8943462
  64.7128916  53.7226820   8.3849037  64.4097614  52.8231907   8.5084265
  64.5004416  54.1622210   9.2082500  64.9778652  73.6273956  13.7586844
  64.3476391  73.4141636  13.0705166  65.4357958  74.4020510  13.4324229
  58.4252357  46.5264034  35.5164361  59.2992163  46.5379047  35.9066367
  58.5350037  46.9601393  34.6702361  25.7329106  52.2199202  59.4499636
  25.2990294  51.8002415  60.1928282  25.9586620  51.4968872  58.8647318
  78.4787560  58.9943552   3.0649921  77.9632378  59.2037296   2.2861253
  78.3400536  58.0568027   3.1991166  76.7317486  11.6937518  52.7546787
  76.0570383  12.3526335  52.9186010  76.4806223  11.2960351  51.9210196
   9.1149986   2.3693253  11.3889349   8.6007190   3.1001452  11.7319369
   9.4388241   2.6802722  10.5435467  69.1738749  69.7940397  23.2110071
  68.4529066  69.9891806  22.6123738  69.3489981  68.8622522  23.0793262
  58.2648516  44.7006989  32.5063872  58.2594109  44.3239260  31.6264772
  58.6409426  45.5733204  32.3909545   4.8282281  11.3555753  61.6505527
   3.9547944  11.3897455  61.2604523   4.6821320  11.0232711  62.5362539
  57.7279520  47.5352812  13.6304069  57.1798325  47.5676489  12.8463471
  57.5922728  46.6551208  13.9813244   0.8614537  11.3492882  14.4079256
   1.4855799  10.9971356  13.7733495   1.1145040  10.9494412  15.2399826
  29.8947787  28.7574959  46.0942650  30.7206917  29.1541481  45.8171988
  29.2210245  29.2716002  45.6493092  74.7656250  62.1859741  25.8836222
  75.0756836  62.2419357  26.7874837  73.8686895  61.8600512  25.9578371
  73.1348276  26.2161946  53.4518671  74.0412951  26.1637902  53.7548542
  73.0285597  25.4549074  52.8814459  22.8082180  49.5585203   4.9505100
  23.1661010  49.0768528   5.6962639  22.7110553  48.8989162   4.2636934
  18.6743939   1.2507114  40.3235006  18.4635818   1.7373265  41.1203671
  18.6842120   1.9139430  39.6333861  23.4811568  16.4248431  42.6299953
  23.0941916  15.6008399  42.9258156  22.7509427  17.0436943  42.6235962
  70.7913828  57.1062088  27.1286774  70.4491472  57.9941034  27.0250201
  70.1591635  56.5510321  26.6722703  28.9704514  13.4297538   7.5656497
  29.4241810  13.3182335   6.7302310  28.1530666  12.9427278   7.4611545
  73.9780951  76.5191507  56.5116501  73.5691500  75.9409475  55.8676958
  73.5024071  76.3470650  57.3242664  50.4522800  53.2849693  47.3032856
  50.9375191  54.0049410  46.9002676  51.0223532  52.9766321  48.0076838
  59.8639154  67.8752279  15.3385353  59.5989752  67.6534700  16.2312090
  59.0658522  67.7742243  14.8197627  51.1873913  46.0699129  12.6894581
  50.4536581  45.4585981  12.6249480  51.8856525  45.5631065  13.1039584
  83.6189270  53.9067030  17.9804385  83.5417938  54.0822124  17.0426333
  84.4252014  54.3514729  18.2418275  60.4113293  61.7817974  24.4272828
  59.7348547  61.2469339  24.8426461  59.9475765  62.2669744  23.7448120
  78.5540152  20.4576850  35.4452848  79.0883303  19.8109984  34.9842739
  78.3846092  21.1373186  34.7928810  10.4483593  64.8004770  66.2419462
   9.9033189  64.5779705  66.9966984   9.9740386  65.5072069  65.8040142
  44.0278816  49.5294666  19.0845025  43.6037874  49.2936850  19.9095988
  43.5065937  49.0895176  18.4129846  41.2809467  78.0795813  32.0658493
  40.3823566  78.0754852  31.7360735  41.5414047  79.0003014  32.0399022
   7.4177045  43.3255005  33.9319563   7.6016730  42.4864340  33.5096335
   6.4641500  43.3494186  34.0119147  59.8343325  43.8711882  42.8136969
  59.2528152  43.3273554  43.3450317  59.5497131  43.7169886  41.9128942
  49.6379185  57.6089048  32.9454255  49.3758202  58.0641556  32.1452498
  49.5342588  58.2620144  33.6374760   1.3148183  12.8409958  38.1430221
   0.5319244  12.7148366  38.6791134   1.9328429  12.1839547  38.4632945
  68.4908199  16.5213096  14.0056741  68.1562471  15.6252885  14.0436518
  67.8384256  17.0406938  14.4756269  23.9830160  29.6254611  53.1684780
  24.1305423  29.3509650  52.2634268  24.8537970  29.8520780  53.4949970
  72.4632311  79.0606260  38.4188819  71.8603468  78.4671640  37.9710364
  72.8751898  79.5603418  37.7140355  30.6068277   4.8281881  38.4390163
  30.0242138   5.5233300  38.7449098  30.6634784   4.9621844  37.4929357
  74.3054533  66.4778709  11.0776103  74.5069313  65.7444477  11.6587567
  74.8892593  67.1794271  11.3660979  15.5690300   8.8165408  19.8801112
  15.9184575   8.9537311  18.9995944  16.0666299   9.4199359  20.4319644
  64.3732786  69.9657106  35.4545450  63.4782887  69.8548555  35.7753754
  64.8566580  70.3077793  36.2065840  53.5116768  64.6777010  63.4174109
  52.8165007  64.6656752  62.7595234  53.2269430  64.0465307  64.0783072
  57.1662045  64.8908901   5.2397001  56.9839048  64.6101713   4.3429309
  56.3876343  64.6343660   5.7339233   8.0510491  69.7913265  48.9720297
   7.8412229  69.5350456  48.0739594   8.2912683  70.7156372  48.9074183
   4.8515013   7.3612314  15.6384718   5.3251749   8.1078255  15.2717805
   4.3638054   7.7262175  16.3768280  18.7658834  60.3700781  25.1431990
  18.4297216  61.2088203  24.8273826  18.9913809  60.5320454  26.0592508
  29.8742199  76.3332701  38.2948875  29.3464637  75.7346725  38.8234591
  30.6742883  75.8432770  38.1050777  46.9203377  62.4887562  16.8691373
  47.3800087  62.0186234  16.1735010  47.0952225  63.4126186  16.6898918
  40.2851582  74.1215277  60.8396769  39.4619823  74.3910217  61.2470865
  40.9324837  74.1866779  61.5417862  59.0300083  67.1355247  17.6885259
  58.2305527  66.6099405  17.7179527  59.6471310  66.6643715  18.2483566
  57.8771400  78.6937523  38.4314466  57.9140282  77.8023815  38.7783360
  57.2090435  78.6569262  37.7469611  11.7801094  27.4945426  34.6880507
  11.3860250  27.7596998  33.8570142  12.5616455  27.0025373  34.4363308
  41.5554905  16.3515496  24.9298000  41.1032534  15.7380581  25.5088878
  42.4561262  16.0291708  24.8957157  59.6766043  59.0892649  45.1336861
  59.0794611  59.1320896  44.3868113  60.5088186  58.8010406  44.7587490
  42.6546860  54.2484331  13.0422235  42.7890158  53.5094500  12.4488497
  41.9398117  54.7467518  12.6461554  28.3932185  58.3512878  36.7389131
  29.0675807  58.6573601  36.1324596  28.6593723  57.4595165  36.9628358
  72.1215773   3.3389914  12.1862721  72.0300388   2.5377613  12.7019107
  71.3562298   3.3426118  11.6114163  23.4219790  16.1413717  20.5102205
  23.7826705  17.0162606  20.3663373  22.6014614  16.2946510  20.9787178
  47.1691847  55.1567459  44.1064119  46.8266153  54.2882252  43.8953352
  47.6038361  55.4443932  43.3035660   4.1991889  70.5520964  19.1399837
   4.9319449  69.9383307  19.0890813   4.1104010  70.8934259  18.2501280
  74.9491787  62.9540443   9.1041768  75.6051397  63.6372089   8.9655131
  74.1417027  63.3206415   8.7438732  34.0577149  75.9260368   7.1672553
  34.9827504  75.7380486   7.3260051  33.6621904  75.9353590   8.0388659
  12.4512732  14.8789752  57.3884726  12.6613390  15.4469287  58.1297779
  12.2818971  14.0233505  57.7827406  73.2310629  59.7362995  44.9669552
  73.5785723  60.6267929  44.9171114  73.4218550  59.3563843  44.1093445
  50.0373983  43.5217333  50.6558847  50.4006672  44.3295431  51.0188055
  50.4129887  43.4637117  49.7773647  47.6238108  69.2751122  29.8057532
  48.3450651  69.8803616  29.6334314  47.1959496  69.1644526  28.9566827
  34.2368889  14.2431056  66.0477066  33.5493183  14.4487286  65.4143047
  33.9127588  13.4705830  66.5107203  50.3817654  68.3070707  22.0754457
  50.3885794  68.3362675  21.1187148  49.4572353  68.3848524  22.3108625
  71.0602951  65.5150890  27.0725155  71.2784195  65.6736946  26.1540914
  71.6154861  66.1242962  27.5591993  83.9451504  16.3689363   6.8371832
  83.3789825  16.1973476   7.5896692  83.3792973  16.8179381   6.2091428
  29.6813226  38.0966663  34.4723010  29.8133636  39.0141702  34.2335844
  28.7852120  37.9039860  34.1964507  25.4671454  73.1653929  21.7581964
  25.7272792  74.0864277  21.7742300  24.5111275  73.1857443  21.8011904
   7.4689317  62.3594809   8.4337062   7.0720524  62.2536755   9.2983007
   7.0060223  61.7314196   7.8791904  51.5131187  64.2571354  54.8765945
  52.4335146  64.0056610  54.8000479  51.3822699  64.9015999  54.1810560
  32.2985864  29.9797940  40.7593632  32.1662617  30.5241036  39.9831867
  31.5222478  29.4210052  40.7952261  71.1478949  47.6147604   4.0187502
  71.1531496  48.5210896   4.3265969  70.8642673  47.1055555   4.7780231
   7.5315237  59.7865725  20.7447934   7.6920497  59.4427347  19.8660207
   7.9111052  60.6651878  20.7312465  82.9821968   3.4165522  48.9324617
  82.2783566   3.7384456  48.3692360  82.5555420   3.2375857  49.7704124
  50.1187992   4.3675268  20.7087469  49.2239618   4.4097182  21.0459709
  50.6139469   4.9662009  21.2678957  23.1141758  67.6865673  49.2404079
  23.1735921  67.1486521  50.0299311  22.6230788  67.1479225  48.6199951
  66.2681913  68.6004972  58.4098530  66.0076380  69.5045424  58.5860491
  66.3441181  68.5545349  57.4567747  37.4209833   2.4490607  64.4046640
  36.7345262   3.0746534  64.6362734  37.5455379   1.9260618  65.1966143
  14.0140176  25.4338694   4.7099486  13.6811006  25.1066113   3.8743043
  14.9602592  25.2981853   4.6604592  28.2205248  12.9556274   0.4395205
  28.9693689  13.5236013   0.6208216  27.5465608  13.5473371   0.1050308
  80.9511185   2.2157350  17.3118246  80.3027344   2.8921705  17.1162212
  81.7081738   2.4468435  16.7736030  51.5443420  61.5575027  37.8330112
  51.4607906  62.2390795  37.1661472  51.8723726  60.7949829  37.3563623
  12.5163913  32.5548816  37.4469447  13.1115973  31.9132328  37.0593286
  12.2810698  33.1325150  36.7208624  37.2276235  61.0214424  37.9377866
  37.5989985  61.8862820  37.7635217  37.2115350  60.5910158  37.0829725
   9.6977746  23.5276437  52.1401739  10.5833423  23.4972572  51.7781258
   9.2178071  22.8559089  51.6557837  47.1671581  78.8470316  55.3004932
  47.9786587  79.3361044  55.1644611  46.8764448  78.6152983  54.4184399
  13.2402670  40.0408792  43.4167910  14.0780926  40.3759670  43.0974197
  12.6538014  40.1045990  42.6629782  15.3729725  60.3373671   3.7809014
  15.6289244  61.1675119   4.1828787  15.6089759  60.4351234   2.8584170
  64.7041750  60.6719398  11.7405260  64.7213173  61.4013195  11.1208963
  63.9059114  60.8096027  12.2504830   6.2869519   7.9293847  56.6799784
   6.6413313   7.0534545  56.5270281   6.9573689   8.5217828  56.3396263
   0.2803611  41.7763996  58.7314892   0.0585776  40.9414434  58.3193111
   0.9173698  41.5476418  59.4083357  32.4939752   0.3027764  11.0376966
  33.1603527   0.9020932  10.7015562  31.6619468   0.7169537  10.8087409
  52.2075272  53.7413740  20.8424878  51.9787455  54.3657446  21.5310001
  51.3981199  53.2569885  20.6798148  25.4891372  20.8854866  33.4312105
  25.9669495  20.7491446  34.2493415  25.7133150  20.1259899  32.8934908
  71.3059139  67.5253868  41.7889023  70.5278969  67.9990101  42.0831728
  72.0394516  68.0157614  42.1599674  13.9548731  76.6214514   8.5974991
  14.6651459  77.2326136   8.4019816  14.2404568  75.7919455   8.2146239
  12.2563934  15.0323355   4.0614790  12.9370427  14.6397769   4.6081468
  12.5821626  15.9112775   3.8676518  17.1250701  29.4587946   3.1239140
  17.7990150  29.5957828   3.7896952  17.4016738  30.0040030   2.3873889
  10.0405228  66.8139505  13.7866354   9.7570485  66.8696308  14.6991992
  10.2685857  65.8926487  13.6624646  66.8732262  61.3812876  18.8594151
  67.1647596  62.2909307  18.9209485  67.4438906  60.9055376  19.4629335
  75.8510447   9.0623391  37.6379228  76.3807154   8.5805279  38.2731700
  75.4004383   9.7279990  38.1576157  11.1706388   9.8420250  57.5902510
  10.6413424   9.4898111  58.3058071  11.0420656  10.7891941  57.6409721
  75.0050879  38.1547832  29.8682332  75.4242992  37.3146677  29.6819472
  75.6432581  38.6276627  30.4024220   9.9843377  57.9303598  16.0678124
  10.7887185  57.4124289  16.0987222   9.2830521  57.2914648  16.1952746
   7.3611891  13.7541890  20.0399375   7.4183184  13.1873608  20.8091402
   7.6463068  14.6125484  20.3532386  16.7803109   0.7647767  14.4117308
  15.8629191   1.0372745  14.3925130  17.2603810   1.5567216  14.6537805
  79.9138308  16.9206166  40.4317045  79.2543840  17.3910916  40.9416199
  79.9686909  17.4038076  39.6072364  46.3964605  65.5826521  41.1956549
  46.8965101  65.1750803  40.4885006  45.5435181  65.1492023  41.1665297
   3.3659881   0.5233957  62.9762173   4.2406803   0.8174494  62.7218962
   3.2176378   0.9253233  63.8321829  82.5187874  63.6001968  17.0651960
  81.8880844  62.9684067  17.4105799  83.2588100  63.0663061  16.7761374
  70.0828123  76.3592815  33.4657955  69.4928741  76.4854097  32.7226305
  69.6221542  75.7432032  34.0354133  78.4488153  16.6903746  14.2112553
  78.2039213  17.2591746  14.9411356  79.3774939  16.5062273  14.3522513
  66.6297531   2.6304343  41.9216967  65.9626341   2.0349938  41.5801811
  67.4519348   2.3040377  41.5560246   7.2580206  23.5535264  34.7173309
   7.1184945  24.3237901  34.1664624   7.5716788  22.8806114  34.1131473
  29.5211172   5.6408918  51.5918636  30.1502585   5.0989878  52.0680475
  29.4523478   5.2277756  50.7311440  72.5805616  48.4338522  39.6117640
  71.7928028  48.9073277  39.3443799  73.2939005  48.8771725  39.1525841
  11.2129343  12.3064077  10.0060618  10.9679055  13.2142901  10.1847875
  10.5297530  11.7862332  10.4290438  44.7343540  77.9705048  24.9788547
  44.9986267  78.8905001  24.9810982  45.2467155  77.5758505  24.2731857
  80.8556652  79.4892597  43.4376192  79.9863911  79.1683245  43.1976509
  81.3854408  78.6977053  43.5325527  63.9964247  72.3985910   6.0042465
  63.5982037  72.5418472   6.8628097  63.4027672  72.8302336   5.3898454
  40.5221653   4.9623391  28.7030268  40.7939196   4.9768561  29.6207237
  41.3426256   4.9718603  28.2100916  24.3489289  18.8216972  55.0495005
  24.3132949  19.6127403  55.5872869  24.9100280  19.0590632  54.3112230
  80.5834866  19.4542265  37.9390216  79.7532797  18.9814603  37.8799701
  80.8548164  19.3487966  38.8508844  30.9141350  35.7381153  18.9100409
  31.3535285  36.5016007  18.5355365  31.5902734  35.3037906  19.4300699
  13.0849588  22.2139692  63.7922049  13.8837588  22.5473428  64.2008781
  12.3767912  22.6857281  64.2305851  83.2565022  58.8774347  55.6300402
  82.7508640  58.5726547  54.8765993  84.0622997  59.2289162  55.2513790
  75.0227070  78.2742405  33.5751724  74.9564457  78.1701088  34.5243835
  75.1490879  79.2141724  33.4455800  16.1578405  62.6429892  17.3619306
  16.7640746  62.4478579  16.6473424  15.3694248  62.9659843  16.9256926
  61.1189222  54.7503376  30.2978778  61.1232758  54.1178608  31.0163379
  60.2848101  55.2109146  30.3892899  53.1811810  75.9746647  33.9628863
  53.3057356  75.5962563  34.8332429  52.2686100  76.2634420  33.9556217
   9.2137206  70.6149340   8.5007381   8.6794192  69.8330641   8.3613378
   8.7224489  71.1297274   9.1409492  75.4343843  43.0762386  57.8117323
  74.6757364  43.6184549  57.5956488  75.0755072  42.3601437  58.3358049
  55.7058811  78.8454676  40.3617191  56.5109444  79.0613413  39.8910785
  55.5491590  79.6014690  40.9275198  75.8451414  46.2862730  48.1046772
  76.1255026  46.7889833  47.3398781  75.4971647  45.4718494  47.7415466
  76.7003632  12.2294104   4.4764388  77.4240398  12.8405952   4.6141949
  75.9869051  12.5787008   5.0104898  32.2206163  27.6847482  63.9029360
  32.0277858  27.0313644  64.5753479  32.9799819  27.3332095  63.4381580
  51.1146593  54.5157671  58.8999462  51.1283875  55.1665831  59.6017170
  50.1887178  54.2976904  58.7936115  49.0423727  29.8664355  52.3749065
  49.4942379  29.4944000  51.6175175  49.6337748  29.7045779  53.1099415
  27.6260352  68.4313440  44.4165421  28.4692001  67.9808569  44.4651699
  27.7246833  69.0464544  43.6898136  70.2060747   3.1422284  35.2599454
  69.9339628   2.2245380  35.2656579  69.4046926   3.6308429  35.4477596
  80.9739780  61.6244411  43.1394958  80.0864029  61.6552973  42.7824354
  81.5429592  61.7124653  42.3748112  78.2628727   7.3466897  52.5373697
  78.8102007   6.9843864  53.2340765  78.0037785   8.2096106  52.8605890
  39.1233110   7.0570135  31.0140038  39.1579151   7.8770238  31.5065646
  38.6712813   7.2845471  30.2015185  69.7881794  42.8286648  26.5733409
  70.5547523  42.3183250  26.8344021  69.9259901  43.6883497  26.9710588
  24.1216755  21.9803500  20.0565481  23.2492542  22.0300245  20.4472446
  24.1074395  22.6315689  19.3551624  14.1812003  45.9991789  21.5097070
  14.3157578  46.4355946  22.3509359  14.9857569  45.5005789  21.3671494
  83.3747578  30.3143191   8.4893334  82.7301788  29.6078968   8.4479505
  83.1706238  30.8692169   7.7365708  65.3473186  59.5510244  21.9627833
  65.8347178  60.1438141  22.5348663  66.0178375  58.9924335  21.5695763
  83.2103634  11.6073632  51.3549328  83.7364483  11.9826555  52.0610666
  83.2572460  10.6620395  51.4977503  13.4914815   3.4355387  66.2424564
  13.8717341   4.2476958  65.9077311  13.1114709   3.0135879  65.4718828
  26.0893893  32.3198342  21.1825061  25.9777117  31.8762064  22.0233130
  26.0429406  31.6179442  20.5333352  67.5919819  78.0188656  17.9635966
  67.0093107  78.3689928  18.6374891  67.9799366  78.7934113  17.5564051
  16.7078483  39.2265725  49.9139261  16.0848427  39.3669105  49.2009020
  16.8919337  40.1046991  50.2474451  27.6545620   9.2227262  49.8208857
  27.8598309  10.0008595  49.3026161  28.0221558   9.4068605  50.6852913
  19.0715909   4.3724120   8.9967096  18.9687920   4.4150129   9.9474192
  19.8190033   4.9408162   8.8109088  29.3698931   1.4039615  27.5589275
  29.0320539   1.7204680  28.3967352  30.1637793   1.9179329  27.4112439
  45.8833075  52.6741219  26.3108516  45.0197792  52.9668427  26.0195398
  45.9388113  51.7641926  26.0189843  22.9302931  52.3933411  14.9994779
  23.7449431  52.1100140  15.4145718  23.1914496  53.1145906  14.4269180
  30.8316255  15.7179141  61.7717838  31.0867763  15.6646264  60.8507586
  31.6411591  15.5512691  62.2546101  81.3541412  64.5507097  35.9570193
  81.6930199  63.6978388  36.2290597  82.1073055  65.1382780  36.0181451
  21.0488224  20.4320621   3.1461960  20.1451659  20.7311296   3.2471755
  21.3149500  20.7596850   2.2870855  29.5308828  26.3767338  22.2651672
  30.3953981  26.1933517  21.8974519  29.0543604  25.5509424  22.1801424
  47.2753859  67.3683882  46.3052654  46.6677284  67.2727585  45.5718851
  48.0208874  66.8150377  46.0723305   4.4209728  49.8313808  31.9662285
   3.8755459  50.5748367  31.7092824   3.8422093  49.2805958  32.4933910
  83.6501312  74.7515583  44.5892620  84.1657162  74.3659687  43.8809347
  83.2715321  74.0004969  45.0462008  81.0747433  66.1124372  33.2705116
  81.1762524  65.3946781  33.8956094  81.3407326  65.7380533  32.4306798
  38.7675595  76.8870735  30.3493357  38.5415101  77.2375679  29.4877744
  38.9334512  75.9573030  30.1936698  52.3505306  38.9049554  67.3665094
  51.4469576  38.7309551  67.6301670  52.7452707  38.0375147  67.2772980
  25.2762938   8.5206980  34.3182158  25.2774715   9.0545648  33.5237241
  25.1519203   7.6249051  34.0046549   7.8022730  76.9903851  50.3341103
   7.8255451  77.9472494  50.3440809   8.3860087  76.7291689  51.0463285
  65.1540899  49.4521141  67.2421122  65.6490755  50.0521851  67.7999115
  64.4798279  49.0911770  67.8177214   5.5118191  29.7822237  17.8847539
   5.7232064  28.9754486  17.4150085   4.5575255  29.7732711  17.9587483
  35.3906417  34.8185897  38.6271524  35.7516837  35.5681515  38.1538272
  35.4039192  34.1041541  37.9902554   0.6223584  70.4421616  42.7410173
  -0.2493275  70.0504208  42.7952194   1.0678783  69.9414873  42.0575953
  16.8225718  11.1717093  21.0149813  16.8144965  11.8318963  20.3219295
  17.1258140  11.6428602  21.7910552  75.2531338  23.6584592  12.6100254
  76.1544847  23.8892150  12.8348541  74.9996281  23.0126405  13.2694829
  82.3945618  12.0913339  21.1616850  82.3993397  12.1303201  22.1180797
  83.0321121  11.4105487  20.9465361   3.4862953  21.1283588  52.3487329
   3.6307240  20.1858616  52.2646475   4.2223823  21.4372849  52.8769112
  22.3727608  18.0882502  23.6317039  23.2553840  18.4553421  23.5821891
  21.8000031  18.8035083  23.3549619  30.9255242   1.8649493  13.2394946
  31.4210343   2.5647199  12.8140259  31.5939379   1.2974830  13.6234701
  14.8567200  28.3199382   2.2636700  14.2662692  28.7218094   2.9009297
  15.7220960  28.6597800   2.4914074  59.8859739  51.4084673  30.0507903
  60.1323891  50.5029249  30.2392125  59.0076971  51.3445759  29.6755910
  59.2915916  17.4858546  44.0967703  59.7351265  18.1374764  44.6398163
  59.9913597  17.0917130  43.5759974  34.0431929  30.3579736   8.3700347
  33.4720850  29.9217296   9.0022999  34.4720984  29.6422315   7.9010093
   0.8986792  65.6045055  27.9101133   0.7485738  65.4367542  28.8404679
   0.6729536  66.5273952  27.7936792  49.0951586  30.9243894   0.3812846
  49.1017485  31.8770146   0.2880452  48.1994534  30.7159066   0.6467505
  60.0411320  16.3740861  22.1590042  60.3806162  15.8710515  21.4187765
  60.8036900  16.8402839  22.5016332  67.8245163  47.0782661  52.3969460
  66.9410706  46.9083738  52.0700026  67.6969576  47.3318434  53.3110905
  74.9316025  21.4736581  53.7366581  75.4986191  22.2288203  53.8930464
  75.4709959  20.7172966  53.9673090  45.6143713  24.5755172  18.0154157
  46.4734173  24.1579032  17.9532516  45.0556421  24.0620089  17.4320090
  81.6080856  37.0221353  34.2716336  81.9207191  37.7301645  34.8348284
  81.9137001  37.2597408  33.3962059  78.8539028  71.2998962  53.3811522
  79.5601702  71.8554401  53.7109900  79.1846561  70.4072618  53.4813023
  45.6799603  22.2557521  24.3411827  44.8382950  22.1344686  23.9017224
  46.0052013  21.3670993  24.4852138  24.6425295  12.0508707  12.1501005
  24.3035054  12.8142345  12.6176155  25.5920458  12.1063566  12.2576725
   7.2927195  32.9128981   0.4511178   7.2502649  32.1234345  -0.0884902
   6.6600859  33.5101366   0.0519777  19.7569263  13.1455088   8.5391569
  20.4748416  13.2874048   7.9221499  18.9810765  13.4712815   8.0829102
  26.1864519  30.7755494  10.9190238  26.9696665  30.2450013  10.7729864
  25.6244707  30.2273226  11.4666152  11.4648938  14.4943690  47.6857567
  11.6992664  13.9611602  46.9261599  11.8264234  15.3592360  47.4920225
  41.4103317  15.3367627   7.5007159  42.3438215  15.4763973   7.6598722
  40.9867716  15.5925536   8.3201057  69.7455311  27.8912878  27.1975994
  68.7960052  27.9767013  27.1119261  69.8997784  26.9469285  27.2225571
  49.7012377  76.8366861  16.5395021  49.7338009  76.7416859  15.5875850
  49.9415684  75.9729290  16.8747652  61.0322428  17.6141036  58.5116243
  61.9779634  17.4868226  58.5867167  60.6834841  17.3205459  59.3533039
  16.4219713  36.1472178  20.7091022  17.2117209  35.7631969  20.3282428
  15.7261300  35.9276342  20.0895715   3.0191812  11.3665843   1.2963855
   2.5444570  11.0470867   2.0637122   2.3404790  11.7362392   0.7316282
  71.2824059  11.7032182   1.7489897  71.5603733  12.2747040   1.0331896
  72.0989561  11.3634562   2.1151051  50.4320240  16.8060863  55.9792614
  50.8766317  16.2719905  56.6375160  51.0784674  17.4666715  55.7303333
   0.6147225  61.4270878  67.6559067  -0.0879233  60.9542751  68.1019640
   0.1794449  62.1779060  67.2521210  30.8224797  61.1536598   2.9815975
  30.7209706  62.1039343   2.9277492  30.2428508  60.8910036   3.6966315
  38.0213428   8.7725389  40.5171394  38.5720754   8.6760533  41.2940645
  38.3816838   8.1466818  39.8888969  71.1274862  63.7498951  55.8716345
  71.7890358  63.1337023  55.5571651  71.5835762  64.5904207  55.9131765
  34.2170835  61.0291719  22.2933674  33.8351202  61.4184093  23.0800247
  33.5263467  61.0949755  21.6339850   6.2031370  69.0228271  27.3524690
   6.4217901  68.1021357  27.4965119   7.0445400  69.4442606  27.1773505
  13.2351148  33.3179069  68.1892157  13.5246384  34.1219211  68.6204576
  13.4268689  33.4608316  67.2623777  49.1218090  11.2829828  31.9581127
  49.5810366  11.1628819  32.7893257  49.8184586  11.3195169  31.3026929
  20.8696413  45.6905556   6.8964326  20.4933167  45.2369118   7.6506323
  20.2786779  46.4272690   6.7407030  62.6676559  74.4716883  62.7854776
  63.0994797  75.2368784  63.1652737  62.1784115  74.8184776  62.0394135
  37.4401426  28.6131215  17.1510875  37.0606375  28.1261253  17.8825533
  38.3844209  28.4861946  17.2430754  32.3130441  42.8568029  19.0471184
  33.0339074  42.2541475  19.2298567  32.3688817  43.5142756  19.7405505
   5.5191803  38.1274080  13.9856279   6.0109329  38.6374235  13.3419704
   6.0116357  38.2307148  14.7999048  75.4208803  79.6186972   3.6101305
  75.4310465  79.8213291   4.5455819  75.5821133  78.6761379   3.5674691
  25.2944326  63.8381195  25.7393122  25.5674505  64.5505619  26.3173413
  25.6360412  63.0471230  26.1562753  71.8322229  35.7276368  10.1583076
  72.0688534  35.0517464   9.5231622  72.2109461  36.5322328   9.8041493
  67.5506878  60.4698706  58.5792780  68.2529593  60.7317781  57.9839230
  67.1442890  61.2939596  58.8475084  -0.1131965   4.9765494  66.9213009
   0.7319130   5.0713134  66.4819336   0.0996890   4.9853769  67.8544855
  68.1384039  50.8052254  15.0391316  68.2417631  50.2487993  15.8110988
  68.9611006  51.2911987  14.9822783  40.6392431   4.6332744  42.6061487
  40.8008385   4.1908875  41.7728329  39.8072338   5.0888902  42.4780464
  21.2099099   1.5410255  13.4729719  20.5784869   1.1970180  12.8411520
  22.0145965   1.6579865  12.9679668  68.7554073  70.1680660  37.1439242
  68.8920641  69.4540310  37.7665901  69.1680861  69.8633909  36.3357782
  80.5233860  13.4129035  38.3621478  80.8447456  12.5377512  38.1451988
  79.9662352  13.2801580  39.1290855   9.8459738  29.0025473  14.7057211
  10.5021417  28.3651114  14.4240308  10.3558266  29.7595334  14.9942601
  20.8242941  76.2592363  33.1824422  21.2206984  75.4608059  33.5311532
  21.5077782  76.9237041  33.2694292  23.7934113   2.4561548   9.5188254
  23.1617999   2.7341932   8.8555056  24.1086531   1.6073090   9.2084771
  78.3546686  22.5002027  33.2702947  78.5763741  23.3379364  33.6768413
  79.1933155  22.0472383  33.1824040  47.3381281  17.1290588   9.9370492
  47.4466562  17.0694649   8.9878905  48.0863953  17.6482928  10.2315450
  32.1070099  69.7082138   0.8499569  32.1078777  68.8395357   0.4479275
  31.2000036  69.8444843   1.1238220  63.4538269  78.9624500  68.1641579
  64.4005203  78.8419724  68.0901098  63.2250166  79.5230675  67.4228191
  11.6857588   9.4695741  40.1044989  12.5122178   9.9316126  39.9640775
  11.2447798   9.9706733  40.7905531  53.8509417  49.2406559  47.2770548
  53.1922579  48.6880493  46.8563461  53.6309147  50.1296759  46.9987392
  25.9493947   9.0581298   1.4161316  26.1195922   8.3618456   2.0505229
  25.5051494   9.7390693   1.9213039  60.0697708  15.9762847  32.8691268
  59.8438358  16.1978316  31.9657445  59.2401457  16.0299277  33.3435512
  67.8912878  12.0845115  10.7575870  67.8102350  11.2334228  11.1880636
  68.7807417  12.3728180  10.9624934  32.8443146  21.2367511   0.5238017
  32.7200508  21.2225699  -0.4251922  33.7572885  20.9781837   0.6497017
  24.5013356   5.9463012  34.2695475  25.2025962   5.2957517  34.3049121
  23.7269330   5.4811466  34.5860314  40.9902382  55.5581331  11.1755693
  41.4826536  56.3225889  11.4745200  40.1870823  55.5720091  11.6961265
  38.7645602  11.3296461   6.0281265  39.5144868  11.9023025   6.1890882
  38.3691931  11.2045646   6.8908376  48.2076216  70.0361109  57.5805616
  47.8272200  69.1581392  57.6068163  48.7580776  70.0821114  58.3622980
  11.4429283  60.7704544  19.8857594  11.1924350  61.6942167  19.8735070
  11.0371947  60.4227877  20.6799507  27.1895242  40.8419085  41.1082077
  27.9168224  40.6751537  40.5086565  27.0949078  41.7944193  41.1108875
   1.5707694  52.9316521  38.1750655   1.9466896  52.9378510  37.2947931
   0.7941004  53.4870672  38.1077433  27.4186778  27.4784684  16.4143503
  27.2870708  27.4279523  15.4675865  28.3065987  27.8216100  16.5147662
  47.4391174  21.3359070   3.5534957  47.0986462  21.6649961   2.7216247
  48.3668613  21.1717677   3.3844453   0.9080444  76.0486126  17.1820617
   1.3416918  75.7330942  17.9749238   1.5386696  76.6511822  16.7877841
  34.0580654  16.7274368  30.5067158  33.9952803  17.0675576  29.6141887
  34.9009013  17.0489788  30.8268237  75.1213169  10.9677887  28.1258368
  75.4024553  11.0382593  27.2135711  74.2693472  10.5337751  28.0810642
   2.8540069   8.1516391  30.3485346   3.7359840   8.4753567  30.1653552
   2.8152916   7.3012429  29.9108601  77.2823954  76.7618799  30.7811928
  78.0285978  76.8575048  31.3730311  76.5640593  76.4762402  31.3456702
  62.9806519  29.2421460   8.5534656  63.5730743  29.8822904   8.1591570
  63.1403971  28.4349465   8.0644411  18.7705231  46.1739874  28.9554358
  19.6481776  45.8260155  29.1131425  18.7246668  46.2868881  28.0060244
  16.9103909  63.8962078   9.2455411  16.9933796  63.8524055  10.1981306
  17.6752496  64.3966103   8.9612478   6.5188581  75.1190948  25.9584761
   6.3152564  74.1959047  25.8084822   5.9923434  75.5886602  25.3115416
  49.7627163   7.8996056  56.5355635  50.5589771   8.3729196  56.7767620
  50.0358582   7.3167461  55.8271122  44.2327261  20.3125930  22.7284598
  43.9557743  20.0214911  21.8596721  43.5664845  20.9473109  22.9920602
  44.9747276   7.7600366  45.5731869  44.4074249   7.6836330  44.8060083
  45.7172012   8.2830930  45.2709007  43.1913519  37.4249935   9.2594385
  43.1110811  37.8693461   8.4154379  43.9944601  37.7792549   9.6412075
  48.2754803  11.7806244   8.4162527  49.1069031  12.2357464   8.5497898
  47.6737070  12.1947217   9.0348196  47.4241304  18.0896151   1.2965377
  47.7870417  17.3065948   0.8825243  46.6184807  17.7873290   1.7157993
  40.1290464  18.0890656  32.9956818  40.2778625  19.0311027  33.0772328
  40.7657909  17.8017604  32.3412800  46.7017174  72.4248457  57.3577785
  47.2679281  71.6530704  57.3608637  46.3940811  72.4998140  58.2610893
   5.7023561  42.4637938  15.3852725   5.0710487  41.8282509  15.7225680
   5.2961403  42.8052425  14.5886338  33.8238883  65.2316141  67.9073095
  34.1792488  64.3939352  67.6102543  34.4872785  65.5743408  68.5062170
  81.0802746  55.8722353  54.9585199  81.0591030  55.0924826  54.4037533
  81.5596581  56.5203905  54.4424582  76.2738085  33.2130194  41.0927773
  77.1064234  33.6551619  40.9269714  75.9711266  33.5765481  41.9249201
  64.3727016   6.2387854  30.3210473  64.6518040   6.0340065  29.4286346
  64.8463297   7.0406961  30.5420637  49.8203516  10.0756645   4.9390632
  50.5357933  10.6279457   5.2542782  49.2580366   9.9525028   5.7038260
  62.2374344  33.5809851  26.7508101  61.4347410  34.0500283  26.5229583
  62.6086044  34.0806532  27.4779940  46.5647650  10.2800167   6.6702974
  47.1919775  10.8263016   7.1440166  46.9699621   9.4130576   6.6496110
  44.8345661  31.4931893  16.0920596  44.2315865  31.1333370  16.7425609
  45.6695271  31.5667701  16.5542924  57.8478289  56.3982296   4.0175754
  58.3904171  55.6386900   3.8056120  58.4627533  57.1312046   4.0467790
  36.3932514  13.6338902   5.2422976  37.1944690  14.0833235   5.5111730
  36.2204385  13.0100310   5.9473985  47.9598236   4.4986054  14.4574988
  48.7771797   4.2185569  14.8694909  47.2919083   4.3538097  15.1276886
  50.2786875  41.3392305  67.2467899  50.9832573  40.9211397  66.7517996
  49.5049286  40.8087921  67.0566177  62.2036314  50.1213360  56.0201788
  63.0871582  50.4726028  56.1307240  61.7653894  50.3098059  56.8500328
  49.5449448  20.4026651   1.9368042  48.8921404  19.7830939   1.6109073
  50.3532791  19.8928046   1.9904211  53.2983732  16.5470719  36.1996484
  52.4588919  17.0056808  36.2341166  53.9429140  17.2079802  36.4526248
  21.4294910  71.7525387  59.5564270  20.9725523  71.9644642  58.7424707
  21.7120075  72.6000452  59.9001503  10.2486980  42.4746084   8.8649201
   9.5103055  42.2189951   9.4177967  10.7989991  43.0127144   9.4339871
  19.2831838  45.1400757  54.5598555  19.6466362  44.6126986  55.2711964
  18.3362865  45.1051807  54.6954966  12.6178658  23.4388375  19.9943209
  12.7760053  24.2093945  20.5397272  11.6649926  23.3920193  19.9164021
  54.3112230  53.4243441  48.4397316  54.2794991  53.0555058  47.5570154
  55.0053167  54.0822601  48.3996010  28.8953161   4.2910618  49.4437504
  29.7484493   3.8986951  49.2581558  28.3859372   4.1448581  48.6466360
  27.8939629  65.5312157  43.2348490  27.6128554  66.2984514  42.7362919
  27.5083375  64.7888327  42.7696705  26.0842323  38.0292010   5.0734526
  25.4022622  37.8192806   4.4354245  25.9053373  38.9349914   5.3259826
  48.2779026  29.0630436  19.3003666  47.4338627  28.6125469  19.3299973
  48.8945389  28.4421515  19.6882880  58.7990093  63.3005619  66.3649702
  59.1630888  64.1151524  66.0184002  58.0631876  63.1016541  65.7859755
  38.4339619   4.1258648  21.8124986  38.3848238   4.5011383  22.6916933
  38.7838292   4.8324105  21.2697101  35.4353428  77.6023436  32.4165416
  35.4798865  77.2337484  31.5342808  34.9425745  78.4162092  32.3114944
  75.1421404  48.8475561  55.0869751  74.7907925  47.9654026  55.2077675
  75.5140448  48.8385582  54.2050266   2.0809653  50.0877333  36.1467552
   1.3173360  49.7313309  36.6007137   2.8010860  49.5100021  36.3995051
  16.1169291   8.8936305   9.5153302  16.9136131   8.6555380   9.0411597
  16.3942099   9.5833027  10.1184046   4.2715350  73.5616255  52.8129482
   3.8477036  73.4985065  51.9570208   3.5839954  73.3322239  53.4381628
  59.3804598  33.2443476  66.1071205  58.4561205  33.3230352  66.3429976
  59.4021177  33.4102893  65.1646662   3.2481325  73.2815170  15.9868884
   2.8899056  73.7447357  16.7440760   4.1071802  72.9754686  16.2777543
  44.2135668  53.8921404  15.3784025  44.9409199  53.3825207  15.0213683
  43.5895729  53.9578485  14.6555281   8.5041797  12.3358369   7.2236550
   8.0127060  11.5470397   7.4527502   7.8935426  12.8549588   6.7003340
   8.0145848  61.2239218  39.3531537   8.5154176  62.0346975  39.2634511
   8.5726625  60.6550884  39.8834419  70.8030033  71.8110085  21.7573690
  70.2483463  72.5723314  21.5871406  70.2156830  71.1723852  22.1616578
  35.7460141  21.0903478  19.4025147  35.6784463  21.0289407  20.3553510
  35.0821161  20.4831743  19.0756965  21.7293382   7.9371363  36.2935424
  21.7803144   8.4741735  35.5028319  22.5843263   8.0432051  36.7106462
  28.4670210  40.2453804  33.1972218  28.9299822  41.0519648  33.4237695
  28.5285449  40.1937342  32.2433972  18.4157276   7.0792353  21.2573338
  18.6457455   7.4835408  22.0939112  17.4613750   7.0089233  21.2796688
  42.1251154   3.8847527  20.4914021  41.5660810   3.9538398  19.7174895
  41.7750311   3.1356823  20.9736514  27.9786515  41.5684748  11.1124933
  27.7464747  41.6544008  10.1878619  28.7427759  42.1346331  11.2211800
  18.4232748  26.6439509  19.2441142  18.9557302  27.3535085  18.8845992
  17.5812626  26.7257929  18.7962878  19.4362843  77.8868675  31.5300727
  19.7828102  78.1727219  30.6848288  19.7979844  77.0091677  31.6527629
  25.8014822  79.2410088  27.2766137  25.7766342  78.3255959  27.5552368
  24.8867893  79.4635057  27.1032190  62.1612406  18.1344569  20.3179955
  62.1506119  18.2405066  21.2692428  61.9765282  17.2056699  20.1784682
  51.6822100  21.9203568  12.3635650  52.1022367  21.9696355  13.2222748
  52.0403385  21.1261892  11.9669843  33.2107210  74.3053007  23.3605146
  32.3169756  74.0749168  23.1067920  33.2145190  75.2622557  23.3818054
  21.4659834  36.8815064  13.5376990  21.3709068  37.7320504  13.1090200
  22.3569727  36.8878341  13.8874519  32.6829815  78.9601421  29.1544938
  31.9776726  79.2628527  29.7264504  32.5242567  79.4055080  28.3222151
  43.5231018  30.6998229  18.2650161  42.8546906  30.3342319  18.8445008
  44.3425894  30.5948257  18.7483895   0.8580196  70.2423096  29.4905543
   0.5821887  69.5452929  28.8953090   0.3106674  70.9907579  29.2529321
  24.4560432  69.5158052   0.6140644  23.6512399  69.0189219   0.4669954
  24.2066622  70.1959324   1.2397402  20.2737737  54.1748190   4.2473021
  20.6412244  53.3115482   4.0576440  19.5233631  54.2504692   3.6579037
  53.1520844  19.6899796   1.8100683  52.6243019  19.0952003   2.3429056
  53.1753969  20.5045748   2.3121867  47.1429873   6.2223995  44.9252796
  46.4046955   6.5008646  45.4671431  47.0155287   6.6791481  44.0937948
  21.0164523  75.1269436   5.6715238  20.6385398  74.6342897   6.4000201
  21.0960007  76.0213947   6.0029685  12.5414157   8.0877864   9.2421591
  12.9940689   7.2445756   9.2603660  11.6419649   7.8715235   8.9962894
  76.7202425  69.8844004  66.7367983  77.0669889  70.4029083  67.4628448
  76.0233068  70.4263115  66.3668728  40.0783396   5.6415468   1.7256689
  39.4328451   6.3338578   1.8680647  40.6317663   5.9719491   1.0180077
  19.2968464  68.4810019  43.7875700  20.1829791  68.7958050  43.6089659
  19.2932689  68.2955790  44.7266293  14.7836101  61.8374062  39.2252183
  15.6527770  61.7222691  39.6093082  14.8631036  61.4793015  38.3410954
  59.0512562  29.7177577  24.3386292  59.9039268  29.3446088  24.5621037
  59.2204285  30.6535888  24.2298651  49.4155025  13.5231745  46.9506598
  49.3113804  14.4594288  47.1204185  50.3053617  13.4393859  46.6080761
  47.1799421  25.4846954  15.3970790  47.1686840  24.5401931  15.2420986
  47.2892714  25.5707264  16.3441157  18.8107514  30.6621313   8.0979449
  18.8323557  30.8897424   9.0274382  17.8788626  30.6026888   7.8875107
   8.7203991   2.0332803  27.5909233   9.5585668   1.8044990  27.1892190
   8.1042230   1.3886121  27.2431278  44.3674755  11.8266571  49.1150951
  44.5445633  11.0944712  49.7056675  44.9755669  12.5114393  49.3935347
  62.2604370  63.5368776  65.3410292  62.5904560  64.4339609  65.3916073
  61.8775845  63.4714794  64.4661713  47.2201014  25.2945876  35.9267807
  47.4023390  24.8867798  36.7733693  47.3954391  26.2251616  36.0664940
  58.6394739  20.2534699   9.1322476  58.7125301  19.9302781   8.2342267
  59.5311022  20.2059746   9.4771743  60.7601643  71.0181761  39.7598457
  59.9142504  71.3711882  39.4840932  61.3975430  71.6723633  39.4734526
  17.4526036  31.7136765   1.5191904  17.5927198  32.3927093   0.8592568
  18.2069170  31.7884636   2.1036980  21.9759321  72.0066500  10.9353173
  21.4816141  72.7764940  10.6538498  22.8886104  72.2951794  10.9361267
  44.8585272  25.7758617  66.4719677  45.1716042  25.4508829  65.6278086
  44.0834093  25.2465868  66.6598368  39.8598528   5.8070290   9.3142420
  40.5517721   5.8333987   8.6533439  39.8387575   4.8945528   9.6026403
  37.7253604  66.6788292  65.1711702  37.3716640  65.7894278  65.1616001
  37.1281505  67.1800709  64.6158934  57.7292061   3.3906698   0.5132005
  57.4240351   3.7181458   1.3592875  57.0848656   2.7271390   0.2666508
  57.7782869  37.0134234  62.1156883  57.4151850  36.3782334  62.7328777
  58.6512852  37.2070980  62.4571419  34.0505123  16.1335027   1.6098668
  33.6341143  15.8621073   0.7918268  34.5275402  16.9316185   1.3825206
  18.6722398  46.5260935  63.9151859  18.7754154  46.9795609  63.0785513
  19.5675862  46.3814402  64.2212248  34.5468020  23.0501986  21.8114662
  34.6774626  22.5843191  22.6373696  33.7489772  22.6688719  21.4449978
  46.7270470  12.2066498  10.8686101  46.7381001  13.1266427  11.1326599
  45.8157396  12.0368803  10.6300139  81.8968582  44.0681601  12.7404368
  82.3933887  44.6028423  12.1209180  82.1187973  43.1660604  12.5098014
  47.8274870  11.3657033  25.8343267  48.2706308  12.1447456  26.1704040
  48.4653759  10.6607068  25.9452605  43.8162613  61.8666029  19.7606385
  42.9680347  61.7458439  19.3338323  43.6084414  62.3009586  20.5879116
  19.5856524  49.8604059  15.7017517  20.5369687  49.9581575  15.6608272
  19.3694079  49.3057489  14.9521983  55.8169365  44.7767639  17.2829282
  56.6160822  44.2881966  17.0856977  56.1177301  45.5371380  17.7805173
   9.6459973  49.3874598  63.4150982  10.1979506  49.0876722  64.1373920
   9.1955614  48.5982323  63.1143332  52.8552389  28.3858156  22.7838731
  53.1932783  29.2811370  22.8029060  52.7046728  28.2063293  21.8557858
  14.6001053   1.2722263  19.6996224  14.5282352   0.4288319  20.1465583
  15.3525209   1.1710068  19.1166496  55.1864004  18.1000042  31.4470959
  54.9143410  17.2537243  31.0920954  54.7611904  18.1484389  32.3032999
  37.0442009  18.7716568  36.5541935  37.8982568  18.3609807  36.4194083
  36.4998817  18.0765474  36.9240212  60.5606318  56.3748598  55.1632595
  60.7200718  55.4606295  55.3977633  61.0575628  56.5051270  54.3555927
  57.7826500  77.1154594  47.9266644  57.2801876  77.8663063  47.6104593
  57.4869871  76.3840008  47.3846436  51.2163115  37.1592426  17.0163190
  51.1314964  37.4903917  16.1222386  50.9478617  37.8925920  17.5698233
  54.9305058  15.5952644  29.8652101  55.5412769  15.7549930  29.1457105
  55.4899263  15.3722966  30.6092310  24.9352670  40.2735853   5.7258254
  25.2627826  41.1617994   5.8674014  24.0141034  40.3141737   5.9828097
  21.6831875  44.0680647  66.8175077  20.8313942  44.4954205  66.9071865
  21.4753699  43.1751156  66.5424013  42.6311159  20.6349468  25.0768757
  42.4407959  21.5058970  24.7283697  43.3978891  20.7627630  25.6354022
  31.3241029   3.0428275   6.2341660  31.9398308   3.3033115   5.5491412
  31.2535954   2.0924869   6.1440945  40.7214117  17.8621399  20.3969049
  40.2681208  17.4691319  19.6510470  40.2725410  17.5070930  21.1641645
  50.2884912  28.9377022   1.5634908  49.9940157  28.1227875   1.1567573
  50.0472021  29.6192932   0.9362414  39.2556143   1.1549492  46.1926365
  39.7272849   1.5504244  45.4595947  39.2670727   1.8262209  46.8749094
  71.9255209  33.7116909  28.6807132  72.2723103  32.9310274  29.1126132
  72.7015543  34.1791344  28.3716917  82.2864151  41.9152403   6.1003375
  82.0183086  41.6295815   5.2269804  83.2038212  41.6505671   6.1677855
   7.2108316  28.8221717  26.6824770   7.5877911  29.7008133  26.7285228
   7.0806873  28.5691857  27.5964212   8.7045830  51.0667896  60.3750277
   9.2084730  50.5595255  59.7386217   9.3282211  51.7060232  60.7195330
  71.8276405  25.8833575  20.5596757  70.9741497  25.6507802  20.9253097
  71.6282606  26.5163231  19.8698688  28.4106159  39.2592001  19.9375165
  29.2787480  39.5903373  20.1675773  27.8446627  40.0306320  19.9662590
  46.0770082  34.8582006  28.7128758  45.3421593  34.9604321  29.3176723
  45.9711790  33.9770937  28.3541560  50.4985857   5.8594924  16.5958405
  50.9725904   6.0702950  15.7914066  49.5911884   6.1004770  16.4093137
  40.6689262  19.3383014  28.4099555  40.1096869  20.0840378  28.6275792
  40.8374310  19.4308794  27.4722624  13.8662732  45.4747725   1.8635167
  13.5797679  44.6539354   1.4630461  14.6787691  45.6931877   1.4070348
  49.7402811  47.5651217  53.4802294  50.2368641  48.3805799  53.4119940
  50.2307129  47.0381117  54.1110754  36.0247421  54.5611382  15.5478692
  35.8559036  55.0054312  16.3787305  36.3278103  55.2551365  14.9624193
  34.1630602  37.9633737  15.7788754  33.8072610  38.3069324  16.5983915
  34.1614509  37.0134497  15.8966553  66.9670391   5.8181679  23.5693407
  66.5656471   4.9593359  23.7017202  67.4612713   5.7285297  22.7545190
  49.8764563  37.8703666  25.6528950  49.0949345  37.9197049  26.2033725
  49.5489120  37.9864359  24.7609997   0.1080668   9.1784739  53.9288568
  -0.2644404   8.8255090  53.1208467   0.4587290  10.0329721  53.6776590
  19.2258143   8.0234468  61.4359045  19.1410303   7.1183449  61.1361837
  19.1194487   8.5492307  60.6431437  59.9248028  11.3860607  16.9822896
  60.0101137  10.9959590  17.8522170  60.5350733  10.8901417  16.4365172
  53.5715866  22.9162979  22.1286416  53.7866879  23.8432932  22.2318244
  53.3072424  22.8322959  21.2125087  15.6724703  15.6785023  14.2677510
  15.3551269  15.5504060  13.3738172  14.8916006  15.9173059  14.7671986
  17.6098514  53.9300156  45.5785894  17.5877213  53.4954977  44.7259808
  18.5360193  53.9362574  45.8202600  47.1420717  25.3116012  10.6972313
  46.1975765  25.4408669  10.7835877  47.3170900  24.4993544  11.1724758
  57.1223068  75.6644011  60.3105497  56.7457008  76.0421991  61.1053276
  57.9212379  76.1697769  60.1604366  32.8955650   1.4718978  17.5749147
  33.3829522   2.2525498  17.8381038  33.5707307   0.8192362  17.3893988
  40.0029087  12.8105628   8.0031949  40.6796122  13.4869266   7.9743207
  39.3778014  13.1249082   8.6563897  64.1502905  11.9731116  20.5515647
  64.0643883  11.0278141  20.6751180  63.3397818  12.3359847  20.9088206
  35.7919979  28.1438589  23.1102347  36.6425371  28.3686686  22.7330446
  35.4437447  27.4673033  22.5295258  50.8396149  10.2538633  37.7870345
  51.3968325  10.6486225  37.1162844  50.3277349   9.5960289  37.3164368
  13.9543414  47.8060579  56.3313866  13.8223076  46.9103718  56.0206652
  13.7170708  48.3560133  55.5847406   3.0004299  24.3797970  16.6433275
   2.0484769  24.3686843  16.7427957   3.3251765  23.8769126  17.3902392
  61.3987350  67.5823927  62.3294020  61.6825485  66.8188763  61.8266916
  60.6569481  67.9320002  61.8356848  55.5240870   4.4629037  17.1012521
  55.5953598   3.8184711  16.3970792  54.7966528   4.1503769  17.6392126
  44.2399120  54.9456167  55.9582949  44.7829199  55.4484606  56.5653563
  44.8168087  54.7617197  55.2169418  18.5503078  71.2391090  39.2515135
  18.8562536  71.3184023  40.1550293  18.5446298  70.2969837  39.0823793
  52.5405645  27.2496796  13.5933840  52.8650570  27.1610856  14.4895351
  52.0632267  28.0793667  13.5924196  30.4271126  41.0738230   5.9480149
  30.9254050  40.4159641   6.4329493  30.8830738  41.8969727   6.1234021
  81.6312599  59.6603584  61.9289827  82.3415565  60.1094341  62.3872805
  81.8863201  59.6875429  61.0067892  51.5249586  69.4025087  66.8390131
  52.1261644  68.9930010  66.2168550  50.9862041  69.9849510  66.3035297
  66.3718653  62.0631695   8.5418326  65.7635546  62.2038603   9.2673612
  67.2266150  61.9654036   8.9614552  57.0646286  15.9936714  19.0355754
  56.5389252  16.1706221  18.2554758  57.9668045  16.1513174  18.7572527
  61.4454889  31.6386461  52.6339436  60.6134987  32.0110226  52.3417902
  61.2143135  31.1003923  53.3909559  38.5656047  16.4868975  19.3250918
  38.5000873  16.1701703  18.4241903  37.7305984  16.9264197  19.4857740
   2.8443950  34.1109347   9.0393537   3.7411761  33.7787938   8.9981353
   2.3168485  33.3476233   9.2744815  14.7862399  78.1422186   0.2107465
  14.7348905  77.9477692   1.1465800  15.6590939  78.5165453   0.0914393
  40.1453209  11.4182568  20.5866528  40.3829622  10.7598603  19.9337578
  40.9822559  11.7817008  20.8759212  44.8617077  20.1623440   9.5957536
  45.6842422  20.4641581   9.9812096  44.2864275  20.9266067   9.6301621
  43.7602615   4.7793716   4.5620087  42.8945684   4.3815500   4.4695875
  43.8249683   5.3861833   3.8245639  78.2093287  14.7607911   4.8171681
  77.9202843  15.6002378   4.4593745  77.9611588  14.7959781   5.7409674
  49.6937227  40.8467436  59.1298723  49.4713974  41.7713022  59.0203810
  50.5868435  40.8543062  59.4741201   4.3776920  79.4372988  22.5013065
   4.5799854  78.7362814  23.1208897   5.0425780  79.3522596  21.8179846
  44.6057796  75.6387329  33.0037022  45.5306435  75.6522179  33.2500267
  44.5265865  74.8911047  32.4112439  50.1913548  16.3707078  19.6965384
  50.7320547  15.6827474  19.3084812  50.7765770  16.8198633  20.3064632
  64.5198202  42.4784899  53.4356213  63.8246822  42.8873158  52.9199839
  64.0586424  41.9019890  54.0448761  49.9608183   1.7510177  44.8735809
  50.4013634   1.3633426  45.6297922  49.0370750   1.7789719  45.1228809
  82.6531506  66.4892340  68.9833164  82.2498512  66.3437557  68.1275034
  83.5926056  66.3985109  68.8239050  29.3761754  28.3548522  35.5202222
  30.0618625  28.9936996  35.3254342  28.7176228  28.8510489  36.0063601
  23.2055354  30.1849127   9.5340520  23.8240457  30.8711123   9.7846615
  23.1451988  29.6230388  10.3066385  60.3306007  29.9741220   3.4933484
  61.2637997  29.8367071   3.6560977  59.9976873  29.1071343   3.2615465
  27.6006484  20.0656939  35.4165959  27.8871989  19.5341039  36.1592484
  28.2745981  19.9298203  34.7505927  47.1820688  51.4506340  10.9724510
  47.9756689  50.9234333  11.0645735  47.2509575  52.1098661  11.6630316
  21.0710526  10.4698706  21.2198091  21.4281082  11.0384572  20.5375671
  20.3549123  10.9762871  21.6031051  77.4490786   9.1767281  30.5968881
  77.5067949   8.2791966  30.2692628  76.7228651   9.5638961  30.1080680
  14.8853958  22.5076222  67.4962902  15.1576507  23.2437110  66.9483089
  15.6653500  21.9566441  67.5620556  43.7853718  27.1260667  21.8262005
  42.9368448  27.5474405  21.9628620  43.5784769  26.3171768  21.3580918
  81.2017536  52.1221972  11.9111288  81.6592407  51.8263054  11.1241174
  80.4098892  51.5854454  11.9439340  33.4272957  19.2230117   3.7438151
  34.3307686  19.5074701   3.6057872  33.4989381  18.2922995   3.9556500
  55.8078671  41.1385155   1.3341719  55.1434851  41.3813877   1.9790323
  55.4004860  40.4399490   0.8220398  26.0201812  27.6223731   0.6215370
  26.9528770  27.8359532   0.5952385  25.5880189  28.4579611   0.7983443
  48.1148911  39.1779733  27.9277468  48.7002563  39.5963550  28.5590410
  47.9174900  38.3243942  28.3133245  43.5176420  14.1582239  27.3757863
  44.2469931  14.7011054  27.0765209  43.9269781  13.4869337  27.9217219
  44.4592237  20.3803658  57.0807362  44.2208529  19.4683433  56.9145250
  44.0924883  20.5702209  57.9442692   9.5144743  73.2185984  52.9067039
   8.7008029  72.8357077  52.5787354   9.3959844  74.1622066  52.7980757
  72.7787495  39.2356443   0.4618956  71.9225836  39.5161057   0.7852402
  73.3852816  39.4539881   1.1694827  49.6602726  27.6326084  27.7300811
  49.5699787  28.4995747  28.1256127  50.2315044  27.7722359  26.9748092
  66.9147730  25.9879160  25.5803680  67.2900391  25.4057121  26.2410069
  65.9862614  26.0403490  25.8069777   7.2020864  45.5982971  63.3186388
   8.0025375  45.6435442  63.8415718   7.4328858  46.0192347  62.4905252
  12.9538405  44.0321636  65.1853943  12.9942572  44.3511629  66.0869694
  13.1210113  44.8073578  64.6493292  45.8034372  55.8078909  53.6189127
  45.2773762  56.4115429  53.0944157  46.6992617  56.1339521  53.5327959
  21.2183309  16.8553269  33.5348701  21.0833168  16.2309110  34.2476869
  21.5382314  17.6470554  33.9673758   4.0333021  47.2374964  48.2824755
   3.2221511  47.6087904  48.6294699   4.1350290  46.4072895  48.7479258
  39.5687962  19.5153773  11.2335455  39.5994282  19.2555428  10.3127968
  38.6602712  19.3650627  11.4947331  84.0084743  26.5446639  46.7606544
  83.5543728  27.3755479  46.9008541  84.8773861  26.6798306  47.1387482
  10.9828591  76.3414764  57.9424763  11.5017605  75.5426502  57.8484440
  10.1336873  76.1219978  57.5591135  49.5637894  38.6871552   3.2262352
  49.7142887  37.7870250   2.9375333  48.6775017  38.6777401   3.5876763
  48.8975191  48.6673832  66.3904762  48.1384373  49.2423820  66.4874268
  48.9440060  48.4883881  65.4513121   0.4670473  70.5742931  65.2516842
   1.0027690  71.0693550  65.8714819  -0.2118181  70.1696873  65.7917452
  12.0371532  73.1706953  16.3953090  12.8342080  73.5896635  16.7199671
  12.3485458  72.5127888  15.7736766  20.1694155  66.0872650  59.8776865
  19.8591590  66.8988132  59.4759798  21.0295081  66.3099146  60.2339125
  36.3949347  58.8722134  60.7116032  37.0193315  58.4352493  61.2907600
  35.9729433  58.1589842  60.2325821  42.7957535   8.0826551  65.2701664
  41.8921137   8.1340456  65.5816603  43.3237028   8.3546132  66.0208607
  60.6827307  57.1670389  28.9517474  60.1798487  57.2136545  29.7648668
  61.1023045  56.3071108  28.9785862  45.2068853   6.7937589  39.4628453
  44.7723722   7.5992113  39.1823554  45.9997797   6.7507249  38.9283347
  70.4513979  43.2951927  13.4973240  70.6254387  44.0595865  12.9481006
  70.8592844  42.5663853  13.0296719  39.0870714  45.4432058   1.1746768
  39.5501256  44.8771048   0.5571514  39.3600726  45.1306057   2.0372197
  58.6167240  33.3171344  15.0818956  59.2632818  33.4378839  14.3864703
  57.7802658  33.2474089  14.6217787  45.9522724  13.2811987  34.5926952
  46.3428020  13.2865775  33.7188029  45.9376764  14.2018747  34.8541832
  73.2033873  28.8149261  18.2231653  73.4910297  29.6698952  17.9029727
  73.8939953  28.2116365  17.9486895   0.1909040  68.3473444  36.1264753
   0.0496661  69.1126919  36.6837263   1.1311367  68.1780434  36.1858964
  69.7544622  69.8787546  52.2601604  68.8991404  69.4491434  52.2696972
  70.1207829  69.6640396  51.4022923  49.8936987   9.9032158  17.7768171
  50.3579855   9.2960739  18.3530533  50.5828953  10.4503393  17.4001253
   2.8924307   3.0446371  55.1604366   2.8471401   3.9416796  54.8295355
   3.8265365   2.8867242  55.2973366  58.9975500  60.7090378  34.6842909
  58.7732267  61.2366867  33.9178061  58.3685589  60.9790754  35.3533769
  48.8484049  19.4645631  33.4944606  47.9515839  19.5189071  33.8246059
  48.8693762  18.6507511  32.9909706  39.0253878   8.8319814  12.6187313
  39.4212580   9.4592184  12.0136762  39.0507889   9.2707193  13.4690821
  34.0760899  57.5833893  55.7424450  33.3639312  57.0647955  55.3681135
  34.6182561  56.9457245  56.2068462  43.5775661  36.5028024  13.5172081
  43.5339594  35.6412005  13.1025088  42.7908087  36.5471625  14.0606034
  26.9178534  72.7754307  34.3895411  27.6182556  73.4254837  34.3338418
  26.8081427  72.4639750  33.4911036  27.4866939   1.2818672  10.7966316
  27.8578949   1.7160010  10.0285375  28.1675577   0.6711946  11.0790002
  11.0622072  77.8320169  16.9018745  10.1658475  77.5080967  16.8132997
  11.3176012  77.5896645  17.7919698  40.7189322  12.8638637  14.7639239
  41.3719130  12.4899876  15.3555870  39.8781633  12.6411271  15.1635885
  68.0921555  46.9995260  21.2215424  67.1471357  47.0949364  21.1029553
  68.3781195  46.4881706  20.4645920  84.1883087  35.6947207  59.1767454
  84.8649693  36.0448098  59.7562265  83.8076591  34.9654675  59.6661615
  44.5599794   6.9511384  13.8458860  43.8772631   6.5640706  13.2978833
  44.3554544   7.8861457  13.8586283  79.7548914  26.9504571  17.6298249
  80.3623772  26.3674688  17.1745026  78.8926268  26.7099190  17.2908950
  24.5690513  16.3734925  16.0761642  25.3669620  16.8887997  15.9577239
  24.7979259  15.7278728  16.7447627  68.7703657   7.2600049  49.9205017
  68.5127306   6.5412223  50.4977417  69.7270250   7.2619355  49.9527216
  54.4020176  62.2414446  42.8628922  54.6883154  62.5952291  43.7049770
  55.1880836  62.2568607  42.3169136  45.5967093  22.3452616  43.0198383
  45.3134584  22.3668337  42.1057606  45.3067350  21.4912033  43.3403540
  75.7824373  65.6588459  59.8948717  76.7359018  65.5914497  59.8438740
  75.6044722  65.8452463  60.8167267  18.3869278   3.1567255  59.9984741
  19.0070343   2.8248093  60.6477308  18.6416769   2.7266264  59.1821718
  75.5693817  43.1862640   8.1112498  76.1645222  43.0821228   8.8536710
  75.2540207  42.3006582   7.9310173  78.1655407  31.3985515  34.4277143
  78.4297705  30.9446287  33.6274838  78.5739517  32.2615600  34.3595290
  28.3845019  21.1419749   8.7359130  28.5062599  20.2832437   9.1408652
  28.9582062  21.1290193   7.9698008  27.6690555  25.3199315  25.6694531
  28.4478068  25.0631118  25.1756692  27.8088999  24.9559212  26.5436220
  28.7722683  46.2789726  16.1073005  29.5116186  46.8583584  15.9231675
  28.3235025  46.6906404  16.8457925  41.6252995  15.6345177  14.3817914
  41.0623169  15.8544171  13.6395478  41.3385105  14.7614181  14.6495259
  81.6044426   8.9214092  26.5841794  81.8666077   8.8883024  25.6641746
  82.0494843   9.6940207  26.9323874  59.1215467  17.2113645   5.6127602
  58.6856222  16.7577839   6.3341933  58.8327360  16.7458916   4.8278064
  43.5864353  21.8566394  19.4542277  43.3362675  21.0400128  19.8863924
  42.8035498  22.4048996  19.5065451  21.9591808  65.1320553  51.5413666
  22.5946617  65.6011581  52.0820522  21.2823105  64.8507500  52.1569538
  13.8000071  69.6777582  26.8114567  13.9969099  69.9845171  25.9263825
  12.8880703  69.3901682  26.7679334  34.2176819  26.0113120  22.2455549
  34.9118614  25.4079151  22.5106120  33.7293315  25.5346012  21.5743661
  80.4545879  41.4645481  35.5123663  80.7332516  41.9869566  34.7602582
  79.5827341  41.1488104  35.2748442  67.5555372  17.5273561  42.4561357
  67.2567368  18.0369341  41.7029572  66.8229723  17.5574386  43.0715036
  37.5846386  41.2168503   1.6798133  37.9094243  41.6999006   2.4396889
  37.9584169  40.3408289   1.7752269  52.7021646  33.3814049  11.2409687
  52.7436924  33.3206797  12.1953380  53.4268856  32.8363276  10.9345281
  80.5029297  76.5820551  60.8062983  81.4292717  76.3926029  60.9553671
  80.0377846  75.9362268  61.3380718  32.1469688  76.0760832  63.3402014
  32.6322317  75.7595015  62.5782776  31.3650107  76.4875317  62.9721212
  68.2199049  49.6930695   8.2406282  68.6242628  50.3296423   7.6511347
  67.2793531  49.7965097   8.0960780  12.5634468  65.0784731  68.3694029
  12.1960640  64.7716570  67.5404739  11.8559420  65.5807257  68.7736416
  26.2160254   5.0002962  40.0063944  26.8347549   5.7089233  39.8296046
  25.7837296   4.8447224  39.1666627   0.2778675  74.2227697  62.2815514
  -0.1763213  73.5495615  62.7882433   1.2045375  73.9952898  62.3574972
  68.9675188  68.2505369  59.6504068  69.0804768  67.5798941  60.3239870
  68.0191708  68.3277988  59.5460081  25.4625368  13.3350062  67.2143269
  25.9784770  13.3221364  66.4081764  25.6878591  14.1674626  67.6296329
  71.9739676  78.2816124   4.3635327  71.9607067  79.1162872   4.8319092
  71.5787649  77.6585054   4.9732763  66.8523026  51.0195494   4.4302672
  67.7602148  51.1995316   4.6742609  66.4755535  51.8821192   4.2562771
  52.0036316  59.3727779  35.9707904  52.3653555  59.9403191  35.2901387
  52.0809603  58.4888697  35.6116915  36.7955589  68.6212778  41.3628244
  36.6529036  67.8109646  41.8519878  36.1625481  69.2377996  41.7308331
  49.3253422  24.0705800  32.2690034  49.1724825  25.0083709  32.3848176
  49.2786932  23.9353895  31.3225484  52.3963737  48.9854622  19.7950089
  52.1639824  49.0916681  18.8725412  51.7604351  49.5241642  20.2657676
  21.3499165  28.2543540  65.9957933  21.9207716  27.9809046  66.7138338
  20.4856110  27.9208994  66.2366581  20.5657816   4.1029039  56.8281364
  20.2838731   3.1910217  56.9004536  19.7533262   4.5966849  56.7171097
  18.4543276  78.5880709  56.8390274  18.1311440  79.3899202  56.4281559
  17.6628888  78.1120491  57.0905447  58.0336428  40.6237936  18.0048013
  57.8215170  41.1964417  18.7418973  57.7287340  39.7586179  18.2781696
  61.9731236  59.7546434  63.9264774  62.7599335  60.2888298  63.8178253
  62.2952366  58.9205074  64.2680836  64.6793079  28.7740588  25.9416938
  65.1171875  28.7171412  25.0924277  64.4708300  27.8669071  26.1649537
  11.8874800  76.2206411  67.5964594  12.2990203  77.0434189  67.8608561
  12.4475837  75.5412197  67.9718256  60.2184391  45.9223223  48.6741066
  60.3830767  45.1336908  48.1572104  61.0579395  46.3820839  48.6835718
  49.4751024  19.2818880  27.3853707  48.6840630  19.0722442  26.8888450
  50.1948595  19.0390897  26.8029332  63.0133581  48.9403057   8.3268988
  62.7760839  49.8019552   8.6696702  62.5188875  48.8626385   7.5109965
  71.3787937   3.3306643   4.4664961  71.4269829   3.8304260   5.2814484
  71.2117815   3.9885771   3.7915957  62.7427864  44.1476870  39.0340686
  62.9751825  43.2937002  39.3986583  61.8802261  44.3387079  39.4024968
  54.3346596  10.4852319  33.9529109  53.9225388  10.7490385  34.7755837
  53.6341047  10.0575352  33.4604359  15.2339625  14.4050944  66.5529585
  15.4233253  15.2853310  66.8778563  14.4263530  14.5044482  66.0488462
  64.1038895  37.9476976   6.7391324  63.4919786  37.9953837   6.0046124
  63.6546898  37.4090314   7.3905063  71.1998177  60.7943535  32.6011682
  71.6851377  60.0322104  32.9171276  71.5695333  60.9720564  31.7363214
  67.2350025  49.3355894  28.4748578  67.1988106  49.0962362  27.5487733
  68.1016111  49.0486145  28.7627172  39.8848629  25.2323341   7.1871662
  39.0106344  24.8493767   7.2599691  39.8739028  25.9715915   7.7951235
  59.3804407  69.2076778  50.1908684  59.1004133  68.8281822  49.3579197
  58.8818407  68.7279510  50.8522987  27.1154475  26.1023998  68.3618927
  27.9663396  26.4038253  68.0435276  26.5631223  26.8840075  68.3458281
  42.6720190  45.4798031   9.2923588  42.2662020  45.4203606  10.1572347
  42.0217371  45.1077604   8.6965829  46.5174818  35.3346395  13.0441558
  47.2531271  34.7511339  12.8582036  45.7643366  34.7503090  13.1311190
  37.2811699   0.8226953  59.1577721  37.9792714   1.4580253  58.9988947
  37.6708078   0.1826493  59.7533846   6.8379319  15.3450465  60.0410700
   6.8725967  15.2824461  60.9955883   6.8635601  16.2849212  59.8615932
  40.2679300   8.3474427  65.7293892  40.4957056   8.7838054  66.5503263
  39.6255255   8.9271975  65.3201962  47.0448875  22.1982098  64.2795181
  47.2370958  22.9638529  63.7381506  47.8948355  21.7778063  64.4102049
  16.5591228  31.1130142  52.1827507  15.7166362  31.5558243  52.0809269
  17.1170259  31.5018272  51.5091038  66.6576433  50.3705692  43.8696671
  67.5429106  50.1120663  44.1260052  66.7647791  51.2385511  43.4806156
  21.4621353   5.8320856  25.1106954  21.0218215   4.9883434  25.2129436
  22.3218083   5.6117135  24.7520471  69.2862797  16.4160275  31.6675806
  69.2485046  15.6734562  31.0647607  70.2166414  16.5122378  31.8710756
  59.9625492  43.8702345  24.2368078  60.5030775  44.0977573  24.9933076
  59.0629387  43.9322042  24.5578980  74.2327118  62.9416323  52.0988035
  73.3872604  62.5531244  52.3235321  74.6602440  62.2840166  51.5501785
  23.3272004  30.1439953  46.0174131  22.8567386  29.4016171  45.6382370
  22.6416278  30.7743216  46.2385654  70.7517958  56.8001223   2.3834720
  70.4696083  56.4783096   3.2396495  70.0900888  56.4723587   1.7744145
  73.7358046  15.0894272  14.5568979  73.8350439  14.6013629  15.3743184
  72.8013039  15.0345039  14.3570900  73.1042099  51.0213757  68.7204075
  74.0132666  51.1175680  68.4365177  72.8978109  50.1013899  68.5553312
  57.9002476  15.2903795  23.3490753  57.0655060  15.3235924  22.8818083
  58.4836245  15.8508134  22.8373957  43.9352322  36.0103512   6.0858327
  44.5160198  35.9403372   5.3281963  43.8853359  36.9496155   6.2633878
  19.8957968  14.9864638  13.7730181  19.7410512  15.6882656  13.1407523
  20.4761863  15.3765929  14.4266069  57.8691483  71.8161011  54.2978907
  58.1610394  70.9356785  54.0614796  57.8293276  72.2868443  53.4653997
  45.1695919  55.1024914  31.2949634  44.9452686  55.6570864  30.5477452
  46.0367012  54.7560835  31.0843563  21.8494821  74.8974609  60.4150391
  22.4709558  74.4660711  59.8286057  21.4665723  75.5969763  59.8856163
  58.7132025  45.1885414   6.1681145  59.4883442  44.9974155   6.6961849
  58.7415504  46.1360550   6.0352904  65.4949427  38.5218620  39.4098902
  66.1119652  37.8171253  39.2127633  65.8089876  38.8912845  40.2351952
  74.0544415  35.3189158  16.7572737  74.3091059  35.3842258  17.6776624
  74.5865965  34.6021938  16.4117980  80.9251499   8.9863294  32.6302147
  81.1612034   8.0592120  32.6612973  81.7638493   9.4475192  32.6412463
  62.1464157   4.7968578  29.6645665  62.3120165   3.9853102  30.1443577
  62.8378963   5.3918624  29.9544954  62.1778345  13.4612751  33.9047790
  62.6561069  14.0537834  33.3247590  62.2776365  13.8461459  34.7754931
  78.8098097   1.0240089  39.6501780  77.9606009   0.7900393  40.0247908
  79.3148422   0.2112779  39.6754479   5.3823751  19.9676454  27.2815871
   5.6354100  20.7253838  26.7542934   6.2123525  19.5595253  27.5281763
  68.7975025  35.1672697  26.3561940  67.8579235  35.2971983  26.2275648
  69.0948677  35.9724998  26.7797661  41.0023117  16.5451264  55.5659819
  41.0117340  15.8561957  56.2304544  41.8941927  16.8926597  55.5686426
  70.3585911  72.2642422  10.1937842  69.8248339  71.5653515   9.8157829
  70.9993744  71.8079376  10.7391417  61.4416456  49.0417957  21.1328316
  61.3414192  48.7241650  22.0302153  60.5746603  49.3722200  20.8974791
  83.0858040  64.1637325  26.5116000  82.8283691  64.9414873  26.0165691
  83.8228416  64.4546986  27.0485830  54.5381498  45.6006050  48.0955029
  54.8682594  46.4965153  48.1633520  53.5892868  45.7001829  48.0182076
  68.2717705  56.6369486  58.9570999  67.4000788  56.9387150  58.7015104
  68.1227207  56.1137438  59.7446728  68.5583782  48.2193518  34.6876359
  69.3721294  48.3689976  35.1689386  68.0445099  49.0137100  34.8331285
  37.4723792  70.6899929  44.8731852  37.8108239  71.2754536  44.1957474
  37.3360634  69.8563242  44.4230223  78.2685328  19.9708354   6.9548345
  77.3712397  20.2119136   6.7246765  78.6248684  19.5830476   6.1555362
  57.1603441  26.6287327   0.4623252  57.5483990  26.5661001  -0.4104425
  57.3159075  25.7701159   0.8557889  68.4695816  66.9704390  23.3791494
  68.6755419  66.0394955  23.2945299  67.9736710  67.1789598  22.5874281
  49.3923378  61.2625360  29.8341799  50.1175880  61.6688681  29.3596911
  48.6645365  61.2714291  29.2125249  73.2641792  68.7042093  38.0043244
  73.3188963  68.8015032  38.9549947  74.1530132  68.8775969  37.6942635
  60.1625586  50.4311752   8.2393724  59.4199228  50.7211924   7.7096444
  59.9001646  49.5719051   8.5695821  45.0988722  46.5817356   5.4332608
  45.9680367  46.9697905   5.3322875  45.0566530  46.3252163   6.3544798
  52.8414583  76.0282516  46.1445093  51.9370747  76.2984705  45.9854317
  53.2656527  76.0959816  45.2891111  43.2017660  46.7196608  13.5991788
  43.3204365  47.1154642  14.4625950  42.3018837  46.3934898  13.6068583
  41.3984871   5.0837606  63.6030197  40.8158255   5.2636558  64.3408346
  42.2777605   5.2349371  63.9497995  56.0905790  66.4923906  17.8443587
  55.5450821  66.4459896  17.0591748  55.6848812  67.1758175  18.3778083
  45.6274843  67.7807283   8.3224416  45.8887911  68.0481958   7.4413002
  45.5559492  68.6010838   8.8104296  63.3010817   8.3686590  44.4378281
  62.4489403   7.9898471  44.2219687  63.9362478   7.7335352  44.1070557
  82.2972488  66.0647011  11.0764790  81.8100452  65.6427097  10.3688133
  82.9506588  66.6028881  10.6296670  41.0962534  76.3186502   4.2881414
  41.7079496  76.0937166   4.9891859  40.4358768  75.6262589   4.3151715
  26.5155482  25.1447964  36.7518663  25.6460738  24.9978852  37.1242404
  26.8582392  24.2658949  36.5896082  68.7371397  42.7396107  47.7620792
  69.1860390  42.1436167  47.1624851  69.4423151  43.1619787  48.2525492
  44.4268990  18.4081650  11.8030119  44.9961472  18.8793683  11.1946082
  43.5944033  18.8791049  11.7656541  47.4423122  33.6289120  22.0635676
  47.5761127  34.0689182  22.9030442  46.4919519  33.5452461  21.9857955
  34.0122318   3.4688297  35.8200908  34.1502738   4.2626920  36.3367724
  34.1292214   2.7530998  36.4448118  33.5258937  33.9489841  65.2300167
  33.3363128  33.5603881  64.3760347  32.7208662  34.4089651  65.4678822
  82.2841740   3.3754766  58.1456709  81.9908905   3.5236737  57.2466469
  83.2131767   3.1604719  58.0621719  67.2630548  70.2491236  20.8732009
  66.7187977  69.6030664  20.4230571  68.0570698  70.3054762  20.3416061
  39.3380523  28.0206084  68.2361603  39.2424273  27.8691483  67.2958708
  40.2820873  28.1041670  68.3705139  58.3182192  34.5079303  19.5694792
  58.9840794  34.8449206  20.1688933  58.7474537  33.7804580  19.1191745
   8.9609605  56.5654325   5.7458127   9.4677663  56.2879562   6.5089548
   8.8507283  57.5091743   5.8617425  43.0364656  19.3811059  35.3115439
  43.2357883  19.9009883  34.5329404  42.7016830  18.5530353  34.9673772
  79.9933481  39.7661233   6.5344745  79.0534878  39.9474788   6.5363771
  80.4014778  40.6153154   6.7033798  16.1527026   2.4170220  66.0558081
  16.8212926   2.5825095  65.3911066  15.4217768   2.9824603  65.8062935
  44.2309952  79.6732855  63.7058306  44.9474430  79.1131830  63.4071302
  43.5379791  79.0624571  63.9565134  25.0550270  63.4277248  42.3621893
  24.5736098  64.2096519  42.0918989  25.4264164  63.6576033  43.2139254
   7.3837978  56.6130733  26.4623046   6.5549833  56.5867376  25.9841800
   7.8013396  57.4244785  26.1733222  38.5940981  25.9831095  62.8907299
  39.2371941  25.3928709  62.4979496  38.5323119  26.7137003  62.2753811
  70.9561348  45.9341955  65.9138918  70.1398134  45.4686880  65.7318020
  71.2977886  46.1654329  65.0501585  57.9983759  44.7807550  27.8007030
  58.0104256  45.7093954  27.5689483  58.2494831  44.3294859  26.9947672
  31.0902333   9.9148375  67.1517134  31.1819768   9.8731339  66.1998320
  31.4236116  10.7807744  67.3867559   1.6275001  17.7434015  66.7674541
   2.4501041  17.7813184  67.2554255   1.0018628  17.3599672  67.3820972
  60.9467983  37.0750380  17.9052722  61.8149567  37.0522356  18.3077765
  60.8687973  36.2333012  17.4562418  59.1698408  74.4726229  61.6990471
  59.7133255  74.9279594  61.0559893  58.2795906  74.5459604  61.3550949
  44.1693974  21.1310673  46.2623501  44.0461874  22.0522714  46.4913368
  43.6316442  20.6532979  46.8938494  64.5920324  69.4268465  13.5694003
  65.2678156  69.6506500  12.9295123  63.7944365  69.3256330  13.0499446
  62.0096684  63.6125517  25.4380369  61.4775229  64.3471909  25.1324868
  61.5004587  62.8356075  25.2071786   9.9517721  47.1977425  26.3851666
   9.0524769  47.5243139  26.4143157   9.9252421  46.4790487  25.7534909
  79.2998981  60.9323740  50.5402327  79.6633768  60.6923151  51.3925743
  80.0661659  61.0728359  49.9840498  49.6087790  39.2621970  11.5524566
  48.8086891  39.7781968  11.4532912  49.3008423  38.3816624  11.7670774
  59.0816927  10.9799767  65.7713604  59.9221563  10.8905768  65.3220749
  59.0387297  10.2205050  66.3523865  74.4866800  43.6933994  28.5016680
  73.8434792  44.2747593  28.0960274  75.3181171  43.9335537  28.0926776
  65.7743168  43.2057095  65.9400320  65.9259892  42.4181986  66.4625740
  65.0963926  43.6834097  66.4179945  74.6504688  17.5417209  19.0675128
  74.5737600  18.4334624  19.4068396  73.7524891  17.2103620  19.0596783
  42.5849009  22.9497242  32.7051926  43.3072710  22.3221898  32.7299142
  42.6097679  23.3774042  33.5611725  13.9052486  61.2467813  43.5188150
  14.2046559  60.3565264  43.3343410  14.7096336  61.7617989  43.5817194
  65.0622272  17.7188194   8.5818338  65.9230518  17.3899949   8.3228087
  64.9558449  18.5295391   8.0841917  23.5896111  19.8839569  68.7657738
  23.7971544  19.2840254  68.0493641  22.9470801  19.4116163  69.2951870
  46.8580580  49.6060419   2.1470225  46.5714121  50.4298735   1.7528555
  46.2449551  49.4590187   2.8672421   0.9234792  26.9966149  35.7108116
   0.7831690  27.4745131  36.5282202   0.6121273  27.5918365  35.0288987
  12.9452252  10.6160712  26.4698148  12.9833245  11.4916039  26.8548131
  12.8856266  10.0263190  27.2213936  71.6413784  46.9223356  29.3643212
  70.8466101  47.4445391  29.4733167  71.5725946  46.2393761  30.0314498
  61.4854145  22.7020383  15.2808368  61.2300014  22.8295302  16.1944783
  62.3401690  22.2738457  15.3286088  36.1976433  61.9231462  16.9912672
  36.2903118  62.3006630  16.1165524  35.6211877  62.5308323  17.4545658
  81.4412117  41.4420986  52.3767328  82.0674992  41.7074966  51.7032671
  81.2609577  40.5214262  52.1867132  42.8438759  47.1838045  40.9288502
  42.6034975  46.2751532  40.7477283  43.7377071  47.1321678  41.2674236
  60.3917503  64.1695929  16.7311907  61.0932159  63.6458492  17.1183240
  60.7984877  64.5934820  15.9754694  65.3213263  21.9218731  37.8912163
  64.9947882  21.0431719  37.6975942  64.9833679  22.1157169  38.7655377
  53.6315107  36.3009882  15.3321123  52.6767778  36.3126254  15.3997791
  53.8971758  35.5251813  15.8258510   0.5872193  25.2567816   8.1119525
  -0.1057149  24.9540281   7.5250846   0.7924384  26.1398149   7.8047556
  74.7625113  51.2374163  16.3841355  75.3958702  50.7781935  15.8325899
  73.9345598  50.7835102  16.2269664  74.0141821  46.3464832  12.5925243
  73.7752676  46.8098354  13.3953047  73.9660072  45.4198122  12.8274620
   9.9909925  33.7214255  24.3342113  10.8861387  33.3838010  24.3033051
   9.8659647  33.9855433  25.2457166  59.7654819  47.2667074   2.8198808
  59.9270916  47.3135233   1.8775845  58.8189411  47.1455574   2.8948238
  71.2781239  68.6887598   9.4976968  71.7032290  69.3332291   8.9318508
  71.2319088  69.1149426  10.3535390  10.8098340  65.8600187  63.1987524
  10.8599055  64.9384069  62.9450846  11.4373422  65.9453106  63.9165211
  55.6156445  23.5812449   6.1066037  55.6936836  23.0241942   6.8810934
  54.8951244  24.1770697   6.3117373  20.0694132  31.6697168  40.1134777
  19.4126773  31.5850854  39.4222689  20.6312895  30.9023738  40.0052547
  52.3504162  53.8613415  44.6531391  51.7398262  54.5765352  44.8317623
  52.6819515  54.0434313  43.7738466  79.6027040   1.4534123  20.9050655
  79.7718287   1.8057963  21.7788243  79.1710043   0.6141409  21.0647178
  64.5528507  17.8148699  23.6874485  64.8792887  18.7125635  23.7492299
  65.3362799  17.2846448  23.5414028  35.7233119  76.4005661  65.8391714
  35.9154940  77.3381758  65.8256006  35.7677722  76.1336470  64.9210167
  47.6656723   4.3553385  21.8447256  47.0368052   4.4110072  21.1252427
  47.5059986   3.4967074  22.2365022  51.1426210  61.4849043  31.9511390
  51.3228512  62.3888445  31.6929793  50.4238892  61.2117577  31.3810062
  60.0370646  49.6627522  67.1406221  60.4386044  50.5315447  67.1544886
  59.8408985  49.5042658  66.2172413  56.0514498  48.5599422  37.2250891
  55.7858706  48.2425594  36.3619733  56.1390018  47.7676916  37.7550960
  57.1842432  74.2786837  22.6703930  57.2897577  75.2034378  22.8938437
  58.0696106  73.9798975  22.4628401  49.5785570  67.4092197  12.3458254
  50.2705860  67.1268177  11.7478490  49.0688944  66.6165781  12.5137365
  76.3182116  75.3035164  42.8212595  75.4710960  75.4690933  43.2350349
  76.1079693  75.1415253  41.9015884  53.9328718  29.0946150   6.8285930
  53.9301109  28.2392693   6.3989329  54.2002296  29.7063541   6.1426419
   2.7813271  10.4142070  12.7280450   2.2395734  10.8121598  12.0465994
   3.5182652  11.0164487  12.8303075  76.1495543  78.5156298  15.5733120
  75.6725311  78.3150673  16.3785791  76.8521595  77.8662729  15.5430913
  33.4811807  52.5779486  15.5963087  32.6356840  52.5427675  16.0436678
  34.0186071  51.9275522  16.0484076  76.3622427  29.7940040  28.9752293
  76.3322449  30.5792642  28.4286976  77.2941017  29.5870471  29.0462136
  71.6566658   4.1765743  38.5913515  71.0832357   3.7399358  39.2212391
  72.4269438   4.4263420  39.1017580   2.9267526   0.5547526  17.9543793
   3.5963336  -0.1244021  17.8728819   2.1966997   0.2362609  17.4235141
   0.3315845  62.3903799  12.6384020   1.0548960  62.4344206  13.2637930
   0.0180600  63.2922554  12.5709188  41.0254622  19.6102238  37.9988933
  40.5117369  19.6803403  37.1942782  40.9713507  18.6848819  38.2377362
  34.3892074  73.3297586  63.4453440  35.2040744  72.9496956  63.1170511
  33.7361288  72.6413441  63.3196211  52.9648972  63.7121344  58.1832838
  53.0009222  64.1202450  57.3181915  53.7790251  63.2127142  58.2465935
  38.3262300  78.0863333  37.6324320  38.5043883  78.8812208  37.1297956
  37.3845601  77.9462004  37.5331664  53.7338877  49.5792007  32.2144580
  53.1605577  49.9273205  31.5315723  53.8789749  48.6669922  31.9633460
  18.3249247  23.6121273  56.0304308  17.3730540  23.5790586  55.9351397
  18.5854673  24.4034767  55.5591440  53.5292339  71.5899515  21.5193820
  53.5479021  72.2891855  20.8659697  54.0249729  71.9403887  22.2594261
  65.8788729  43.0199099  28.0954933  65.7202959  43.9357471  28.3242559
  66.7142725  42.8099585  28.5129356  70.2923727  59.5796347   0.6443824
  69.5085955  59.0490723   0.5014481  70.9272194  59.2444849   0.0112344
  40.6054592  12.0334041  60.9948874  40.8921385  11.5231347  60.2374744
  41.3802719  12.0876265  61.5543127  68.9453554  60.5398369  17.2514153
  68.7019730  61.0158825  16.4574528  68.1491995  60.5374479  17.7827954
  67.5782776  34.8649764  54.6123552  68.0526066  35.4383564  54.0102911
  67.0417690  35.4595160  55.1366806   2.7522627  59.6445036  39.2030072
   2.8960451  59.9734783  40.0903273   2.1259463  58.9288235  39.3114591
  43.8991642  46.0340261  65.5189037  43.1654930  46.2870407  66.0792065
  43.6941767  46.4197016  64.6671581  31.8489838  23.1956148  66.1737490
  32.6339555  23.7097788  66.3626528  31.6513538  23.3881927  65.2571869
  34.1235328  69.3796539   2.8786498  34.8216724  69.5840979   2.2565290
  33.3946538  69.9406338   2.6135671  63.8141537  60.4820776   3.4984794
  63.1650066  60.9007931   2.9332203  63.6841822  60.8892727   4.3549460
  68.8209391   0.2802054  62.9465580  68.9228630   1.2088804  63.1548977
  68.8280392   0.2471633  61.9899511  50.1500511  73.9506531  17.4674296
  51.0125256  73.8908195  17.0565963  49.6062517  73.3372641  16.9731891
  30.0080943  24.5565915  68.2501173  30.9098339  24.5168257  68.5687304
  29.4883657  24.7622776  69.0271664  38.0768991  34.5154858  63.6444139
  37.6011586  34.5076323  64.4749784  38.2239962  35.4434419  63.4614134
  66.2463760  69.5879030   3.1777304  67.0552731  69.1604090   2.8963691
  66.4471483  69.9309874   4.0484866  82.2820091  50.2878428  36.1161947
  82.9158020  50.7981157  35.6120539  81.8794346  49.7036982  35.4735875
  10.2421463  31.2030888  62.5981855  10.7439339  31.1943364  63.4132719
  10.6529129  30.5289960  62.0567989  70.0070000  42.2679710  22.0224261
  69.6556807  42.4753475  21.1565161  69.9816132  43.0991125  22.4965429
  78.9006662  42.7212667   8.6442500  78.4273672  42.1400166   8.0489624
  79.3289614  43.3556223   8.0694544  74.8591852  78.8078880  47.0392323
  73.9387655  78.5568810  46.9614172  74.9881029  79.4615602  46.3519764
  36.7222548  64.3923712  22.2681022  36.9276500  63.4604216  22.1938252
  35.8848119  64.4899273  21.8148828  26.1777163  15.3878832  22.5057817
  26.3418508  14.8789024  23.2996511  25.2684307  15.6750798  22.5891232
  13.0210209  27.8863525  10.5127001  13.9713931  27.8000712  10.5874002
  12.8820169  28.8015699  10.2692091  80.9815311  60.1574039  36.6021085
  80.3332233  60.6769037  37.0775580  80.5340576  59.3332863  36.4102101
  79.2053890  70.3637409  31.7367220  79.7527742  70.5389547  30.9712815
  79.4533587  69.4809961  32.0114994  50.6585026  56.0252380  51.7393637
  50.9272671  56.9438553  51.7274952  51.4126110  55.5505180  51.3897991
  22.8722382  41.5091372  19.3383157  23.2144046  41.0215187  18.5890615
  23.6477733  41.8888235  19.7513711   0.3408588  57.2882366  23.5285997
   0.2954666  57.9359388  24.2319131   0.7772659  57.7454329  22.8097463
  70.9034777  26.4403534  10.8267057  71.5911484  26.1360312  11.4189303
  70.2087259  25.7872891  10.9107220  45.9510517  38.1740880  -0.2085443
  46.5624046  37.5670457   0.2085610  45.3067446  38.3702230   0.4716251
  63.3132744  30.1931429  23.2693219  64.1791821  29.8632264  23.0293512
  63.4699345  31.0945177  23.5507655  48.2814693  26.0809970  54.8332310
  48.6727142  25.7623529  54.0198278  48.2870483  25.3212142  55.4154110
  62.9945183  69.2948103  49.4515657  63.9424992  69.4118118  49.3893242
  62.6494598  70.1824236  49.5480299  32.0113730  18.5980904  59.7117424
  32.4605417  18.9036620  60.4998446  31.9701505  17.6471579  59.8130369
  53.3080816  42.3902988   8.8526648  53.7063026  41.6138363   9.2460614
  52.7801371  42.0490694   8.1308144  83.5985279  78.0349064  18.8693142
  83.8676548  77.4541283  19.5810056  83.9734554  77.6392031  18.0824924
  51.3757944  15.3773463  61.8254042  50.8192205  15.5937862  61.0773325
  50.8944798  14.6943212  62.2923565  57.1919918  59.4199133  17.0504260
  57.3273087  58.5510445  16.6722929  56.2823772  59.4124365  17.3483908
   6.1881953  55.6040001   5.5705363   6.9939733  56.0283995   5.2758509
   6.1481082  54.7906256   5.0675029  15.4901779  67.3499870  28.5819292
  14.9739563  67.0637226  27.8284073  15.8530760  68.1950331  28.3165312
  50.5178738  32.8489089  65.7078934  50.9328127  32.5650215  64.8933601
  50.5955839  32.0944881  66.2918806  55.5981064  16.0956430   9.2469043
  54.9566650  16.0409224   9.9552757  55.8315516  17.0230508   9.2062879
  83.3209038  65.8287668  13.7036669  82.9480839  66.5617132  14.1935956
  82.8331757  65.8183813  12.8801119  68.2211113  60.5317163  51.0068941
  68.8589430  60.7837582  50.3391552  67.9161119  61.3621664  51.3723516
  53.9067125  44.7218847  44.9775648  53.1275558  45.2641582  44.8547411
  53.6586046  43.8643742  44.6320915  63.9544821  14.9983656  50.0303078
  64.2367411  15.7275391  50.5824566  63.0011511  15.0778461  49.9974728
  68.1319571  52.4800920   1.9465247  68.2919312  53.3917141   2.1906292
  67.1785688  52.3948574   1.9504467  77.8894806  50.0307083  16.7201483
  77.6694250  49.8665810  17.6371372  78.3862686  50.8487511  16.7357683
  73.3482361  49.2698097   8.4151113  73.2451439  50.1304722   8.8211513
  73.0344200  49.3887615   7.5186735  19.9229646  37.5433373  35.9095693
  20.2005267  37.1061730  35.1045370  20.6463337  37.4022746  36.5203643
  27.3348570  13.0366015  65.0384855  28.2609963  12.8660548  64.8669910
  27.1360922  13.8188934  64.5239544  58.1414843  16.6097558  10.7924581
  59.0934801  16.5803480  10.6972229  57.8513670  17.2173643  10.1121068
  61.1785078  71.1721945   7.4697077  61.1526155  72.0876265   7.1912438
  60.7450151  70.6943941   6.7625862  79.6787500  57.1773052  28.5078001
  80.2542019  57.9259920  28.3510995  79.5225906  56.8090963  27.6381636
  70.8860397  38.2203579  24.6459365  70.4073858  38.0848432  23.8281584
  70.8944511  39.1702175  24.7639561  67.1055365  57.8807688   0.9451675
  67.1841431  58.3425999   1.7798929  66.6172791  57.0851040   1.1567120
  35.1736450  63.6973906  26.9088483  35.7072735  64.1146278  27.5851536
  35.7853794  63.5261345  26.1928320   1.0658289  29.4779062  42.7847815
   0.2016965  29.1612720  42.5216293   1.3195054  28.9069486  43.5099649
  44.7639608  48.7092304   3.9612836  44.3970776  48.3936310   3.1354353
  44.8729038  47.9201412   4.4920433  82.0481968  66.0463953  29.6046782
  82.4892139  65.2004051  29.6823692  82.3652554  66.5514374  30.3534341
   0.0151313  61.4437246  43.8422155  -0.3273463  61.6119957  44.7200680
   0.9175582  61.1596012  43.9875793  57.8723764  41.0254192  15.1610410
  58.5566330  40.6554317  14.6032429  58.0831242  40.7099247  16.0398376
   4.5859358  27.8356791  24.0665436   4.9228039  28.3546257  23.3361673
   5.3366280  27.3192048  24.3597126  19.1963923  24.5738459   8.4085393
  19.7940218  25.1406240   8.8962209  19.4411993  23.6861992   8.6700511
  50.3233433  35.1996827  14.1595387  50.9466934  34.5413542  13.8524973
  50.1556730  34.9636483  15.0719023  58.8365316  62.9196596  18.5835874
  59.1613770  63.5480356  17.9387176  58.0179214  63.3021832  18.8994730
  76.1485147  67.0974398  25.0921941  76.4179850  67.3310137  25.9804845
  75.5493879  66.3602352  25.2097011  63.7158489  51.2255001  53.8867044
  64.2862701  51.4763927  54.6132755  64.0170383  50.3521061  53.6362982
  79.8122501  68.6442375  26.0836792  80.5059433  68.6211157  26.7428327
  79.2413664  69.3604612  26.3617873  79.8133755  37.0775604  27.0687056
  79.4311476  36.6033959  27.8071475  79.1280985  37.6872540  26.7950249
  64.7833443  23.9276099  52.7908659  65.0695419  24.6992946  53.2795620
  65.4929066  23.7601590  52.1706104  60.3133154  53.0363274  24.2704701
  59.6768618  53.3409786  24.9172640  60.3675556  53.7489557  23.6337233
  70.9339714  75.6985378  41.1199236  70.9166384  75.4147196  42.0339108
  71.3571453  76.5567923  41.1436224  69.2786026  73.7892342  50.8574533
  69.7836924  72.9765320  50.8322954  69.9394417  74.4814062  50.8779621
  50.5576658  19.5415223  54.0905285  50.1144791  18.8378108  53.6166048
  50.6719542  20.2338147  53.4394503  25.0153708   3.4402600  29.1927600
  24.6001840   3.6156398  30.0372076  24.3622708   3.7053049  28.5451150
  36.7413092  63.7104273  65.4237080  36.1212301  63.2661390  66.0019302
  36.3612962  63.6195803  64.5498848  19.4677091  64.5775127  46.4980030
  18.6817920  64.6983576  45.9651184  19.3632174  63.7084007  46.8852425
  81.1111927  71.0086584  35.8381820  80.2232361  71.0024881  35.4807949
  81.4152527  71.9070005  35.7087111  81.4286804  53.5663271  -0.1655649
  82.1639824  53.0804062   0.2078540  80.8977604  53.8159657   0.5907680
   2.6394165   0.6637544  67.8345919   3.5224795   0.6448860  68.2034779
   2.3597153  -0.2516676  67.8358412   2.2241478  45.3395414  59.3914938
   2.6345700  44.6302223  59.8861170   2.8396878  45.5242491  58.6821127
  76.6924477  62.9870749  41.4436293  77.2236872  62.5092316  42.0805645
  77.1705294  62.8992414  40.6190395   7.6217252  18.3993328  10.9785914
   8.5448408  18.2028055  11.1381721   7.6145136  18.8435721  10.1307523
  33.4813213  22.2708011  32.5295591  32.6779914  22.7058172  32.2438073
  33.9686894  22.9500294  32.9957676  81.1275482  61.8764019  48.9353037
  81.7352581  62.6148081  48.9762545  80.7869720  61.8958187  48.0409527
  71.0646343  59.1600943  12.5247395  70.3103924  58.9930391  13.0899286
  70.9114742  60.0374651  12.1740401  72.3022032  58.3506489  33.0932117
  72.5336218  58.4415531  34.0175557  73.1179190  58.0879450  32.6667976
  65.3913975  41.4448977  41.7915440  65.3051805  41.6564465  42.7210855
  65.8610821  40.6109571  41.7782545  78.4528255  20.3449249  57.9382992
  79.2623711  20.4527903  57.4390697  77.7575302  20.5595875  57.3164320
  77.0590782  53.6356115  33.4720683  77.6887226  52.9146862  33.4650588
  76.2795210  53.2768869  33.0479980  52.9884338  25.0723386  59.2087460
  53.1297827  25.1698589  60.1504135  53.8662624  24.9546170  58.8457108
  68.8337755  53.7512398   6.3570368  68.4745407  53.6847019   7.2417724
  68.1295300  53.4396696   5.7885295  78.4972954   8.5303056  21.0778141
  77.8843832   8.8100296  20.3978658  79.3250942   8.9484096  20.8408093
  65.2912140  68.5842800  39.6429968  65.6906843  67.8913593  39.1171455
  64.9145508  69.1855764  39.0005040  75.2480888  39.1158915  20.2945018
  75.0571108  38.9152002  21.2107348  74.3972921  39.3361211  19.9151862
  62.0609570  27.6216578  68.4720898  61.7350340  27.7061725  67.5760651
  61.3255596  27.2517681  68.9605618   9.4810253  49.4003820  55.8120203
   9.7686106  50.0181866  55.1398277   8.5955369  49.1523457  55.5462790
  34.5678449  71.9691038  12.1115291  34.5267391  72.7963352  11.6316998
  34.5908999  71.2976408  11.4297402  74.8006248  51.8331957  25.5982471
  73.8497972  51.9075489  25.6796861  75.0153017  51.0115004  26.0397887
  41.7423725  44.9068022  11.8898392  41.0499191  44.2998600  12.1513009
  42.4916363  44.6640396  12.4338067  67.3359299  33.0628061  23.4899354
  66.5303373  33.5797381  23.4844708  67.3696041  32.6625991  22.6210666
  66.7846966  50.9898472  19.4627702  66.8011522  50.5337667  20.3041673
  65.9657049  51.4851665  19.4747949  43.9046001  33.9172912  66.3071251
  44.5688152  33.8464856  66.9927216  44.0633392  34.7723532  65.9072495
  48.7412786  53.4055424  17.2520626  49.4172955  53.9135075  16.8035018
  47.9993439  54.0059185  17.3248923  43.7517643  20.1967549  62.5022984
  43.4098577  19.3249309  62.7004242  43.6590719  20.6823421  63.3219624
  51.0460663  70.0203180  28.8206029  51.5247965  69.2660046  29.1642022
  51.7008924  70.7166195  28.7696242  23.8103557  17.1446085  27.5653267
  24.4901156  16.6237569  27.9929590  23.9116335  18.0212891  27.9360104
  52.8475142  59.9885988  24.7019267  52.8390884  59.0341139  24.7734809
  52.2157049  60.2835321  25.3577137  24.6432400  17.7606118  66.9168568
  24.0742326  17.0038688  66.7761421  25.1636839  17.8211892  66.1157942
  72.3336983  45.0751448  18.8970196  72.1324778  46.0095978  18.8465822
  71.8703270  44.7721672  19.6778643  73.9917850  43.1804562  37.5488400
  73.5075426  42.6627111  36.9056582  73.3577824  43.3508873  38.2454205
   0.6272158   8.1402296  18.3414936  -0.1431223   7.7245724  17.9541433
   0.7911066   7.6419187  19.1421533  79.3682766  79.1568661  38.1798458
  79.1159678  79.5586681  37.3485041  78.8382769  79.6100950  38.8355255
  65.9342766  52.3242426  14.4904554  66.6969728  51.8515444  14.8237419
  65.8506680  52.0339441  13.5821772  40.6477022  17.0148265  64.4926882
  40.7069921  16.0642159  64.3975210  39.8707056  17.2579324  63.9892960
  19.9281633  10.5671489  36.7109299  20.3083491  10.6609619  37.5843644
  20.6042767  10.1195788  36.2022233  67.0543337  61.6788244  26.2736583
  66.8314362  62.5260401  25.8879495  66.2737513  61.4276743  26.7674732
  33.0030775  52.6111221   6.8512189  32.4721527  52.7166462   6.0617781
  32.4517131  52.9479456   7.5574613  61.5726089  59.1429663  55.4557276
  61.5689754  58.3127403  54.9793434  62.4340820  59.1767073  55.8716154
  51.0392618  12.2553885  27.1781659  51.0603619  11.6548550  27.9232478
  51.1612272  11.6926980  26.4134860  32.4901390   9.3079317  58.7237692
  31.7191887   9.4687462  58.1797028  33.1737709   9.0574116  58.1023836
   6.2707198  43.1991005  61.8907833   6.5700227  43.9565182  62.3937368
   5.8768207  42.6192474  62.5425816  59.7828674  37.5584555   9.6514094
  59.0360355  37.8921390   9.1542888  59.8879337  38.1798673  10.3718531
   9.7859496  74.8725510  19.6080291   9.9619097  74.4980192  20.4711604
  10.6275427  74.8330927  19.1537213  69.2265224  18.7422943  10.1156926
  69.7037935  19.3901086  10.6341326  69.2285967  19.0980351   9.2270559
  16.9902766  37.1684813  17.5612795  16.1969805  36.6841745  17.7901006
  17.3819733  36.6635561  16.8486392  70.1540804  10.2101445  16.5537024
  70.9809542  10.6582904  16.3757169  70.3609562   9.5969927  17.2590256
  64.9698544  37.0282173  14.2116380  64.4876146  37.8201962  13.9740527
  64.6064615  36.7717338  15.0592196  81.0412598  14.5999336  28.0458117
  81.3983822  15.4826927  28.1429362  81.4673042  14.2541599  27.2614932
  59.2185450  24.7885609  54.7667027  60.0240898  24.9048328  54.2629099
  58.7256861  24.1271424  54.2810535  53.5031128  32.0603728  60.4220486
  53.1539631  31.2490654  60.0531244  53.4494829  32.6921248  59.7049379
  33.4535432  73.1101370  49.1527700  32.8304076  72.4735880  49.5031118
  33.0652547  73.9614582  49.3545485  68.0994081  37.0864654  41.4457464
  67.8768873  36.5790033  42.2262573  68.9870691  37.4039650  41.6115141
  26.9609094  65.9781075  45.6197977  26.7452145  66.8847227  45.4012823
  27.5211763  65.6852913  44.9010563  25.9402919  42.5406551  30.7680964
  25.6814480  42.9871511  31.5742445  25.9879112  41.6160393  31.0111046
  74.9413157  70.2274704  11.7466068  74.9718237  70.2859402  10.7916820
  75.2820826  69.3550682  11.9441593  32.6623702  25.2225137  47.5531816
  31.8646550  25.4804587  47.0912886  32.5598598  24.2824626  47.7015972
  77.8738260  66.1894560   4.0145847  78.3401871  65.3760147   3.8220930
  77.2397900  66.2762403   3.3027539  55.0444221   9.3877143  58.6350584
  55.5543804   8.8263828  58.0510378  55.0066662   8.9036024  59.4599485
  72.7455664  38.1940365   9.6604341  72.1852303  38.9472103   9.4733965
  73.0941725  38.3662057  10.5351138  83.7605381  42.1183109  11.8344426
  84.0093899  41.6273880  11.0513103  84.3089390  42.9024506  11.8099046
  24.4174814  25.4792142  51.0227394  23.6660910  24.9429369  51.2758255
  24.5984960  25.2259278  50.1175833  63.7738848  57.6228523  16.7381394
  62.8273201  57.4816418  16.7206919  64.1469097  56.7763376  16.4921844
   3.3375245  21.4835215  10.2495217   3.1771401  20.9976029  11.0584664
   3.7093270  22.3163295  10.5400825  79.4320583  57.2410107   7.7271235
  78.5137320  57.3883057   7.9534280  79.8434114  56.9821787   8.5517609
  -0.0286792  44.2182302  57.6531267   0.2762366  44.8611641  58.2933569
   0.2019018  43.3715439  58.0354786  69.9480486  41.1103392  40.4982090
  70.5919123  41.7653894  40.2288008  69.6246767  40.7403564  39.6767592
  77.8725147  42.2673178  14.3893492  77.8543043  42.1719599  13.4370852
  77.0815086  41.8199587  14.6900284  43.5199928  29.2399383  58.1406689
  44.4715643  29.3406677  58.1162453  43.3777714  28.2948065  58.0884314
  45.1096296  77.9345512   9.9006313  44.9189758  78.0602932   8.9710772
  44.9644709  78.7952709  10.2934706   1.7994463  33.0362344  19.7659874
   2.1247880  33.6215734  20.4499197   1.0636028  33.5085821  19.3765593
   5.6058091  43.7894583  42.2232962   6.2706077  43.3249760  42.7317572
   4.7742072  43.4264803  42.5281191  61.6401291  38.3644247  26.6931891
  62.3331642  37.8470850  27.1034241  60.9016371  38.2983375  27.2985744
  24.3602157  14.9348187  64.1244221  24.2554331  15.8510673  63.8680220
  25.2425051  14.7041190  63.8336039  28.5241842  51.8276644  20.5448413
  29.1527104  52.1594334  19.9036562  28.1459832  52.6139355  20.9385085
  83.6992836  38.3980083   1.9217700  82.8976154  38.7386322   2.3186906
  83.4657288  37.5173903   1.6281787   6.5556765  50.1076508  33.4637213
   6.8030155  49.2464542  33.1269717   5.7263565  50.3057671  33.0287385
  19.1638219  37.0201254  58.1385374  18.2260501  36.9864368  57.9496479
  19.5587969  37.3518491  57.3321962  80.9397697  71.6124868  19.7968590
  81.6033363  71.5306664  19.1118634  80.6045437  70.7234621  19.9130046
  79.6654606  57.8198576  36.1078453  79.8346138  57.2251081  35.3771687
  78.7285662  57.7268028  36.2804675  81.9732571  23.6877084  52.6461267
  82.7528286  23.1383181  52.7277517  81.7185497  23.8777328  53.5490370
  76.8124104  10.2971935   2.4127667  77.6389360  10.1108372   2.8581420
  76.4750481  11.0784602   2.8509903  17.4924970  11.3234794  10.5604398
  18.3216953  10.8827436  10.3749299  17.6870883  11.8981314  11.3008058
  47.5293827  59.5251036  42.0174217  47.4182749  59.0128756  42.8183699
  46.9525957  59.1026163  41.3809824  57.4322891  62.1102571  23.3481121
  57.2492981  61.3384819  23.8839412  57.5545549  62.8177929  23.9810967
  48.2106113  49.0462112  21.2230563  47.6786661  48.6358643  21.9048762
  47.5737429  49.4426537  20.6285262  45.6968880  61.3447857   7.6810020
  45.1819992  61.8620443   8.3003294  46.1473608  60.6986952   8.2249439
  65.7113171  52.0587063  11.8983662  65.7098007  51.3487387  11.2563539
  65.9897089  52.8289890  11.4029944   9.4432628  67.8931761  25.1059437
  10.3572488  67.6268530  25.2056170   8.9458191  67.2213793  25.5722785
  47.7297688  17.4742568   7.1745491  47.3731995  18.3613026   7.1272135
  48.0240631  17.2865403   6.2832677  83.7902260  51.1898518  48.9752054
  83.2981205  51.9824362  49.1893864  84.3094254  51.0110903  49.7592402
  23.3664083   4.3963650  31.3180780  23.8917756   5.1758844  31.4985466
  22.4913645   4.7355989  31.1297917   6.9876927  69.8500490  20.6531930
   7.2270507  70.0133228  21.5654874   7.5865293  70.3986692  20.1465893
   1.6388300  66.8475676  13.1760597   2.2297116  67.0089102  13.9116263
   0.8413145  66.5055275  13.5800505  57.3571873  38.7665319   8.4671921
  56.5797281  38.2170844   8.3677202  57.0318508  39.5709944   8.8712090
  48.1641150  61.1919737  14.9054122  48.9172697  60.7037973  15.2380872
  48.1769323  61.0376692  13.9608192  24.7099638  39.1101885   8.2645947
  25.1729679  39.6142459   7.5954282  25.3918052  38.8529301   8.8851923
  16.3835406  17.4067497   9.7751093  15.9781158  17.0759487   8.9735901
  16.2261796  16.7207527  10.4238605  82.8717613  56.7366600   7.9663044
  82.0624638  57.2299099   7.8322291  83.5022831  57.1451664   7.3731810
  38.1529927  76.2886381  17.2827971  38.0833030  76.1765051  18.2308483
  37.3934674  76.8218565  17.0482099  67.6125336  46.1553335  15.8161104
  67.4450874  46.8453455  16.4580441  66.7435122  45.9008646  15.5058181
  34.1207242  15.4496408  55.0215435  34.7729158  16.1383605  55.1501656
  34.4021225  14.7419930  55.6014442  12.8576005  56.1161757   7.4864143
  13.4883285  55.5691528   7.9545838  12.0047224  55.8366299   7.8191060
  83.6515617  76.8195105  46.5547848  83.6850548  76.0851049  45.9417915
  82.8732395  76.6525030  47.0863438   9.0589362  73.1194067   5.6183696
   8.3117014  72.5271749   5.7028103   9.7910929  72.6376009   6.0031301
  82.4231529  76.2916374  57.9259825  81.5725422  75.8726931  57.7949429
  82.5296974  76.3252020  58.8766432  77.3232746  39.2913294  32.3432446
  76.9870901  38.7029123  33.0192447  78.0693913  38.8236117  31.9680357
   4.4859779  78.3647871  34.9757743   4.7406250  77.7917767  34.2525554
   4.9019861  77.9776096  35.7460117  19.9023068  72.5740242  13.8077116
  20.1399755  73.4173918  13.4223783  20.5679154  71.9668674  13.4843564
  26.4805126  61.7502785   8.2498229  25.6934857  61.5554810   8.7586170
  26.6875434  60.9284782   7.8048342  16.3409114  78.6830235  32.9902124
  16.9767368  78.1917048  33.5103703  16.1422086  78.1091738  32.2503161
  61.3067532  38.1609035  65.3272295  61.9807673  38.7835455  65.5997229
  61.7803669  37.3407507  65.1884270  36.2463808  19.1594851  21.7450833
  36.1642027  18.7188816  20.8993030  37.1666956  19.4184589  21.7918181
   8.3232450  61.6946983  57.1658325   8.4680736  62.3009205  56.4393616
   7.4777240  61.2889528  56.9742680   2.1862230  75.2456903  23.4868217
   2.0499167  74.4584703  22.9596257   2.7330810  74.9537802  24.2161822
  21.4463019  13.5023165  10.6514561  20.9675002  13.5427940   9.8236024
  21.9972324  14.2850649  10.6480217  75.8539629  17.9560912  34.2258024
  76.6494942  18.0861330  33.7096119  75.8088732  17.0097089  34.3620372
  71.4948368  29.9503183  64.5587969  71.5717316  30.6424356  65.2155209
  70.9245634  30.3213263  63.8854647  47.7160120  73.0463266   0.2096639
  47.5620079  72.8775644   1.1391988  48.6677980  73.1128550   0.1327934
  51.8237209  39.9292231   4.4137627  51.2763977  39.5829844   3.7089306
  52.3237610  39.1734600   4.7219950  71.1995411   4.5107251  24.2803574
  70.6913185   4.0523803  24.9495840  71.8292809   5.0350201  24.7750974
  81.8066216  71.3716984  68.1806278  82.4012661  72.1202660  68.1329393
  82.3281860  70.6313658  67.8706121  23.9152479   9.8227113   7.1868122
  24.7585154   9.6547836   6.7661834  24.1267467  10.3867674   7.9306805
  66.7865467  61.0683775  62.3738623  67.5855637  61.3788033  61.9479036
  67.0606804  60.2902412  62.8592300  21.4953113  37.9410195   1.0683038
  20.6198978  38.3016729   0.9275461  21.8716669  38.4879732   1.7578186
  65.1216984  29.6111941  64.3018675  64.3057060  29.5862889  63.8021040
  64.8969603  29.2218828  65.1469469  74.2579699  26.6853929  37.4797225
  74.5315170  27.5743556  37.2535634  74.7930765  26.1209011  36.9218349
   4.7429362  57.7573919  12.7961934   5.4072481  58.0575180  12.1758342
   4.1467845  57.2248077  12.2697055  54.8507690  29.2492294  17.1857429
  55.1510096  28.9770198  18.0529177  55.6350517  29.2122793  16.6382301
  58.8969231  62.9268980   2.3736390  59.7040796  63.3910751   2.1516812
  58.2207823  63.6043835   2.3645335  66.6895056   8.5622215  33.4728789
  67.1383524   8.0871284  32.7735519  67.2355032   8.4219062  34.2464662
  73.8347006  34.1692519  65.8718634  74.2526436  34.4642639  65.0628328
  73.8845873  34.9253488  66.4567232  76.3981152  69.9117613  44.1893387
  76.8011522  69.1546869  43.7643385  75.9176254  70.3522778  43.4884024
  53.9342308   8.2749742  18.2227373  54.3776369   8.1606477  17.3821712
  54.3304253   7.6169813  18.7939727  70.8783436   6.4043546  22.2197628
  71.0690880   7.3198712  22.4239159  70.7856178   5.9827483  23.0740929
  80.8515549  56.5587378  38.4943151  80.8343124  57.1048450  37.7083755
  80.0651741  56.8107653  38.9783859  73.4758663  60.9980726  11.4679432
  73.9564610  60.6095505  12.1989083  74.1161156  61.0442400  10.7578874
  78.6596155  19.1651881  32.8120828  78.3570385  20.0148439  32.4915195
  78.9547491  18.7041998  32.0268345  72.8311682  29.8024082  11.6828823
  73.6022568  29.9264860  11.1294770  72.5736427  28.8925481  11.5343344
  31.4568114   2.0065084  45.2562332  31.4633584   1.5320064  44.4249487
  31.6479421   2.9131484  45.0160170  17.2379172  13.2085371  27.9495549
  16.8049300  13.2689679  28.8010836  17.8064871  12.4420881  28.0238223
  76.6312742  27.6975203  41.5308428  76.6337299  28.6534286  41.5804768
  76.8990517  27.5036383  40.6325483  36.3865852  19.9231339   3.1144670
  37.0359802  19.4300854   2.6130486  36.0232234  20.5478382   2.4868175
  42.3185444  28.3102369  18.0637074  42.8747940  28.8530874  17.5050199
  42.3366880  28.7461591  18.9156902  46.9093418  18.6129463  26.0882950
  47.1962690  18.7618828  25.1873374  45.9549332  18.5673511  26.0312748
  61.9793653  45.7746696  15.9875202  61.4810610  46.5877438  15.9048653
  62.6384687  45.8262730  15.2953076  30.1484561  68.0785322  58.1829500
  30.0326300  68.9485979  57.8011084  29.3168664  67.8963900  58.6205769
  55.3918362  22.8579450  13.5165012  54.5615292  23.2681918  13.2745957
  56.0024261  23.5893083  13.6087728  79.9389839  29.4082451  52.8745890
  80.4985809  28.9586401  53.5077858  79.1582870  29.6489549  53.3733845
  52.3155451  14.3476474  26.0389686  52.0028543  14.1913950  25.1478767
  52.1391058  13.5285628  26.5017891  46.4719915   8.3526617  62.4400043
  46.3644171   7.4325621  62.6809931  47.3515034   8.5783422  62.7429247
  15.4173434  72.5681496   5.0829709  15.1290691  72.1380806   5.8880621
  16.2126994  73.0378962   5.3339279  74.6823311  19.7785914  15.9335983
  73.8872099  19.8031867  16.4659619  75.1813745  19.0400124  16.2824321
  71.7182112  29.1285396   0.1573488  72.5769424  29.5023656  -0.0403130
  71.6299772  29.2196012   1.1061133  42.6698446  69.6515369  63.3986378
  41.9809914  70.1127672  62.9201221  42.9239273  70.2567530  64.0953350
  36.5307975  24.3129158   4.6693078  36.8799949  23.7526941   5.3624487
  35.5824757  24.1928196   4.7192419  44.3864870  26.3468790  42.4583817
  44.3893957  27.1749735  41.9782925  45.1794720  25.8976340  42.1658373
  74.7288179  66.6667414  64.5993567  74.8968792  67.4328279  64.0506315
  74.0801144  66.9660759  65.2363968  73.9405870  54.8406506  55.7194042
  74.4991446  54.4330025  55.0575352  74.1893625  55.7648659  55.7065058
  51.5567684  31.6248465   4.3130079  51.7101288  32.0137835   3.4519383
  50.7428885  31.1313820   4.2114109  61.9700861  38.9675617  68.3210802
  62.5753641  39.0247631  69.0604019  61.1549616  39.3474555  68.6489248
  22.0363069  30.8733130  12.4247992  22.2613096  30.5463409  13.2958317
  21.4265490  30.2235413  12.0751917  40.7604742  17.9355860  47.2956848
  40.7815361  17.4925888  48.1439447  39.8290539  18.0604613  47.1137571
   8.9282513  70.7202435  68.1076956   8.4470761  70.7008410  68.9349365
   9.7707134  70.3138733  68.3110571  48.2695007  59.1861296  18.7338006
  48.3861113  59.4130421  19.6563756  47.4017906  59.5238733  18.5119069
  70.1882601  16.3376808  22.6188469  70.9771204  16.6244245  22.1587276
  69.4665289  16.6328728  22.0636868  12.2397673  77.0595026  54.2825937
  13.0024302  76.8687439  53.7365294  11.8413973  76.2043810  54.4447708
  15.0970316  62.4910450  57.1807337  15.1118517  63.1884336  57.8362226
  15.0297987  62.9504824  56.3436985  47.4576664  14.1057658  54.9969006
  48.0227757  13.3338225  55.0283098  47.7960205  14.6206498  54.2643452
  76.0686016  46.8065405  19.3603301  75.7630014  46.1392450  18.7458730
  75.7201099  47.6282120  19.0144324  23.9477730  48.9194632  21.8163562
  24.6441531  49.0015554  21.1647844  24.1763306  49.5569611  22.4928093
  77.6499367  38.6891150  26.2486625  76.8398285  38.2019043  26.3989329
  77.3672056  39.5976496  26.1444592  11.7417645  77.6688766  37.5614071
  12.3622596  77.0051479  37.2602725  11.4743018  78.1259966  36.7640758
   7.8381813  14.1361356  67.2183084   8.4730268  13.4247124  67.1341562
   7.4330860  13.9956701  68.0741119   5.3749567   8.9570194  30.3788638
   6.2052596   9.3450534  30.1027131   5.6141102   8.3574742  31.0856748
  14.7983181  60.0282145  58.3131886  15.5683625  59.6135426  57.9242039
  14.9250805  60.9638834  58.1560564  78.8576031  43.2732344  68.6612844
  79.2172194  43.3661270  67.7790833  79.2846346  43.9639950  69.1679668
  29.5434833  64.4973183  68.7057018  30.3135252  65.0622177  68.7701559
  28.8597465  65.0642252  68.3488369  41.9761562  62.5508976  64.2486477
  42.2843885  62.8104591  65.1168966  41.2408924  61.9628763  64.4214106
  24.1623974  23.4827876  48.6886501  23.2698536  23.1941128  48.8790751
  24.1122246  23.8499069  47.8060770  66.5588570  13.7701738  29.9657631
  65.9170771  14.3425417  29.5453525  67.3125505  13.7813866  29.3758035
  49.6374611   6.6381761  -0.1205098  49.6786646   7.5617620   0.1275218
  50.1628641   6.1887381   0.5414451  72.8395891  29.9647856   3.8923037
  72.3449183  30.5645561   4.4506988  72.9834270  29.1922784   4.4389054
  70.0054932  28.1589556  19.9407184  69.9936008  28.3230448  18.9977634
  69.0868711  28.0204654  20.1713371   7.5700003  59.4243622   0.2516119
   7.3364788  59.3184185   1.1738241   8.4320849  59.8399782   0.2690560
  48.5488844  78.9899063  12.9033709  48.6081219  79.6900225  12.2533250
  49.2173481  79.2086983  13.5526180  68.7189770  59.3781376  31.4481640
  68.8710546  60.1040077  32.0533228  68.7827206  58.5941648  31.9936562
  49.0536022  33.8875127  25.0629520  49.5942879  34.5234609  25.5314183
  49.6144009  33.1171322  24.9721169  68.2755041  62.7013922  15.3646660
  67.3201466  62.7563286  15.3872478  68.5676384  63.3419609  16.0131741
  45.5679941  77.2431087  19.2729676  44.9946785  77.4453306  20.0123239
  46.2339973  76.6608667  19.6385682  71.0646248   7.0425433   6.9587010
  70.6041527   6.4346111   7.5371617  71.9113302   6.6258425   6.7984438
  58.3201361  72.9765987  42.3243427  58.7488651  73.0845928  43.1733179
  59.0087175  73.1551123  41.6838598  47.7551365  34.1404033   2.3339334
  47.1379185  33.4123540   2.2617093  47.2419596  34.8524737   2.7158174
  14.6403635  64.6501493  55.6205654  15.0351489  65.3533268  55.1048946
  13.7430680  64.9436808  55.7784653  52.9846334  12.5694692  12.8486025
  52.1141005  12.8958285  13.0764031  52.8339481  11.6718245  12.5523627
  16.2537992  22.3165321  22.1068406  16.6645634  21.4716697  21.9232273
  16.0479927  22.6754236  21.2436652  72.8269863  54.0797329   7.2529536
  72.8216171  54.3052959   6.3227254  72.5456810  54.8806524   7.6952434
  58.4988022  78.6238813  44.4869232  57.6432657  79.0043736  44.2881489
  58.3599997  77.6786137  44.4282913  69.8889875  37.6751566  36.1587334
  69.9318600  37.6497364  35.2028322  69.9357891  36.7569542  36.4250875
  18.8732839  53.6866617  55.7395267  19.5286715  54.3678904  55.8899593
  18.4876657  53.9082813  54.8919344  36.5156794  35.6992078   1.1197785
  36.0137796  36.1694765   1.7854917  36.6753268  36.3498664   0.4361214
  25.5691481  70.2377224  67.1323395  24.6295738  70.2757931  67.3111773
  25.6493640  69.6235085  66.4025831  36.7804909  63.3889484  68.7623501
  35.8434319  63.2264757  68.6539221  36.8334150  64.2981052  69.0570784
  66.1542320  73.4404182  64.0759945  65.9812975  72.7143908  63.4766483
  66.6657686  74.0619326  63.5580349  83.2050037  66.8846750  51.5759325
  82.2565842  66.8278551  51.4597034  83.5675335  66.5162516  50.7702875
  63.1385946  49.0793562  65.3640270  63.3670664  49.9836636  65.1489353
  63.8006449  48.8100100  66.0007143  38.8483143  27.4551845   1.6302598
  38.9079285  27.8796148   2.4861437  39.6938610  27.0205498   1.5190354
  69.8394632  32.3499131   9.6726751  70.0762033  32.5663209   8.7708127
  69.3995857  31.5022373   9.6080118  72.5010777  74.1560793  28.0957365
  72.6785135  74.1552401  27.1551275  73.3595133  74.0349770  28.5015154
  15.2262878  26.6920877  19.3092680  15.7018220  27.3944426  19.7528863
  14.8695028  27.1042061  18.5224426  21.2561750  73.2438517  43.5372019
  22.2102666  73.1674290  43.5271597  20.9598374  72.4792528  44.0309668
  34.5589232  62.8748941  66.9210577  33.6692619  62.6138973  66.6831255
  35.0128126  62.0497847  67.0925522  39.3395972   8.9198416   8.3008921
  38.6412597   9.5457089   8.4928489  39.0658212   8.1138068   8.7385958
  63.3950996  30.7891536   4.6373707  63.7643385  30.0023532   5.0384188
  63.4104538  30.6086564   3.6974686   9.1960108   9.5783412  68.4264326
   9.7041291   8.9826190  67.8758287   9.5184666  10.4499841  68.1973171
  24.3325663  73.2030392   7.2636372  23.9634681  73.7389612   6.5616488
  25.2718949  73.3849239   7.2351968  26.8057704  33.0264378  12.1260548
  26.7069864  33.8398695  11.6312814  26.4993095  32.3440909  11.5287971
  39.7718906   8.2366860  42.4182320  40.2572346   8.6775273  41.7208576
  40.4053545   8.1451273  43.1299686  18.9203596  69.9868536  47.8053808
  19.3260360  70.7388401  48.2368660  18.0481529  70.2942371  47.5583887
  60.1618052  76.4406586  22.8870535  60.8057642  75.7391214  22.7901220
  59.5258188  76.2799835  22.1899605  50.9161663  27.3081565   6.2103194
  49.9779272  27.3118377   6.0207820  51.3071156  27.8089762   5.4943788
  71.4611816  53.6696148  48.3020639  71.6831350  54.4271517  48.8434553
  71.0610819  54.0448332  47.5176096  83.0399799  56.6754818  18.1345928
  82.8137398  55.7480001  18.0651593  82.5813389  57.0892859  17.4034023
  64.8044538  11.3736784  43.8683796  64.1448164  11.1833179  44.5353603
  64.4118595  11.0703182  43.0497980  16.7685258  32.1015048  55.8592367
  16.2064242  31.6773963  55.2108479  16.5859246  31.6361332  56.6755199
  56.6926241  14.7850645  31.7320251  57.4469805  14.3568122  31.3273311
  56.2330246  14.0799868  32.1879482   1.0216669  20.7154870  66.2374783
   1.0420442  19.7733307  66.4052773   1.7479938  21.0663199  66.7528391
  67.8983116  42.5106430  30.4401207  68.4578657  41.9094849  29.9484491
  67.9642391  42.2116327  31.3470268  65.5817556  57.9360485  65.7764101
  65.7193756  57.6721096  66.6861534  65.3391552  58.8604832  65.8293056
   9.1172963   9.3784684   7.9566944   9.1069275   9.8645061   8.7812501
   9.8581994   9.7434175   7.4728489  28.9214444  59.4302940  67.8542280
  28.9459229  60.3863811  67.8934193  29.4558096  59.2080784  67.0917988
  54.5745802  20.9006500   5.2146083  53.6383629  20.8189940   5.0327772
  54.6164227  21.3559699   6.0555387  65.7768965  71.2666798  58.5711336
  66.0152769  72.1710014  58.7751150  65.2296829  71.3339043  57.7886581
  12.8252733  59.9259329  31.4295650  13.1091332  60.6351423  30.8527827
  12.2823858  59.3674421  30.8731556  69.2645884  44.6264935  29.5613241
  70.0236988  44.2542076  30.0100875  68.5334396  44.0668631  29.8229814
  44.1343880  76.3194704  11.8680573  44.8892879  76.6737843  11.3981473
  44.3177557  76.5035582  12.7893174  12.3013413  65.3916740  56.7098427
  12.2655272  64.4472599  56.8616152  11.3846540  65.6576061  56.6377640
  69.2038059  61.5633440  68.4257221  69.5395994  61.7994642  67.5610113
  69.8700857  61.8795156  69.0359163  62.2656965  15.8993590   6.4429295
  61.5372229  15.4254270   6.8441147  63.0324316  15.6348610   6.9512475
  11.1999512  11.6585851  30.2675152  12.1127212  11.9168007  30.1394224
  11.0954618  11.6115034  31.2178278  35.1124644  69.1813421  11.4870429
  35.4173040  68.2939577  11.2976885  34.6030903  69.4293451  10.7155085
  52.7897835  24.5828819   6.4520204  52.2629499  24.7081399   7.2413188
  52.2260809  24.0786338   5.8653289  48.7438440  20.4721522  22.1527910
  48.3528900  21.3419867  22.2351050  49.6590090  20.5960941  22.4044847
  76.3290453  52.6921177  28.4906459  75.8353472  52.1339083  29.0913892
  76.9101810  52.0894670  28.0266166  62.0574188  33.8059282  66.7947865
  62.3503017  33.0896568  67.3581791  61.1693478  33.5595202  66.5362549
  73.8962793  19.2885041   8.1030089  74.6765566  19.6950352   8.4800178
  73.9112282  18.3900332   8.4327936  55.5126190   3.1216776  33.2425594
  55.2564621   3.8808480  33.7662745  56.4161587   3.3030498  32.9838181
  39.2013860  69.3629169  17.9022670  39.4947481  69.2418814  18.8053286
  39.1694903  68.4774590  17.5400841  49.5118284  22.2106194  26.0581970
  49.5565891  21.3256121  26.4201236  50.4261351  22.4799252  25.9701943
  67.6792955   3.8399181  29.7014332  67.3368835   4.1757008  30.5298257
  68.6085749   3.6856237  29.8713350  16.9664586  46.3929987   7.6317573
  16.8377733  45.5276155   8.0200684  16.8494451  47.0023680   8.3605987
  81.2954617   4.1260943   3.9803255  81.8526649   3.6905411   4.6253508
  80.9347248   3.4122384   3.4544834  39.1491628  62.8695250  66.8864870
  38.6126137  63.3038759  66.2234020  38.5363388  62.6612329  67.5916767
  56.9897652  69.5919800  59.0759468  57.4917603  69.7595119  58.2783461
  57.6329517  69.2484188  59.6960354  60.2654123  32.2332311  24.7201848
  61.0130787  32.5849724  24.2369556  59.5994854  32.9184341  24.6630359
  64.2445612  26.4512873  23.3239269  64.3970442  27.3873043  23.1941152
  64.1165972  26.3581204  24.2679477  42.0326662  57.6589680  20.9835100
  41.8000221  56.7389107  20.8586001  41.1982155  58.1255531  20.9363389
  35.6446385  61.3186836   2.7249888  36.2676573  62.0428991   2.7848986
  36.1799097  60.5326366   2.8338501   7.7926618  25.3978419  49.7821093
   7.0017904  25.8669519  50.0479889   7.5889003  24.4760323  49.9401569
  49.0465784  30.8344364   3.4464690  49.5534039  30.2058148   2.9324713
  48.4200716  31.2031794   2.8237692  44.9592924   8.5454834   9.4200832
  45.5699444   9.1649336   9.0205556  45.3435898   8.3473426  10.2740681
  55.9669209  59.0070581  33.0767560  55.8008814  59.3680382  33.9475942
  55.1272011  59.0800428  32.6231313  59.6070957  43.0067110  63.8668776
  59.0150547  42.7363491  64.5687437  60.4441690  42.5992203  64.0893555
  28.6298871  65.2732468  62.1377993  29.4401479  64.9546671  62.5355673
  27.9397321  64.7560930  62.5530910   2.7472797  55.6061935  62.9491568
   3.5574317  55.7782650  62.4692869   2.4004932  56.4747906  63.1528997
  29.9200225  42.0983982  13.4036207  29.2921233  42.6367903  13.8853991
  29.9373484  41.2676191  13.8787401  83.6098003  40.2902126  21.4740562
  83.2938576  39.4533372  21.1333919  83.0343342  40.9434175  21.0760641
  70.5417395  51.8790340  58.2615995  70.2762699  51.5436029  57.4053001
  71.2482834  52.4953747  58.0688572  73.6453342  24.1009879  21.0730457
  73.1180429  24.7566080  20.6165838  73.8613129  23.4560633  20.3995037
   2.1540608  44.3486357  50.0210381   2.8947821  44.7490406  50.4762697
   1.3852137  44.6435976  50.5089903  55.8490276  17.3830914  12.9513764
  56.7812777  17.1807384  12.8726876  55.4135084  16.5327978  12.8917432
  54.8428965  48.5490370   2.8403288  54.1930199  47.8535128   2.9410103
  54.4410658  49.1655016   2.2281700  78.1441450  66.7787743   6.7906243
  78.0731392  66.7994261   5.8362854  78.5923910  67.5941849   7.0151490
  16.1092055  64.7807026  29.4773507  15.3382003  64.6173525  30.0205827
  16.0834813  65.7212830  29.3016410  82.7976036  49.7374392  51.8193102
  82.1175385  50.2420139  51.3730478  82.4501228  49.5931673  52.6994658
  52.6880074  32.0430899   1.9313650  52.8558111  31.1726332   1.5702868
  52.1683931  32.4848866   1.2597643  63.5198545   7.3053229  12.3956573
  64.1807699   7.9356092  12.6822889  62.8427315   7.3444468  13.0710900
  73.1851292  43.5899305  22.6093459  73.5324812  43.3786201  23.4759068
  72.9301357  42.7441502  22.2407460  62.5934839  49.9954796  11.7130375
  61.9895935  49.2633295  11.5885067  63.4197140  49.5840025  11.9665337
  64.2614460  65.4036331   7.9773885  64.5936346  65.6630993   8.8367832
  63.5616732  66.0298824   7.7920288  61.4942217  38.1172228  15.3847325
  61.3270283  39.0521812  15.5036163  61.1962461  37.7149868  16.2006068
  16.2405264  42.7190065  29.1548443  16.0614944  43.3716345  28.4778953
  17.1947157  42.7072144  29.2297864  37.6590872  64.4197464  46.7028856
  38.4036231  63.8341475  46.8406296  36.9360900  64.0021181  47.1709633
  18.6600912  30.0984240  15.7857847  19.3769419  30.6608152  16.0791647
  18.3192492  30.5330443  15.0040150  78.0352354  73.9411592  52.2949743
  77.3835039  73.6776161  51.6453409  78.7043715  73.2579422  52.2537565
  43.7011814   5.5241740  64.7422123  44.1993618   5.4116476  65.5517721
  43.3581877   6.4163047  64.7940969  80.7945347  33.1487465  25.9418225
  80.8648205  32.6253247  25.1434994  81.1607742  34.0002441  25.7029557
  57.4277210  30.2070999   5.3903687  58.1369495  30.8182049   5.1909202
  56.8733311  30.2207112   4.6101755  72.1120977  56.8187475  19.2809331
  72.7401924  56.5782881  18.5998261  71.9993114  57.7638912  19.1798484
  71.1868858  19.5618880  56.7804670  71.9509125  20.1361108  56.7278910
  70.4374361  20.1543355  56.7207527  44.9678612  21.7486429  32.2542381
  45.3774214  22.4881697  32.7032304  45.6121874  21.4792228  31.5996480
   2.8947198  78.9126301  18.4212494   3.3043543  78.4792471  17.6725101
   2.9187062  79.8439550  18.2014990  77.3833752   6.2072659  15.6215668
  77.4968147   6.4107102  16.5499926  77.2132826   7.0544523  15.2097714
  62.7158928  23.9393663  38.6320090  63.3472824  24.1016579  37.9311228
  63.2544231  23.7524271  39.4009519  53.2792902  24.0193033  10.3726768
  52.7871227  23.2292843  10.1493573  52.7809381  24.7326756   9.9739563
  17.3370767  59.1749954  44.2391682  16.7290890  58.4364462  44.2056179
  18.0915022  58.8877249  43.7248230  12.8470445  11.7342687  18.6495674
  13.0832052  12.1980500  19.4529152  13.3031654  10.8952391  18.7144792
  64.5987940  33.8308620   7.0910782  64.5614767  34.2734528   7.9389888
  63.8907003  34.2266393   6.5829444  50.7586956  52.5700235  40.1319695
  50.7075357  53.4321213  40.5447721  51.3667011  52.0765686  40.6824827
  49.9397707  46.2481499   0.9201556  49.9877310  45.4218483   1.4009432
  50.4140520  46.8725681   1.4691468  15.8740079  12.1009350   8.5537678
  16.2500370  11.9281554   9.4168907  15.0223720  11.6643298   8.5717756
  28.6860085  58.9439392  61.6613674  28.7604380  57.9942417  61.7549896
  28.0707455  59.0658426  60.9383011  25.5532050   6.2992167  65.8384848
  26.3906741   6.5846610  65.4732418  25.5234170   6.6968799  66.7086601
  61.4969206  19.6514440  26.4193845  60.7766724  19.2718399  26.9227433
  61.9913530  18.8959289  26.1016321  69.4904709  42.0296955  17.9741418
  69.0613747  42.5818634  17.3205245  70.3581715  41.8565416  17.6089787
  73.0570078  35.8574748   5.0011188  73.3172512  36.7651296   4.8440644
  72.3800135  35.6857419   4.3465805  34.2951798   5.9304452  57.2037601
  34.8283672   5.3720063  56.6379929  33.3965373   5.7802999  56.9102812
  15.6808662  46.2420464  64.3965006  16.5746701  46.4951181  64.1656303
  15.7535028  45.8882618  65.2829504  17.3181784  62.5804138  24.6704602
  16.5683830  62.2210217  25.1446700  17.0423865  62.5842762  23.7538600
  48.8001966  63.5808563   9.0459794  48.4192276  63.3771992   8.1918013
  49.4037819  64.3033314   8.8729215   6.5418243   9.3595648  15.2206206
   7.2825700   9.3847436  14.6149027   6.3720512  10.2780986  15.4296780
  79.1598320  65.0834036  59.8840809  79.8115349  64.8235559  59.2329359
  79.1467714  66.0395670  59.8415327  73.2050800  14.6828294  11.0320783
  72.6890373  14.5390272  10.2388239  72.5562859  14.8822105  11.7070162
  26.7476821  71.2023973  64.1114521  26.9001651  71.4296627  63.1942081
  26.2636852  70.3773165  64.0765047  16.9212627   2.3745476  11.2729883
  16.9040704   3.2956442  11.0131466  16.8762600   1.8919578  10.4475713
  71.2130117  40.3470182  10.1011145  70.5713987  39.8405242  10.5991423
  71.6493750  40.8913279  10.7565105   9.4978368  45.8126211  50.0615549
   9.7995818  45.8895922  50.9666824   9.4908446  46.7120409  49.7341061
  15.2265275  61.0331774  12.2893834  14.4460571  60.6977272  12.7304840
  15.1152956  60.7729959  11.3749623  32.1903038  72.1604633  40.2366686
  31.7890024  72.4015856  39.4017744  32.5593519  71.2907887  40.0827122
  83.0755901  45.8240700  66.8618536  83.1128693  45.0274849  67.3912859
  82.2978306  46.2847185  67.1766758  20.8316374   3.1808302  65.6773186
  21.5325737   2.9727441  66.2950706  20.2348232   3.7420192  66.1724091
  83.6755657  62.8181934  51.4679575  83.1064701  63.3720779  50.9335661
  84.4686508  62.7122545  50.9425783  56.2011337  11.7954743  57.4153805
  56.0726881  10.9899163  57.9161882  57.1287107  11.7854083  57.1793127
  29.4095969  23.5464883  64.1151524  30.1239872  23.8598251  63.5604477
  29.3443179  24.1986418  64.8127651  54.4392252  28.3254242  61.3538265
  55.0117064  28.3461857  60.5869770  53.6004400  28.6592484  61.0356474
  72.2924852  41.2623882  12.4664652  73.0757332  41.7194414  12.7728355
  72.4834061  40.3358364  12.6123250   5.0062644  76.0523272   8.7824100
   5.9181362  76.1455107   8.5066587   4.9367487  75.1442719   9.0770870
  63.8995934  23.8336706  10.7506800  64.1067171  24.5516348  11.3488925
  63.3491373  23.2439041  11.2658525  78.3884048  59.5669889  45.2908516
  79.2924500  59.2617226  45.2150631  78.0992985  59.2494345  46.1463118
  12.1468413  27.2730422   6.7195022  12.5002050  27.6159573   5.8986646
  12.8506362  26.7303920   7.0750815  72.7307129  49.2814636  21.4083195
  73.5894489  49.3545103  20.9918189  72.1362877  49.0541553  20.6933212
  67.7422237  45.0112677  66.0514736  67.0311069  44.4038868  66.2554932
  67.5126028  45.8145094  66.5187073  18.5521996  71.5257263  44.5652199
  18.1712437  70.6815243  44.8069334  17.9748666  72.1735239  44.9693012
   7.8332007  57.7061939  40.9825420   7.3600382  57.6825857  41.8142796
   7.2179359  57.3412704  40.3465319  18.3350253  78.4927845  53.4204388
  17.9487395  78.0580521  52.6601601  17.6459825  79.0761089  53.7385321
  80.6910419  75.2194071  51.7825937  80.7442856  74.3459654  51.3946676
  79.7934771  75.5037785  51.6101122  73.6260796  49.1908503  64.0877438
  73.5900116  48.8723135  63.1858206  72.9811001  48.6600637  64.5551872
  60.7677317  23.0622458  17.8092384  60.9598255  22.2022700  18.1831002
  59.8170996  23.1478524  17.8813648  57.1205616  27.1956992   5.6648517
  56.2650633  26.8301463   5.8900768  57.0544195  28.1215930   5.8984721
  80.1263046  54.7194195  57.4438286  80.2396965  53.8362646  57.0925236
  80.4300022  55.2966738  56.7432737  35.0623536  14.0612233  58.9570427
  35.3134012  13.8216364  58.0649662  34.9249482  13.2240009  59.4002295
  67.0917273  17.8985476  15.6546986  67.1049261  18.0482137  16.6000330
  66.6929674  18.6897635  15.2924824  69.1587639  20.6554008   3.5944277
  69.6425200  20.0075984   3.0820173  68.9395666  21.3429976   2.9656249
  49.8939371  31.1952996   7.0539749  50.4410362  30.5117726   7.4408883
  50.5023098  31.9088697   6.8617934  16.6700363  54.2905045  16.6042924
  17.3753619  53.7794828  17.0012915  16.9526410  54.4266319  15.6999493
  28.8317490   0.5900661  67.5878334  29.3884325   0.9374018  66.8909168
  29.2636108   0.8624126  68.3974934  71.6435909  14.9330282  34.3626451
  72.5419664  14.9301958  34.0322661  71.3477230  15.8356297  34.2443037
  63.0154181   8.2323670  23.1862664  63.9049578   8.3639765  22.8581977
  62.5169659   7.9488987  22.4198318  67.2175550  47.7384281  10.7327640
  67.9340982  47.5705814  10.1206946  66.7412901  46.9093132  10.7771397
  70.0482559  19.7361326  66.7143488  70.3799105  20.5905247  66.9904804
  69.7126627  19.3384194  67.5177336  55.2319336   3.7948427  30.2416301
  55.0978184   2.8982762  29.9343634  55.0473547   3.7565416  31.1800838
   4.6493667  13.6776817  10.6650853   4.7660357  13.0185020  11.3492656
   4.5406076  13.1709528   9.8603308  32.0675635  64.7937298  13.8229144
  31.2150669  65.1745510  14.0337539  32.0946121  64.7819614  12.8661680
  78.0100775  19.9552989  28.8406372  77.6367569  20.7403040  29.2414236
  78.0248070  19.3095767  29.5470762  38.5667729   1.2915447  67.1685743
  38.7748003   0.4499750  66.7627192  39.1165376   1.3222665  67.9515457
  16.2225354  43.0096722  16.3451123  16.7427397  43.1264353  17.1400881
  16.8466115  43.1341028  15.6300759  63.1381607  69.4981623  63.2401371
  62.5142956  70.2069521  63.3971024  62.6044798  68.7805176  62.8989649
  65.2231359  47.3066473  23.7499118  64.4281578  47.0293617  24.2052698
  65.6273031  46.4905787  23.4551072  53.2138300  22.3868370   2.4207367
  52.4552155  22.6935244   2.9174024  53.3420467  23.0518651   1.7443267
  53.7570333  53.0690241  14.8959267  53.3137417  52.2207642  14.8823726
  54.0111971  53.2210159  13.9856899  41.2870312  59.6846104  51.4172077
  40.9701586  58.7922335  51.2775993  41.8655777  59.6172476  52.1767998
  36.3887525  63.9017010  10.0734103  36.2677646  63.9597940   9.1256660
  37.1625972  64.4369125  10.2493286  61.4147663  10.0643325  26.0054898
  61.0142803  10.8411050  26.3959622  62.3566341  10.2220857  26.0705495
  59.7436190  16.4894557  17.8260195  59.9658203  16.9213629  17.0012069
  60.5682468  16.4609671  18.3112061   7.1391362  23.4453845  44.0996981
   7.3754907  23.5634136  43.1796741   6.4201963  24.0608358  44.2431450
   1.4194977  66.1457729  66.6826534   1.7986912  65.4049397  66.2097836
   0.6263814  66.3622093  66.1923933  78.4476185  66.7394590  67.9049826
  77.5296307  66.9616890  67.7496052  78.4147882  65.9523487  68.4486818
  75.6481123  17.3188317  16.4743721  75.3254223  17.3997200  17.3719025
  75.9594965  16.4158273  16.4122701  47.4713516   6.6501296  65.2749491
  47.9448271   6.2516975  64.5446682  48.1308079   7.1726716  65.7313490
   0.4336111   1.0120963  50.1339054  -0.3066142   1.6150728  50.2025938
   0.8169180   1.2000281  49.2771769  75.6419849  23.1685710   9.5111930
  75.5342817  22.7425027  10.3615451  76.5789127  23.1019878   9.3268943
   8.2066250   7.1076560  16.5844572   8.1001431   7.6933241  15.8348668
   7.6196915   6.3742077  16.4006245  83.2361412   6.7234427   8.8039201
  83.8325882   6.1912799   9.3305027  83.6688232   6.7975098   7.9533130
  49.5930195  56.3577175   3.9610156  49.9934292  55.4976940   3.8334942
  50.2980375  56.9793653   3.7800723  27.0956087  57.3757935  29.5536304
  27.2707677  57.6006317  28.6398482  27.8747272  56.8967628  29.8360014
  51.3724375  50.5224228  59.4747877  50.4338694  50.3365803  59.5026827
  51.7632437  49.8695230  60.0554991  58.4648705  23.8385129  18.7466931
  57.8333521  23.3191514  19.2443717  58.3791542  24.7236133  19.1009271
  24.6769810  10.6898582  62.7265167  23.9791369  11.3316166  62.8583860
  25.2863598  11.1187100  62.1257067   8.0570203  56.1758327  19.8929226
   8.3313996  56.6131163  19.0868640   7.1467787  55.9269381  19.7324765
  62.3102856  21.5777016  24.6136212  61.8728924  22.4213338  24.7285223
  61.8386126  20.9821010  25.1958728  23.7883949  24.4146848  46.1731100
  23.8838172  25.3663540  46.2112093  24.4908309  24.1266870  45.5901241
  44.9199009  50.8281851   5.5873066  44.4003201  50.7882214   6.3902193
  44.9640465  49.9209881   5.2851808  45.6425428  21.2826490  17.5537670
  44.9369526  21.2202954  18.1975722  45.2088642  21.1551857  16.7100203
   6.1234564  52.7364159   4.9502948   5.6228739  51.9922543   4.6158281
   7.0359808  52.4509478   4.9051616  53.2431507  69.6927595  10.1823509
  53.6384583  68.8604498  10.4416251  52.5324297  69.8260212  10.8095264
  61.8477440  45.9205103  13.0281162  61.2867308  46.6959667  13.0408752
  62.4838686  46.0964823  12.3348558  47.7458286   9.7427899  12.2702932
  47.0623112   9.0736872  12.3068464  47.5753736  10.2150381  11.4553356
  54.8657036  25.2677464  20.9525847  54.8867226  26.0956049  21.4326286
  55.6375599  24.7926879  21.2604690  16.9594216   2.6949120  30.1111293
  17.4655068   1.9826448  29.7202516  16.4584982   3.0608967  29.3821836
  30.5634165  27.3232007  43.6798811  30.2537203  27.7591658  44.4737673
  30.8537579  26.4611149  43.9777803  67.7093935  29.9807000  13.2190478
  67.7482557  30.9366751  13.2478762  66.8969202  29.7601748  13.6745560
  42.9426384  29.3805981   8.3451730  43.0076551  28.9828539   9.2133921
  43.3471775  30.2422810   8.4455681   8.4111547  19.2007184  63.4327888
   7.9840046  19.1359520  64.2869425   7.8069699  19.7193646  62.9015636
  25.6147957  76.9011259  68.4729433  25.6532955  76.4970016  67.6060915
  26.4445496  76.6618252  68.8858318  34.5023227  14.2944193   8.3589566
  33.8056922  14.2924798   7.7025002  35.1191044  14.9588048   8.0517060
  77.6206160  12.2477746  28.6103940  76.7799473  11.8578625  28.8501501
  78.0695677  11.5629804  28.1146836  82.8460312  65.6315947   5.8781433
  83.3948612  66.0731268   5.2300209  81.9529915  65.7446098   5.5526406
  14.5809567   2.2456899  68.5535097  14.2921662   2.6925650  67.7578163
  14.5313239   2.9152954  69.2357111  31.9329381  46.6471100   1.9298701
  32.3757577  47.2626972   2.5139910  32.4906421  46.6108799   1.1527706
   2.8172514  15.7765162  20.7488298   2.8677267  16.2875307  19.9410260
   1.9423822  15.9574962  21.0924602  84.2843151  75.6752491  56.1739016
  83.6253643  76.0347605  56.7678404  83.7861252  75.3895664  55.4081154
  58.9489555   0.8398033  43.4745455  58.9174461  -0.0778203  43.2039833
  58.7071371   1.3296974  42.6885700  71.4083576  14.8731649  46.3133907
  71.9827032  15.6387663  46.3280869  70.5423021  15.2272940  46.1114740
  78.6612225  16.5226066  18.0513668  78.7580347  17.1424735  17.3284388
  78.7115335  17.0638061  18.8392782  76.9877386  40.3945208  43.5486555
  76.2715292  39.7773790  43.6983538  77.1058559  40.3985262  42.5987768
  34.9653864  66.7359495   3.7178835  35.4768038  66.7939568   4.5249262
  34.6856403  67.6351643   3.5464513  66.7369461  48.1899214   5.0188261
  67.2784853  48.9575100   4.8350409  66.3970280  47.9263163   4.1637227
  40.4539061  65.1438713  53.6000729  41.1951065  65.5288744  54.0676498
  40.6981039  64.2264175  53.4780884  76.0105705  78.5391760  37.2281671
  75.8344507  77.6316452  36.9799638  75.3621054  78.7324762  37.9051948
  49.9241304   3.2541952  60.7414865  49.3512344   2.9444668  61.4429808
  49.4386053   3.9720809  60.3351164   2.2397876  77.5983524  67.6047611
   1.6013032  76.8854332  67.5870180   2.2531995  77.9302645  66.7070484
  10.4470682  43.2855988  47.1954107   9.8847455  43.8537264  46.6688585
  10.8525050  42.6949787  46.5605736  61.9978476  68.4890842  23.3153367
  61.4722443  68.3969259  22.5206780  61.6530180  69.2740917  23.7408781
  23.3648849  15.0396311  58.2828474  23.7988019  15.2483892  57.4555826
  22.6729822  15.6962276  58.3627510  25.8050871   4.5079914  21.5473032
  24.8519707   4.5963147  21.5461063  25.9695506   3.6809304  21.0943651
  19.7101378  39.5089507   6.0987306  19.3777323  38.6494040   5.8400506
  19.1400456  39.7795391   6.8184590   4.3602219  53.3667040  28.9673138
   3.7596831  53.6596203  28.2819057   4.7981367  54.1660547  29.2597198
  26.7887902  17.8868735  64.9535131  27.2388411  18.4502459  65.5830336
  27.4661160  17.2861660  64.6426868  79.5447969  71.8549204  66.5112257
  79.9453259  72.6683664  66.8179989  79.8209333  71.1966324  67.1489096
  76.4327049  10.0044370  63.6065960  77.3231554  10.2760434  63.8292313
  76.2814760  10.3704464  62.7351618  66.2922001  20.4507732   4.0950042
  66.2343931  19.9540102   3.2788441  67.2297621  20.4944921   4.2828858
   3.8865149  47.9513550  36.6757798   4.1649801  47.0897961  36.3652778
   3.6671197  47.8144026  37.5973773  69.4664431  76.0956192   9.2526221
  69.6442461  77.0246172   9.3995303  68.5223961  76.0086346   9.3846995
  45.7578659   1.1423420  55.4300070  46.0879183   2.0205158  55.2399874
  45.2421665   0.9081301  54.6583652  65.8645010  33.4425473  26.0322881
  66.4648628  33.0583501  25.3933883  65.0210428  33.0297565  25.8467770
   9.1192698  29.8028421   0.6251820   9.1464627  30.7584739   0.6727144
   8.9854014  29.6129322  -0.3033898  12.8174222  76.0961151  30.0568986
  13.5604048  75.5722761  29.7572279  12.5773466  76.6275072  29.2978096
  40.5659962  68.0562687  57.7902365  41.5150166  67.9421043  57.8408623
  40.4306173  68.9953136  57.9171133  82.2809410  58.7416983  28.8450122
  83.0744934  59.0302944  29.2958140  82.5133038  57.8914785  28.4717011
   1.0082056   6.8938315   7.1349162   1.9152477   6.6229898   7.2768700
   0.8743221   6.7977357   6.1920094  69.3191099  45.6609535   1.6967385
  70.1804066  45.2978897   1.9030912  69.4123554  46.6010904   1.8506423
  41.0872507  46.7788219   3.6673903  40.4398441  46.3041925   4.1887599
  40.6073189  47.5274801   3.3132568   0.2709890  79.4349958   4.5019636
   0.0571346  80.2401975   4.9732900   0.4827357  78.8038902   5.1897871
  80.7166481   1.5408863   3.3495054  79.8406506   1.1863321   3.1973240
  81.2256718   0.7943053   3.6653253  73.9529228  23.8046288   5.1719898
  73.0042601  23.7102842   5.0861728  74.2264318  24.2257237   4.3570638
   5.7440478  35.8247375  37.8475261   6.1540097  36.5428662  38.3296609
   5.5154455  35.1839423  38.5208416  72.9877949  59.0684319  60.8776665
  72.6589775  59.2207146  61.7636251  72.6119757  58.2253408  60.6243229
  10.9547973  54.6347380  57.8578520  10.1681507  54.3889093  57.3710346
  11.0992527  53.9071274  58.4627867  59.7098923   5.2460635  64.3775129
  59.0951252   5.8899319  64.0257692  59.9695492   5.6021202  65.2272367
  66.8359089  62.9649878  48.1354284  67.5269556  63.0955172  48.7847757
  66.9080973  62.0423412  47.8910017  76.8837452  72.8659439  39.5028663
  76.6836214  72.6817083  38.5851288  76.4994574  73.7277794  39.6634650
  48.3653498  22.7946734  12.4149489  49.1716242  22.2788644  12.4053192
  48.1563091  22.8950477  13.3436358   9.4676977  77.9867601  12.9278004
   9.9233717  78.3706713  13.6769378   9.0270960  77.2156811  13.2849228
  72.7732992  60.5635166  21.9416976  73.6931467  60.8005428  22.0597458
  72.4004650  60.6045723  22.8223467  84.4569216  79.0084219   7.1418792
  83.5914780  79.2372894   6.8029714  84.2787499  78.5437822   7.9595572
  74.5990467  58.4527969  37.9248953  74.6200943  58.1649256  38.8375378
  74.2899466  59.3577719  37.9662728  26.2597132  54.1351700  30.6356072
  25.6546426  53.5960150  31.1449528  26.8919420  53.5122442  30.2771664
  61.9928646   5.1476091   3.5749319  62.2943401   4.5982558   4.2985046
  61.8306494   6.0021734   3.9744779  71.1199903  35.3191662  17.7070379
  71.7058325  35.3164983  16.9500613  70.6687260  34.4761300  17.6636267
  81.6603279  33.0785608   2.6932669  81.2190437  33.7122321   2.1276164
  81.9186306  32.3702240   2.1035452   2.8859860  64.1445923  46.0554600
   2.3219711  64.9167919  46.0982180   3.5948884  64.3314075  46.6709232
  72.8810930  56.3272333  28.9700317  73.2509232  55.8863115  28.2051492
  72.0853806  56.7469597  28.6430740  81.3561153  62.7654552  62.4264050
  81.3880539  62.7994823  63.3824682  81.0398960  61.8839264  62.2285461
  78.0054283  39.7460866  48.0487013  77.7736235  40.4810905  47.4810123
  78.1829262  40.1472425  48.8994646  34.5671010  10.7469487   3.9267895
  34.5223236  11.0753608   3.0288070  35.4304290  11.0186028   4.2383960
  30.5531025  12.9879022  64.4400644  31.3629866  13.4366930  64.1973543
  30.6387496  12.1150899  64.0565348  60.9424353  20.8823419  59.0226412
  60.1730204  21.1867404  58.5414219  60.8194208  19.9360061  59.0971279
  17.3774230  58.8301516  60.5421257  16.8319416  58.1387949  60.1670122
  17.4564648  58.5974550  61.4672375  13.9904583  72.7623558  56.3448238
  14.2784071  71.9965601  56.8416929  14.7067046  72.9344654  55.7335949
  69.2547512  66.7101097  65.8259583  68.8961792  66.2118101  65.0915480
  69.0041590  66.2078142  66.6012859  11.8269598   3.0300924  57.2038364
  11.1600375   2.3506622  57.1047401  12.3438716   2.7499565  57.9591894
  38.4641695  21.4724040   9.1117138  38.8078570  20.5794287   9.0852159
  38.6088157  21.8110323   8.2281744  32.5370693  70.3542185  58.2164717
  32.1019101  70.2258968  59.0593243  32.9166389  69.4999981  58.0103827
  42.4274778  61.3459158   5.1857716  42.0879602  60.5031538   5.4869503
  43.3644009  61.1955786   5.0600737  64.0990734  58.7188578  25.2294254
  63.7777328  58.8593674  26.1200595  63.5734892  59.3089771  24.6892834
  20.4550672  75.6147242  62.5833130  20.7736731  75.3291845  61.7270470
  21.2358618  75.9355688  63.0345869  68.5748768  35.6297255  60.2746725
  68.7965822  35.1349616  61.0635233  69.0054321  35.1537585  59.5645189
  66.6945744  69.4731092  56.0451984  66.2817001  69.0277290  55.3053331
  66.6966438  70.3976631  55.7973576  25.9786534   1.1394068  34.5643115
  25.7810616   1.7768791  35.2504730  26.2589169   0.3564491  35.0382972
  16.4939022  50.8288193  55.2367210  17.3634768  50.6858253  55.6103849
  16.6109455  50.6885576  54.2971182  14.6264553  19.2076588  59.8919487
  14.6202660  18.2701731  60.0851202  14.1959488  19.6104312  60.6460524
   3.8706368  70.0333166  37.1452236   3.0241150  70.3742361  36.8564248
   4.3272543  70.7957840  37.5007153  62.2314501  27.4485898   1.7381823
  62.2869301  26.9281411   0.9367533  61.4598322  27.1088862   2.1914339
  64.0884590  40.1711988  37.4753213  64.6204662  39.8841000  36.7331767
  64.3856096  39.6298480  38.2066703  76.2469244  68.7844944  50.3097153
  76.5719938  68.0251646  49.8260021  76.1924887  68.4850073  51.2172270
  12.0732474  78.9801931  57.8753471  11.4354730  78.2696295  57.9429483
  11.9496512  79.4899511  58.6760330  16.8118358  20.2968788  68.3183479
  17.4540639  19.9830341  67.6817322  16.5310478  19.5089221  68.7836599
  52.3656321  51.5972614   1.7412764  53.1683397  51.2213802   1.3798845
  52.6528835  52.0689583   2.5230831  64.6341467  11.7155027  29.1093469
  65.3156519  12.3614371  29.2952394  64.8357391  10.9810293  29.6891236
  28.3068228  12.0528209  45.2190351  27.6047635  12.2881234  45.8256483
  29.1117978  12.2786319  45.6851387  66.5073681   8.7494773  51.3167286
  67.3119164   8.3818567  50.9509563  66.1343813   8.0383992  51.8377686
  83.0934238  78.6705017  68.5448456  83.6941910  79.1127491  67.9450703
  82.7594280  77.9263926  68.0438709  61.6220331  18.5189974   5.8764273
  62.1165800  17.7027845   5.8025938  60.7065344  18.2528996   5.7910734
   8.1021470  28.5918832  51.9167614   8.4331262  27.7273750  52.1602964
   8.6781073  28.8778448  51.2077284  16.1757219  60.9572601  68.6836863
  16.3957798  60.3293562  67.9955435  15.5779302  61.5747356  68.2622623
   4.0699971  31.9859958  32.1154213   3.3904970  31.4809084  31.6688824
   3.8797790  32.8962851  31.8886495  15.3031194  26.3040161  36.6439080
  15.6724131  27.0903111  36.2419224  14.5270276  26.1085105  36.1188459
   9.9447805  47.7106190  38.5072446  10.2487636  48.3343172  37.8478336
  10.4118061  46.9002485  38.3037281  16.4869297  37.4632478  51.8209267
  16.0847771  38.1263113  52.3820448  16.6900539  37.9277658  51.0090160
  34.5927763  74.6014547  10.8614600  35.3391194  75.1968622  10.7929516
  33.8697004  75.0755310  10.4507959  84.0444088  53.9713001   6.8724459
  84.9747276  54.0854883   7.0666081  83.7042618  54.8628521   6.7971539
   7.3922175  59.8994207  54.2299414   7.5534165  58.9895582  54.4797230
   6.5948308  60.1396704  54.7018337  69.1564560  56.5260077  39.5511389
  70.0500774  56.1829853  39.5494032  69.2630434  57.4714994  39.6556282
   1.0388321  44.3949366  47.3112488   1.5031028  44.2860985  48.1412125
   0.2196956  44.8287439  47.5501204  16.0594094  28.4946012  42.3132467
  16.8803799  28.5291076  41.8222761  15.4038322  28.2353449  41.6657591
  28.4893298  50.3245401  29.2873716  28.3693552  49.5357656  28.7585330
  28.5235500  50.0053930  30.1891494  76.7172003  47.0947075  12.1902847
  75.8150911  46.8801403  12.4277461  76.6498232  47.9253721  11.7194438
  25.2766514  46.7060709  28.9251804  24.7825885  45.9449244  29.2297912
  25.7620001  46.3876390  28.1640816  70.2901936  74.9506950  36.2377739
  70.2971220  74.8505974  37.1897006  69.6337938  74.3229008  35.9356999
  83.7758255  59.3308830  25.1301289  84.0111732  60.1569557  24.7076964
  82.9086304  59.4908142  25.5024576  19.9620032  41.1619091  54.6081114
  19.1133332  41.2114239  54.1681814  20.4252696  41.9499683  54.3242502
  16.9906151  28.5311699  28.6699200  17.8434873  28.6059380  29.0979958
  16.5196681  29.3213391  28.9346361  73.8534260  38.9918709  55.5842018
  74.1323185  39.0200830  56.4994335  74.4056416  38.3189178  55.1861763
  59.1387177  52.5465393  11.6429770  58.9321995  51.6315222  11.4523852
  58.9209747  53.0141878  10.8366716  28.4957433  62.6662540  29.3363690
  29.3361831  62.6344538  28.8793349  28.4119105  61.8041706  29.7438192
  64.1893816  21.4601803   2.8814420  64.8584604  21.0783911   3.4496012
  63.4263372  21.5683007   3.4491608  21.6234660  22.1378875  46.0211611
  22.1547556  22.9340339  46.0317039  20.7264566  22.4500942  45.9022856
  58.8956261  62.6438999   8.8197523  59.1434956  62.1336126   9.5907253
  59.7259760  62.9643679   8.4675378  16.0885811  11.0600364  29.8417377
  16.3634598  10.5416846  29.0854406  16.8770182  11.1363745  30.3791142
  17.6981914  28.6830521  52.4583769  17.1560812  29.4571066  52.3060989
  17.0707965  27.9828215  52.6380587   0.4640027  35.3913212   7.4410987
   1.0436784  34.9086046   8.0303305   1.0519060  35.7862306   6.7971677
  24.0231752  34.2888141  67.4395990  24.8129988  34.1943312  67.9720306
  24.2888570  34.0057516  66.5646601  65.3251123  59.5055294  50.9509230
  66.1699247  59.7087812  51.3524389  65.5468035  58.9968014  50.1710033
  13.8984787  45.0416803  55.3128719  13.3552051  44.7656727  54.5746946
  13.3186805  44.9827147  56.0722065   1.3483723  49.7960424  44.4659662
   2.2404112  49.7783279  44.1192913   1.4164746  50.3002453  45.2767515
  53.8364458   3.6064890  41.2438822  53.3204746   3.1790629  40.5602837
  53.4948635   3.2462847  42.0622969  14.6527815  58.3127356  52.6499081
  14.9708915  58.3504677  51.7478991  15.3466618  58.7231684  53.1659555
   7.3478383  74.4744873  17.1108508   6.6539413  73.9256287  16.7454886
   8.1594145  74.0342426  16.8583500  70.0466442  38.9293838  15.8097351
  69.3029881  39.1258144  16.3794947  69.9843645  37.9875302  15.6507826
  60.4031277  52.9723120  53.5061121  60.8630562  53.7125015  53.1101036
  60.9392977  52.2109318  53.2846403  80.6918049  61.6645765  23.0633020
  79.9961138  62.3201132  23.0131412  81.2380981  61.9506311  23.7953997
  18.3235157  73.6684036  32.5535583  17.9157627  73.0623102  33.1721187
  17.9262888  74.5163870  32.7519679  62.0991039  48.7869310  38.4149766
  62.5701284  49.4284773  37.8832054  61.9148970  49.2446852  39.2351961
  32.7740502  18.9342809  54.5404339  32.9627609  18.9391625  55.4788351
  32.3542809  18.0882037  54.3849421  23.8745475  36.9364858  14.7597063
  23.8373065  37.0276761  15.7118249  24.6826935  37.3832989  14.5077312
  54.7277021   9.1153586  39.5283389  54.0461779   8.5170037  39.8344922
  55.4428673   8.5424167  39.2517424  21.1021066  29.2143822  24.3688798
  21.4653039  29.8681021  23.7714124  21.7813993  28.5428452  24.4307780
  46.3557386  18.9674556  34.2528415  46.0817957  18.6186898  33.4045792
  46.1915922  18.2539773  34.8694754  16.4485502  54.5324230  52.0437765
  16.4305508  55.1116276  52.8056335  17.2099042  53.9704943  52.1880436
  20.0198817  48.2955933  49.1313601  20.6217241  47.7811670  49.6693087
  20.4197812  48.2996941  48.2617092   2.4093047  45.2805185  52.8463268
   1.9607860  44.9652910  53.6309910   3.3382148  45.1373577  53.0276108
  75.2102661  48.3621073  49.8319006  75.5669165  47.6694202  49.2758322
  74.2688370  48.1905079  49.8541307  34.7770357   1.4351736   9.8822540
  35.0675249   0.7891528   9.2384332  35.5872416   1.7838386  10.2540505
   2.5992313  55.5044270  38.9418626   2.4111871  54.5662689  38.9688301
   3.3433703  55.5824852  38.3448720   6.9944096  64.4983244  44.8511744
   6.7343187  65.3993130  45.0430155   6.8258727  64.3946218  43.9146519
  81.0887432  48.3983469  48.9767456  80.9088993  49.1352558  49.5605707
  81.7526436  47.8847456  49.4368315  49.1040421  21.9026899  67.3828602
  49.2160654  22.8530836  67.4037647  49.3354511  21.6538692  66.4880037
  76.1609077  76.7916632   0.6122107  76.2581921  75.8414364   0.5502961
  75.5811787  76.9247150   1.3621703  63.3280516  50.6222820  49.2553663
  63.8053131  50.0670958  48.6387491  62.6829672  50.0380802  49.6538734
  56.0655689  68.7256813  48.4975004  56.2487698  67.7903032  48.5854769
  55.6903505  68.8148928  47.6214361  10.8452690  57.0868969  46.2381649
  11.5836060  57.2030020  46.8361712  11.2484312  56.9946527  45.3749275
   9.6907759  56.7529249  34.8352385   9.6923637  55.9561348  35.3656673
  10.0197339  56.4727259  33.9811254   7.8191471  37.4097061  32.1875310
   8.3532727  36.7564607  31.7356348   8.2150835  37.4837184  33.0558562
  61.1086607  62.4457550  41.9143629  62.0499516  62.5356913  41.7656469
  60.7553339  62.1870947  41.0631943  33.1387448  51.1906576  18.9865613
  33.7136197  51.4554119  18.2684684  33.3072400  50.2547407  19.0956497
  64.9515820  57.4419498  38.1201196  64.3438864  56.8880796  37.6300573
  65.5720139  56.8278027  38.5126996  54.4133806  54.2143488  12.1871865
  53.9016771  53.5326767  11.7516279  54.6082401  54.8464727  11.4953160
  73.1919336  33.4270668   2.5407493  73.7433815  32.8286219   2.0367640
  73.6915827  33.5982823   3.3390397   3.1478477  23.5224795  43.3317947
   3.2183850  22.7607226  43.9071083   2.3369813  23.9529729  43.6027241
  46.0952044   1.7574157  24.3832684  46.8786812   1.9140723  23.8561487
  46.2789011   0.9414266  24.8487258  64.3450256  79.2826427  22.9874825
  64.7948351  79.2188639  22.1449661  64.8568632  79.9207440  23.4845567
   4.0528685  66.2906504  41.6855669   3.6498860  66.1887074  40.8233356
   3.3894783  65.9744644  42.2988939  16.8912530  74.0484142  28.3858705
  17.2393131  74.9245596  28.2201791  17.5647616  73.6189222  28.9132762
  70.5794954  36.3232493  50.4809523  70.4285240  35.6142950  49.8557901
  70.6325960  37.1116662  49.9407578   4.8246741  42.8922939  34.0470123
   5.0268334  42.8498125  34.9816561   3.8821152  42.7327824  33.9983416
   2.9484028  67.5308371  35.4945540   2.9042885  66.9971895  36.2879658
   2.9514921  66.8956137  34.7785163  53.4061098  64.6546412  19.7671902
  53.8813162  65.4733849  19.6255183  52.8209734  64.8412848  20.5013633
  25.9262156  68.7500191  50.2706480  26.3537121  69.0815401  49.4809818
  25.0085187  69.0030241  50.1703835  76.9796562  27.8459740  14.8811471
  77.1749210  27.0180416  14.4422495  76.9588947  27.6244593  15.8121324
  75.5876160  43.4057951  45.2263403  74.9575138  42.7678013  44.8914242
  75.5300236  43.3223677  46.1781549  10.8390665  79.4281771  39.6532416
  10.1170707  79.7497624  39.1132998  11.3922405  78.9371370  39.0456986
  12.3223019  50.3153419  23.4378862  12.5278437  50.9478474  22.7494669
  11.9006610  49.5894003  22.9780412  32.0878243  31.3387156  38.0518270
  31.8726516  31.0330200  37.1706438  33.0222654  31.5425658  38.0131030
  49.4889498  62.8789139  34.0390205  50.1914167  62.6966095  34.6631503
  49.8288059  62.5703716  33.1990600  16.8711889  20.4159093  26.7060161
  16.7086792  21.3584638  26.7435980  16.3406563  20.1105452  25.9701347
  71.2789106  46.0894489  32.3529768  71.3321733  46.3495541  33.2726192
  70.7529068  45.2897692  32.3603225  10.7384908  78.3409977  65.7666922
  11.0944593  77.8218555  66.4878082  11.4330697  78.3440113  65.1080656
  26.0683322  21.8698621  23.6424041  25.6952190  22.0379972  24.5077062
  26.9354057  21.5063095  23.8219738  11.2350929  47.8732586  33.5776711
  12.0531130  47.6988554  33.1122088  10.7523596  48.4646797  33.0002403
   0.3861345  53.5707474  43.2705927   0.5754361  52.7560568  42.8051090
   0.3823692  53.3230114  44.1951704  20.0223684  65.0528002  56.0951948
  20.5430746  64.9160194  56.8866444  19.1891861  64.6187830  56.2786818
  70.4807758  12.7790558  22.4054241  70.3656054  13.7288976  22.3777080
  71.4106321  12.6560032  22.5963497   3.9736259  50.9144306  56.6087961
   3.8900703  51.2198019  57.5121212   4.9101567  50.9760571  56.4207935
  76.2363482  11.5000963  48.0876350  75.5861139  10.9452581  47.6568413
  76.0919571  11.3563478  49.0228987   3.3871421  44.4615078  18.0781913
   3.9496604  44.7275400  17.3508453   2.6181322  44.0765715  17.6578581
  78.8419914  76.6892099  43.1473780  77.9969311  76.3215494  42.8886652
  79.4870138  76.1616659  42.6763439  78.3497477  74.7432661  35.7042742
  78.0527782  74.5940018  34.8066306  77.6490641  74.3872976  36.2506771
  63.3659983  33.2276988  19.8955476  63.7065458  33.5639930  19.0665925
  63.8218355  33.7367177  20.5658793  25.7238340   1.0170987  30.1823711
  26.2008333   0.3489330  29.6901751  25.7196903   1.7815745  29.6063590
  63.0195904  63.3668947  17.4133825  63.5397577  63.9814329  17.9310691
  63.3887434  62.5080442  17.6191330  39.9421668  19.4939518  67.8186274
  39.6096539  18.8046312  68.3935213  39.1563439  19.9106240  67.4649334
  38.5575008  63.4342861   4.1680154  37.7976012  63.9070797   3.8285312
  39.1940618  63.4595156   3.4536022   7.4047846  62.5315237  47.8640699
   6.6109437  62.0350885  48.0630732   7.3965144  62.6246834  46.9114494
  39.4289255  59.3053675  31.7100024  39.9708009  58.7807465  31.1206150
  38.5366940  59.1866827  31.3843203  43.9318848   4.5619914   9.1919065
  44.4388294   3.9731732   9.7509527  44.5679474   4.9008870   8.5619777
   8.3215350  75.7497311  27.9081297   7.6181293  75.4666138  27.3239207
   8.0699575  75.4113436  28.7674522  37.5878048  48.1068754  17.8653204
  37.4143720  48.6440468  17.0922720  38.1447816  47.3977423  17.5441742
  19.1800582  61.3603640  27.7453566  19.5903349  60.4958820  27.7692699
  18.7052608  61.4231539  28.5741258   3.0061921  63.8799143  58.1578779
   2.3787847  64.3935299  58.6665916   3.2237029  64.4384289  57.4115705
   8.3424914  41.0324383  32.8153610   9.2115635  41.4260817  32.7379751
   8.2633060  40.4729700  32.0427322  17.1413720  47.8378248  57.1241140
  17.1661246  47.4046707  56.2708855  16.2460530  47.7036333  57.4349642
  40.9304523   8.1402862  45.0647259  40.1214457   8.4496039  45.4722404
  41.3021994   7.5310415  45.7025766  12.0137918  49.6010113  13.8162446
  12.6258659  49.7450876  13.0945528  11.4459825  48.8934088  13.5110843
  42.7886629  56.3262224  24.4817233  42.6549292  56.7518425  25.3285956
  42.2133636  56.8007660  23.8816643   3.9776856  56.4712715  60.5247068
   3.2127380  57.0225859  60.3599739   4.7260877  57.0478678  60.3708887
  42.4483871   6.9999993  59.5094347  41.9056845   6.7057973  60.2409744
  42.0350504   6.6173434  58.7355089  57.9418612  61.4920998  45.0189781
  57.5155592  61.6588593  44.1783285  58.4025669  60.6624985  44.8934937
  67.9465628  42.2196960  58.0690670  68.3834028  41.8565607  58.8394785
  68.4841347  41.9321346  57.3311281  28.4047890  31.7183304  24.9789619
  28.2672048  31.1405253  24.2283320  29.3372583  31.6343164  25.1781416
  26.8759823  40.0873232  25.4506612  27.4218035  40.7686615  25.8432031
  27.3231864  39.8626804  24.6347094  32.5404334  53.0302286   0.9913516
  33.4051180  53.4242630   1.1066169  32.7211809  52.1175575   0.7664317
  19.7878742  38.5820246  55.5220175  18.9217687  38.3413720  55.1931095
  19.9079669  39.4886518  55.2394629  36.0517383  21.0704160   0.5849739
  36.9609618  20.7744074   0.5411458  35.9642816  21.6842651  -0.1442544
   5.2944684  76.8853140  56.1138248   6.0085332  77.2858047  56.6097641
   5.7328421  76.3363361  55.4636860  20.9091616  54.9115610  30.4036331
  20.6639028  54.0091372  30.6078529  21.1706471  54.8862505  29.4831896
  51.4030361   5.8639437  67.4155140  51.4035511   4.9516952  67.1256304
  51.2590218   5.8148730  68.3605480  84.2672348  39.1397309  67.5992918
  84.8023033  39.4475174  66.8677092  83.4986019  38.7471890  67.1853542
   2.4391155  76.2332821  52.2084618   3.1625706  76.7779303  52.5186300
   2.2868936  75.6100082  52.9188061  18.8228512  65.1183939  62.0326328
  19.2426956  65.4595041  61.2429476  18.9794087  65.7901192  62.6963425
  68.1850290  14.0232170  50.4715157  69.0199566  14.4653177  50.3176641
  67.6149797  14.3368924  49.7694588  40.1094723  68.3962870   0.4092859
  39.3019295  67.9041004   0.5571557  40.4943037  68.4924030   1.2804323
  81.7335129  63.4474087  32.2443414  82.4172878  63.0453062  31.7086244
  81.3516998  62.7179241  32.7325034  21.8102288  59.3638372  12.2302437
  22.4405622  58.9393759  12.8122592  21.0550094  59.5482063  12.7887106
   0.8515399  50.1860857  30.7657671   0.7552205  51.0469580  31.1730218
   1.0092586  50.3750229  29.8407483  79.1560173  38.1437540  44.3199253
  79.3418837  37.4333882  43.7058687  78.9275503  38.8880467  43.7630987
  74.4591522  49.9300480  37.6581264  74.7986507  50.7764339  37.9489827
  75.0661469  49.2887354  38.0275941  70.2814341  75.7730913  59.7247124
  70.4258871  75.5779123  58.7988281  69.7710228  75.0311470  60.0490999
  69.4296122  49.3035555  22.5654840  70.2851820  49.0597486  22.9187369
  69.1187954  48.5132647  22.1238256  39.2468333  30.3195620   1.9947582
  39.3520021  29.6106386   2.6292667  38.3407927  30.2412486   1.6961148
  46.0536575   8.1161910   4.6450010  46.7358923   8.1446910   5.3158039
  46.5136385   7.8575748   3.8463980  63.1651497   4.0245771  26.3864017
  62.2875929   3.7077489  26.6002941  63.0150700   4.8326576  25.8957767
  12.1677613  62.8139400  57.2089338  11.7585719  61.9540691  57.1118784
  13.1015384  62.6512718  57.0754004   0.7738271  69.4269466  24.4638157
   1.7252147  69.3933535  24.5636392   0.5913200  68.8588285  23.7153721
  83.4661102  54.4062471  15.2005982  84.0855598  53.8838816  14.6910441
  82.6956940  54.4808531  14.6374655  15.8001089  41.1061954  14.1927111
  15.7619512  41.6563845  14.9750590  15.7062900  40.2128267  14.5233560
  41.6041279   0.2692888  52.8386402  40.9079313   0.3570388  53.4896708
  41.1473131   0.2729810  51.9974852  47.8174210  76.5339947  63.7473440
  48.3265400  75.9596062  64.3192768  48.4172153  77.2472668  63.5289001
  35.8415794   3.9243022  16.4772499  36.1272788   4.8376742  16.4582908
  35.1999545   3.8887215  17.1866727  78.9662123  14.1043746  55.4311037
  79.3687439  13.2368147  55.3918743  78.1316900  13.9612424  55.8775520
  31.7942500  66.2072372  56.6321945  32.5697970  66.7218065  56.8557549
  31.0582089  66.7902184  56.8182278  68.2309580  55.1690865  31.9414353
  68.5854006  55.9626818  32.3424411  68.1781769  55.3753281  31.0082102
  23.4525228  65.9748125  27.7971959  23.7304664  65.1414108  28.1772161
  22.7556968  65.7383680  27.1850228  43.4252644  16.6885626  45.9347057
  42.6751757  17.1531796  46.3058233  43.0445480  16.1039841  45.2793026
  32.3725772  69.5596886  40.0805902  33.0936050  69.0232611  39.7510481
  31.6664743  69.4264650  39.4482136  13.3048081  30.3788948  18.7954938
  13.6932087  29.8566318  18.0936277  13.2242179  29.7706223  19.5301628
  23.6969638  54.5412159  56.4481783  23.3811283  53.8604498  57.0423412
  23.8798618  55.2892876  57.0166588  10.9096873  60.9460592  15.3171742
  10.2377331  61.4161396  15.8108699  11.2741864  60.3211308  15.9439397
  39.0133905  23.4095573   3.9334160  38.1212020  23.7255597   3.7906852
  39.5611358  24.1891932   3.8418856  18.4934211  50.0783443  65.4440928
  18.0788743  49.8639536  66.2798071  17.9257834  50.7462835  65.0595427
   0.8128188  52.9887199  20.6412387   1.5839940  52.4577188  20.8401251
   0.6841043  52.8805923  19.6989155  30.1575446  49.3236256  26.7289424
  30.8741641  49.8265648  26.3419843  29.7145391  48.9233637  25.9807634
   4.6948659  79.3288660  43.5702562   5.5362093  79.5384979  43.1647587
   4.8989618  79.2105293  44.4979239   4.5154721  45.7052994  27.9756331
   4.2825699  45.7863426  28.9005232   4.4006521  44.7752953  27.7803302
  20.2808690  62.4458313  38.1449199  19.7607970  63.0327415  37.5960183
  20.0105691  61.5669489  37.8789568   4.6158955  55.6746149  36.9483137
   4.9497932  56.0724783  36.1442924   4.6295410  54.7336197  36.7734814
  23.9240861   4.9670035  24.3498826  23.9369822   4.9875885  23.3929920
  23.6854601   4.0657783  24.5668674   8.2850516  68.9668941  65.2077103
   8.1936026  68.0498266  65.4662752   8.1980354  68.9568138  64.2545271
  17.4672508  40.7580042  53.4149265  16.8276918  40.2068853  53.8659954
  17.0292938  41.0192347  52.6048756  33.4930229  27.7789521   1.4956717
  32.9927373  27.2905087   0.8419365  34.2007518  27.1858740   1.7478830
  77.7090216  50.8073425  38.2191634  78.6260033  50.8904076  37.9574871
  77.2226191  51.2723541  37.5384188  17.4229455  59.1961670  47.2997713
  17.3436368  59.7461319  46.5203619  16.5218115  59.0710211  47.5973082
  78.0935764  14.4601429  22.6243567  77.6468658  15.3067100  22.6261020
  79.0204096  14.6785963  22.5269294  50.6651306   7.8445804  34.1237569
  50.1323175   8.3358610  33.4984708  50.8953953   7.0388508  33.6611438
  11.5615368  38.2716584  33.2999659  11.4326978  38.6413908  32.4265075
  11.9185555  37.3980594  33.1399846  73.0363750   1.7482576  61.2126017
  72.9780722   1.3669401  62.0886326  72.5711203   1.1288839  60.6503344
  38.0428076   5.0036746  41.3195467  38.2801628   5.6920809  40.6982660
  37.6306558   4.3274784  40.7818460  26.7457867  46.4511681  13.9704871
  27.3803663  46.4589834  14.6870613  27.2174406  46.0561705  13.2371700
  81.6063023  29.6589255  44.7675800  81.6878605  29.2640281  45.6357002
  80.7938099  30.1632619  44.8092413   6.7771810  72.1012115  51.2969160
   6.2273270  72.8845072  51.3154364   7.2914326  72.1884966  50.4943228
   1.9506428  44.4487524  34.3793678   1.8028326  44.2848396  35.3107738
   2.8111935  44.8663425  34.3432760  10.5052364  45.0493097  61.6482925
   9.7570235  44.5072746  61.3980722  10.5830359  45.6908417  60.9421682
  23.5509968  62.9536390  36.5884876  23.1539822  63.4979200  35.9085107
  23.0160379  63.1135321  37.3659754  58.7577486  47.9074097  32.9968858
  58.5504532  48.8255501  33.1709003  58.5168552  47.7771568  32.0796967
  61.5392208  53.0448008  17.6842296  61.5817308  52.5631332  18.5103166
  61.9669724  53.8802958  17.8718460   6.9869143  17.0993805  33.7624598
   6.7185736  17.9118514  33.3333731   7.9015428  16.9833708  33.5051107
  10.6203663  70.0707912  21.3051581  10.8675444  70.5932522  20.5421591
  10.4862869  69.1887999  20.9582520  78.1658125  22.1740413   9.0583962
  79.0543461  22.4506593   8.8343054  78.0567980  21.3341284   8.6124241
  31.2913680  53.2922602  11.4900589  31.3024330  52.8651047  12.3465931
  32.1625233  53.6795044  11.4042640   6.7300898  62.1623898  27.2935581
   6.1181027  62.2483540  26.5625906   6.3964731  62.7658319  27.9574776
  73.4863329  40.7639408  39.2412710  73.3865929  39.9354482  38.7723517
  73.6668205  40.5071259  40.1455402  13.8236320  45.8449268  44.3741369
  12.9182434  45.9324741  44.0760803  13.9093006  44.9216986  44.6119213
  57.9197598  63.6495638  49.5103168  58.7131071  64.1849470  49.5243359
  58.2063866  62.8057671  49.1609097   8.7154090  76.5965557  15.8896101
   8.9421314  76.2156296  15.0412428   8.1566072  75.9399366  16.3053346
  26.9688296  33.9904857  23.7100911  27.5586343  34.7443199  23.7003279
  27.5229311  33.2562590  23.9748859   1.1827806  67.7628899  22.1651173
   1.1233841  68.4930563  21.5490341   2.1223268  67.6388407  22.2996402
  60.8759117  48.5601950  30.5059671  61.7971039  48.8081551  30.4275012
  60.8961725  47.6259184  30.7132101  23.1299829  69.5842123  47.3279238
  23.1594491  69.0370989  48.1128025  23.9937735  69.4780445  46.9293928
  62.6552200  72.4107265  21.1535096  62.8124571  72.6025105  20.2289939
  63.5282755  72.2755861  21.5219402  15.5564940  47.9070425  30.5389833
  16.4393461  48.2741928  30.5837774  14.9785185  48.6526489  30.7009816
  13.9130569  63.8886881  31.6065192  14.5767927  63.4231615  32.1154094
  13.0876732  63.6853981  32.0465708  47.4578190   7.3081809  24.4512582
  46.7175007   6.9263351  23.9797115  47.6089668   8.1489164  24.0193415
  72.8920126  74.5648241  39.7467065  72.2158194  74.8740387  40.3495216
  72.4215698  74.0133572  39.1215658   1.8736030  58.4228325  35.3322482
   2.5958580  58.9982748  35.5841303   2.2546527  57.8294849  34.6849656
   5.7036835  23.0006194  12.4726212   6.0962951  23.8388181  12.2286725
   5.0325352  23.2286835  13.1158781  22.0683336  37.1769667  37.6213098
  22.9404068  36.8875599  37.3530531  22.2091269  37.6157188  38.4603000
  16.4284861  19.2483985  42.8139067  15.7987034  18.6126995  42.4740648
  16.7987156  19.6597707  42.0329237  64.9276209  65.1700640  18.5751641
  65.1272631  65.9766579  19.0503263  65.6588459  64.5861530  18.7766361
   6.1684698   4.7968039  44.3414164   6.0971540   4.0662721  43.7270308
   6.5856910   5.4946882  43.8363266  77.1216774  23.8078403  29.0939641
  76.7750549  23.3094025  29.8339939  76.3814688  23.8897395  28.4926200
  82.9856205  75.5778170  49.8822784  82.3387623  75.8489466  50.5336666
  82.4813747  75.4650831  49.0765095  53.6165380   5.0422370  36.9779658
  52.8369665   4.4869649  36.9648314  53.3255863   5.8537573  37.3939157
  32.4032784  61.9071198  23.9512062  31.7933369  61.2282848  23.6624384
  32.0845509  62.7081537  23.5352898  24.6402836  59.8646593  50.5007648
  23.8499880  60.1502371  50.0423908  25.3222632  59.8711061  49.8291302
  76.8549156  66.1272383  41.7843819  75.9785128  66.4309454  42.0208311
  76.7857647  65.1725388  41.7847443  20.5870366  41.5500069  66.2706327
  19.7330868  41.2076426  66.0064602  21.0962629  40.7726002  66.4998913
  29.7532630  33.2945490  68.1277275  29.6375227  32.7521563  67.3475695
  29.8500848  32.6666975  68.8437271  33.5345268  18.6076856  28.5290456
  32.9492116  18.3092642  27.8329253  34.1536355  19.1896713  28.0883312
  18.8889325  73.8285971  39.4950843  18.8060427  72.9026842  39.2669320
  19.6160603  73.8578844  40.1169014  28.0213284  37.8147697  37.5571895
  28.5400152  37.7715945  38.3605146  28.4239292  38.5194874  37.0497251
  19.7999287  70.3897333  65.3492594  19.4332826  70.8440590  64.5907164
  20.5434680  70.9303617  65.6159067  27.5626397  54.2591763  59.8827267
  27.0878077  53.4436846  59.7222757  27.2322202  54.5666122  60.7268476
  58.2565594   4.6305504   2.8121245  58.9037657   5.1909715   2.3840104
  58.7598038   4.1321659   3.4560126  66.0839319  42.3494959   9.1720241
  65.4545784  43.0705500   9.1869342  65.7639694  41.7665100   8.4835553
  27.3023844  74.6258068  19.7933567  27.0224786  75.0544500  20.6021500
  28.0240798  74.0568924  20.0611734   8.9600593  73.0282688  21.8466711
   8.9430684  72.2580767  22.4147797   9.7301692  73.5197115  22.1324086
  24.0279746  66.2159204  53.3349180  23.9379358  67.1525908  53.5103559
  24.9041677  65.9960985  53.6514521  43.2174158   8.7239158  43.0738354
  43.0416918   8.3984655  42.1909761  42.4311876   8.5009485  43.5721970
  43.2067728  20.5865693  42.7762127  42.4072886  20.6573391  43.2977915
  43.5509300  19.7174358  42.9821205  82.6345348  62.6758671  66.9188356
  81.9747829  62.1038675  66.5267038  82.2776222  62.8989840  67.7785254
  79.0629101  67.9414606  62.5603104  78.9747381  67.2953367  63.2610083
  79.9851704  68.1965828  62.5844193  23.6452460  26.2591434  32.5485563
  24.4678736  25.7705092  32.5760078  23.7810397  26.9187284  31.8683076
  48.4549189  78.9486504  24.0946865  48.1436872  79.4145632  24.8707628
  48.6321878  79.6390963  23.4558630  21.7750955  58.6842346  51.3293839
  21.7772865  58.8587904  50.3882360  21.2681484  59.4039106  51.7052841
  64.8626709  69.7227240  65.6668568  64.1157007  69.7812891  65.0711775
  64.5984602  69.0740538  66.3192749  71.1210012   9.3821502  61.8121099
  70.3451252   9.1730970  61.2919760  71.0894299  10.3329706  61.9178200
  16.2286747  48.6024904  34.2724466  16.8350554  48.7619162  34.9957156
  16.3658595  47.6833677  34.0430498  53.7265348  41.4248371   3.2632798
  54.2877960  41.7321825   3.9751458  53.0595922  40.8924961   3.6969060
  24.3130684  36.7971253  42.3209381  24.8560023  37.5250649  42.0183516
  23.5697365  36.7859554  41.7179775  76.4411306  64.9572229  37.6861835
  77.2964621  65.3722048  37.5746799  76.0866547  64.8970175  36.7990780
   1.1599433  72.4105787  46.1640072   1.5794230  71.5509939  46.2012005
   1.2332072  72.7516079  47.0553923   3.1060356   7.6931584  33.0344748
   4.0244040   7.4521720  32.9129958   2.8646600   8.1350195  32.2203946
  22.3112583  71.4355564  37.8822351  21.5808296  70.9821033  37.4614143
  23.0146384  71.4101648  37.2335100  24.1613817  21.0502696  62.7745867
  24.2257595  20.2421713  62.2656012  23.2276869  21.1391878  62.9657412
  51.7109871  14.4180989  36.2404656  52.5109673  14.9345469  36.1427712
  51.2778378  14.7904325  37.0085669   3.1617391  72.3547983  39.3944812
   3.1852102  72.7400017  40.2704382   2.6733762  72.9874039  38.8676524
   2.2798820  52.4847555  17.2059858   3.1945094  52.2282410  17.3238349
   1.9721217  51.9462252  16.4769459  30.4071903  68.8092899  65.3886652
  30.3164172  69.7524834  65.2530956  29.7204971  68.5906887  66.0186625
  31.0702944  11.6352153  33.1449604  30.9598279  12.4879313  32.7243590
  31.1357665  11.8354046  34.0787005  55.6447458  31.6981554  24.0203142
  55.7055855  32.6438189  23.8852215  54.8744345  31.4334536  23.5175395
  81.7105389  64.6704960  41.5891457  82.0957279  63.8059378  41.4462996
  80.9196568  64.6723986  41.0499573  69.0546703  57.5594664  18.0225372
  69.4192791  58.4431601  17.9737651  68.3016777  57.5781155  17.4318743
  18.3620548  75.8531523  55.0942564  18.4536850  76.7145634  54.6870661
  17.6714170  75.9689379  55.7468224  10.3940916  26.3466048   3.3830360
   9.6100402  25.7979274   3.4041712  10.9708989  25.9657073   4.0451860
  79.7289038  12.2664559   5.6523687  80.6263161  12.5890875   5.7347953
  79.1962624  13.0577719   5.5727166   9.9468637  72.5195122  66.0567808
   9.4805568  71.7791700  66.4449644  10.5933428  72.7683544  66.7173672
   7.5331455  60.4578495  42.7036238   7.2507638  60.5471563  41.7933941
   8.4719843  60.2801323  42.6467991  45.8931208  18.4256744  29.2962146
  46.0284615  19.3702102  29.2202806  46.7261362  18.0415988  29.0227127
  18.4941804   2.9654735  42.4320364  17.8414011   3.2960403  43.0491543
  18.4842992   3.5962933  41.7121744   4.1886684  76.9789076  38.6930513
   4.4464034  77.1487141  39.5991254   4.2906478  77.8227568  38.2528734
  62.3794508  45.7759619  33.9206672  63.2420683  45.4148674  34.1249514
  61.7715645  45.2561808  34.4465280  53.1587648  68.0744123  65.2169800
  53.4433413  67.3083353  65.7153463  53.1307983  67.7726316  64.3090296
  69.6352482  47.0025682  58.0360842  70.1110744  47.8276730  58.1310797
  68.9653206  47.0324135  58.7191153  14.3347967  60.1001692  20.7305312
  13.4834743  60.4410839  20.4561973  14.1341043  59.2625904  21.1481667
  25.1602530  77.3846817  39.0177512  24.7949314  77.4781752  39.8975420
  25.3375316  76.4481163  38.9303017  64.9832153  39.1964245  56.4987946
  65.3239346  39.4948411  57.3420572  65.6775379  39.4032240  55.8731937
  35.6772923  75.8935070  63.0477905  36.1387515  75.4451370  62.3390913
  35.0285435  75.2582455  63.3507729   9.3550962  68.2159090  44.0443182
   9.6163386  67.4117327  43.5956669   8.9372337  68.7445307  43.3644819
  44.2415953  15.4870188   8.2941473  44.4958782  16.2785804   7.8198034
  44.7287655  14.7836852   7.8649437  23.0231547  66.4677191  11.4387548
  23.3350277  67.3690796  11.3580191  22.8657770  66.1870718  10.5372548
  21.8588161  74.4918633  47.0125723  21.7089295  74.8029757  47.9053116
  21.0276747  74.0928173  46.7552853  27.0577145  56.1589909  57.7596045
  26.4905596  55.5336475  57.3084736  27.5151539  55.6358576  58.4178638
  35.7656622  30.3446150  65.5813360  35.5492425  30.5671406  64.6758652
  36.7170906  30.4376245  65.6299829  55.9782028  16.2186408  50.4325390
  56.3071823  15.4348016  50.8725405  55.5314732  16.7104304  51.1216068
  82.6636219  47.0941257  50.8748960  83.0029106  47.9835224  50.9753656
  83.4164619  46.5826464  50.5784941  31.8377686  15.5558681  10.9688437
  31.2268615  15.1474535  10.3554749  31.4577341  16.4158237  11.1485195
  38.3143115   5.6645060  48.1042671  37.9365993   6.3673711  48.6329889
  39.2503262   5.6921208  48.3026218  56.7908049  37.6349306  58.0704784
  55.9600830  38.1102085  58.0860901  57.4544144  38.3160543  57.9612875
   2.8994510  75.9575844  63.8727570   2.9029793  75.1217318  64.3392038
   2.9122970  75.7152128  62.9468393   2.1720347  76.5233564   6.3747728
   1.6537218  77.3278952   6.3920325   3.0733153  76.8216562   6.2525350
  36.6053271  74.6309996  60.7823324  37.0279026  75.4154539  60.4326296
  36.0957980  74.2863035  60.0489807   4.2360288   3.1788337  15.6501377
   3.3236468   3.4640750  15.6994152   4.2167243   2.2645159  15.9327722
  60.6861067  25.3970957  12.1507204  61.1615467  25.8561325  11.4582801
  59.8387575  25.1848769  11.7593241  48.5032177   3.6650795  38.0790472
  47.9725027   3.4457114  37.3132467  48.4289265   2.8997594  38.6491346
  67.5301695  49.7876406  48.4695244  66.9669056  50.2992487  49.0502310
  68.3749962  50.2367020  48.4985447  13.2979524  15.0088596   8.6024332
  12.3534954  14.9885213   8.7567675  13.6812139  15.1019156   9.4746047
  55.8502436  32.8396630   6.1463964  55.8250809  33.5665941   5.5241674
  56.6697264  32.3852921   5.9508836  14.6543503  50.8802319  33.3394194
  15.2240551  50.1526165  33.5889030  14.3041289  50.6281424  32.4850035
  10.6110024  47.1647549  55.0845289  10.6834972  46.3967896  55.6512737
  10.1000607  47.7923203  55.5957365   2.7488592  33.7830138  66.9106960
   2.3004727  34.2031622  66.1767626   3.6619163  33.7214923  66.6300297
  -0.2493520  60.5667496  62.6240826   0.5394511  60.4701376  62.0905209
   0.0049834  60.2433205  63.4883356  35.2681732   8.9280146   0.4417860
  34.3217802   8.7905043   0.4825443  35.6063318   8.5012603   1.2290355
  25.3907895  10.3157759  26.9068193  25.3290081  10.0109577  26.0015583
  24.5611429  10.7662094  27.0650268  80.3969383  55.8617640   9.7327870
  79.8227167  55.3651237  10.3157580  81.2684822  55.4975700   9.8877227
  54.4018221  44.8451424   7.4626929  53.9496756  45.4567814   8.0438089
  54.0479994  43.9869308   7.6961720  51.9298410   4.1431198  44.6135664
  51.4894819   3.3334464  44.8719215  51.2461281   4.6635157  44.1917133
  13.2549345  55.7694340  52.5130415  12.9969132  55.5156565  53.3991861
  13.6976683  56.6107798  52.6241779  65.4908705   8.5655010  15.3847551
  65.0349236   9.0556639  16.0689247  65.1670313   8.9400077  14.5655441
  10.1721549  62.2731066  44.6227026  10.0693738  61.6510773  45.3429413
  10.2452910  63.1258583  45.0513029  49.5437336   8.2403964  59.5583534
  48.6781931   8.5398424  59.8365688  49.4504309   8.0770916  58.6198139
  17.4765301  54.7244310  61.5038776  17.2500288  55.5108500  61.0074234
  16.8578303  54.0613699  61.1976147   5.9627175  63.7447262  29.5586371
   6.3028550  64.5533609  29.1756964   5.4166156  64.0365934  30.2885818
  28.2033825  72.1615219  66.2735319  27.5589061  71.9012833  65.6153870
  28.8715482  71.4770222  66.2382460  35.8030915  11.4693999  35.9428978
  34.9000788  11.7370784  35.7721663  35.8353710  11.3250053  36.8885922
   0.4088706  67.1753740  63.4924221   0.6462307  66.4619732  62.9000044
  -0.4079057  66.8868065  63.8996553  35.1797533  70.2685261  28.4996963
  35.5303597  70.8630085  29.1629457  35.5511594  70.5833054  27.6755571
  45.1142406  12.7318454  55.7427073  45.9290123  13.2251775  55.8375883
  45.2555895  11.9352829  56.2543106   1.6709696  66.6375256  39.5798421
   0.7849436  66.3549948  39.8064804   1.8886912  66.1359644  38.7941790
  32.5324106  64.2681408  54.7838688  33.4448767  64.5514870  54.8417473
  32.0476294  64.9156189  55.2957201  36.4772153  10.5723715  42.2740173
  36.8211174   9.9105138  41.6740942  36.8738174  11.3921189  41.9791412
  10.2295971  50.6661654  30.5677199   9.8224944  50.0971842  29.9144506
  10.5226290  51.4299870  30.0707865  30.9294081  10.6420398  13.2356751
  30.7686520  10.1144171  14.0179825  30.7197022  10.0588477  12.5061941
  75.4082537  59.7060490  55.2625322  75.5329514  59.9533796  56.1787796
  76.2868500  59.7383165  54.8840332  75.5660915  75.2460766  40.1965809
  75.7551146  76.0144997  39.6580362  74.6103716  75.1967096  40.2163935
  81.9312477  47.5089455  55.9197521  82.3361206  47.9967976  56.6369057
  82.0978832  48.0427361  55.1428747  16.4635110   7.0345426  62.4756908
  15.9581566   7.3063052  61.7095327  16.6254878   7.8464651  62.9560852
  63.0750418  14.9254227  63.6250639  62.4910975  14.2269623  63.3294344
  62.4879026  15.6006122  63.9650917  64.5784187   4.6474269  49.9195433
  63.9345741   4.0394762  50.2829838  65.3831959   4.1333023  49.8544168
  83.2185268  61.0206270  10.6168520  82.5158405  60.6073666  11.1185312
  83.8269424  61.3461828  11.2802315  51.0566711   0.8564962  42.4457455
  51.2883377  -0.0567750  42.6145601  50.6355953   1.1500600  43.2536745
   9.3487293  48.2888651   1.0407866   9.6883160  49.1591978   0.8323880
   9.5184922  48.1833553   1.9768849  15.1246369  31.4793253  27.5287127
  14.8728836  32.2185159  26.9751310  15.2406156  30.7513738  26.9180846
  37.1437931  77.6628780  59.3200970  36.3836336  78.0626631  59.7426653
  36.7711687  77.0329237  58.7032223  82.9756641  24.6690798  29.5359325
  82.9132748  25.6213069  29.4610763  82.9722786  24.3569613  28.6310577
   4.5315263  40.1559496  49.6958208   3.8092989  40.7806635  49.6298265
   4.8267901  40.0349855  48.7933683  15.9442604  38.4983659  34.9507666
  15.0549185  38.6155343  35.2847958  15.8249605  38.1217909  34.0788770
   1.8699923  39.5782185  20.5847979   0.9390323  39.7746325  20.6895185
   2.0893353  39.9140024  19.7156787  74.1231775   7.5654310  42.6521444
  74.6070004   7.9521960  43.3819056  73.2282543   7.4746644  42.9794121
  19.9290931  61.7893362  40.7371092  20.7360506  61.6277361  41.2259197
  20.2133060  61.8744993  39.8270535   9.7423828  56.3874769  48.7624645
   9.9349231  55.6510162  48.1821346  10.1157105  57.1477556  48.3165503
   6.3793170  55.8554697  51.5507030   5.5224764  56.2102795  51.7876959
   6.9120735  56.6263437  51.3553858  49.3377686   5.3677028  49.9540472
  48.7196875   6.0006398  49.5885420  49.8523617   5.0738943  49.2023134
   5.8094519  37.2568870   1.8697286   6.7596555  37.2835851   1.9821213
   5.6015974  38.0621815   1.3958859  20.4922771  50.5369234  53.4003925
  20.9168148  50.5542850  52.5426626  20.4469514  49.6079016  53.6264420
  80.6791496  32.3216105  30.4997897  81.4915085  32.7788377  30.7171440
  80.8487988  31.9249821  29.6453094  20.9478879  14.5055652  39.0928197
  20.8052325  15.0767326  39.8475718  21.8997073  14.4278491  39.0277791
  46.3970757  16.4609146  56.5472603  47.1659088  16.8689466  56.9455576
  46.7451811  15.7054126  56.0736847  45.9424925  53.9616299  18.5440969
  45.8910418  53.0273724  18.3422351  45.3406572  54.0814400  19.2787194
  74.8197460  59.1070747   1.8520975  74.4036579  59.9434948   2.0606750
  75.6802940  59.3468094   1.5082717  65.2225828  20.3635120  56.4131260
  65.6498289  20.6265235  55.5979443  64.3211842  20.1664996  56.1583662
  22.6636744  62.4882936  44.4710302  22.0630717  63.1322813  44.0958118
  23.5207558  62.9133320  44.4396114  74.1589975  30.3161979   0.0553553
  74.5211506  30.7088566   0.8496431  74.9127388  29.9182224  -0.3802117
  50.2242088  50.9584618  67.2412348  50.8137941  50.2799654  67.5702667
  49.4969940  50.4745865  66.8497515  28.2176781  69.8991060  59.7760487
  27.7548862  70.3089619  60.5068493  27.7085400  69.1123152  59.5811749
  46.4607286   0.8947472   5.2914119  47.1697712   1.4488482   5.6176889
  46.0389042   1.4208154   4.6120366  56.9307327   9.4783407  34.8804450
  57.1592045  10.1390827  35.5342436  55.9970379   9.6139437  34.7190213
  10.0810027  10.8995450  25.5958390  10.8709836  10.5056119  25.9659457
  10.3730989  11.7433763  25.2510786  74.2498970  67.4689579  54.9818468
  74.0719080  66.5992832  55.3399229  73.7602901  67.4942827  54.1597319
  24.9923992  74.6797752  39.4710422  25.4624104  74.8996353  40.2753925
  24.5409703  73.8604164  39.6737599  56.5793514  17.6152420  39.1888571
  56.9336557  17.9723811  38.3745170  56.2671661  18.3812618  39.6705079
  34.2072105  78.6491203  53.1968021  34.3383837  77.7028084  53.1374216
  34.4425368  78.8674212  54.0985775  69.7130394   6.2940073  37.2663999
  70.2939129   5.6915152  37.7309680  70.2427149   6.6263920  36.5416956
   7.6284730  41.8038845  64.5132637   7.0650530  41.3099432  63.9176035
   7.0761144  42.5200176  64.8267698   6.3550138  53.1676960  45.1212263
   6.1719000  53.4565973  44.2272234   5.5137169  53.2372427  45.5724621
  19.8382592  58.6471081  59.3674326  19.8817348  59.4650793  58.8721895
  19.0048349  58.6947060  59.8358011  23.0980420  73.5604525  13.4142900
  23.4052396  72.9679680  12.7281237  23.5267234  74.3940735  13.2205236
  11.8235803  28.0170202  43.2176256  11.8220007  28.7977028  43.7714863
  12.4743676  27.4405456  43.6181068   6.1182797   5.0442606  16.3431764
   5.7315308   5.9016621  16.1656380   5.4885924   4.4186553  15.9849250
  27.9106927  66.3355017  40.3594494  27.3516822  66.7695999  39.7150111
  27.6387429  65.4181242  40.3331566  36.7741942   5.5047423  45.8893299
  37.4738240   5.4626071  46.5412331  37.2046185   5.8244163  45.0963783
  80.3682709  51.5505934  15.5532849  79.8407173  52.2845745  15.2383423
  80.7088757  51.8454409  16.3978446   6.2987304  77.5204134  37.1588516
   6.1061764  76.9126511  37.8728390   7.2466302  77.6467085  37.2008944
  12.1936297  30.5244994  16.2728155  12.0086253  30.3589439  17.1972597
  12.7393866  29.7862935  16.0018337   3.1139195  50.3170109  61.4820385
   3.7830570  49.7445011  61.8571615   2.9948819  51.0063934  62.1353436
  24.9143481  74.5904970  29.9569964  25.0452948  73.6938524  29.6485853
  24.1275358  74.5444489  30.5001688  30.2272010  12.4715912  49.7650862
  30.1901913  11.6173863  49.3347454  29.3168044  12.6681769  49.9859095
   0.0567215  24.0237355  43.5885239  -0.1490020  23.9995193  44.5230436
   0.1182508  23.1033564  43.3328962  66.5126657  20.9574294  53.8646412
  66.2953472  20.9787273  52.9326773  67.4574184  20.8051896  53.8868570
  67.4676609  47.4475527  67.2179508  66.6661406  47.9594135  67.3265648
  67.7089167  47.1887064  68.1073475  67.8214025  75.4978132  63.0065012
  68.4275675  75.3624535  62.2781658  67.4224377  76.3499880  62.8308535
  11.5061450  48.8716221  68.2447672  10.7195926  49.4157648  68.2063675
  12.0577204  49.2940617  68.9032078  18.4933424  38.6533785  44.0143728
  19.0271831  37.8642011  44.1062593  17.9158938  38.4670711  43.2740545
  69.5296431   2.9416400  63.0362177  70.4311657   3.2630670  63.0228376
  69.2106390   3.0860108  62.1453619  64.1351032  61.3001585  31.3053846
  63.9882946  60.8074045  32.1127725  65.0346994  61.0886717  31.0559344
   6.5563554  34.6571493  29.4304943   6.6597897  34.9660182  28.5304213
   5.6241965  34.7696114  29.6166801   0.0196703  65.5200815  43.7148571
  -0.5220473  65.5197859  42.9256964   0.7539786  64.9443150  43.5015202
  51.7207527   7.3728657  27.2057533  51.7348099   7.3815823  28.1628108
  52.3806190   6.7235589  26.9624281   6.0153526  61.5299797  10.5337715
   5.7669860  60.6926727  10.1420212   5.1861000  61.9211769  10.8086085
  47.9572630  29.6318531   5.6722450  48.0646706  30.2469945   4.9467814
  48.7092304  29.7982240   6.2406635  18.3710933  68.1501532  26.1716032
  19.2393661  68.4830523  25.9446454  17.9496360  68.8752460  26.6329527
  44.6225119  21.8087029  53.6476517  45.2917528  22.1707273  53.0668879
  43.7936449  22.0132995  53.2148075  42.2954273  74.4374084  51.6580439
  43.1594229  74.1416454  51.9448662  42.0223713  75.0643969  52.3277855
   4.4551057   3.9494815  38.0069256   4.7656053   3.3089489  37.3669720
   3.5299248   4.0716663  37.7939868  19.0874279  59.5863152  18.8493979
  18.2517421  59.9271727  19.1682673  19.3246341  60.1696587  18.1285131
  19.9882269  51.8443346  45.1265001  20.1539850  52.3790503  45.9029293
  19.6531236  52.4625111  44.4770384  22.2814226  50.6290197  32.7256417
  21.4642692  50.3523827  33.1403303  22.7027154  49.8122215  32.4580860
  28.2760596  76.7915487  41.2422419  28.7820911  76.0030079  41.4381218
  28.6181760  77.0927525  40.4005384  69.9517345  50.6729364   1.4488699
  70.7225943  51.2150431   1.2811650  69.2605829  51.2993145   1.6637945
  77.7423811   8.5966247  43.8136482  77.3500395   9.3263787  43.3343172
  77.0352459   8.2662475  44.3677616  60.9311104  66.0936022  46.0792971
  61.3763475  65.6434822  45.3613901  61.5892267  66.6931915  46.4308643
  11.4571023  49.5025349  16.7988563  11.6435635  50.0692081  16.0502934
  12.0689142  48.7724161  16.7048120  35.5116773  70.4203415  39.3035889
  35.3983474  71.2545204  39.7591496  36.0111952  69.8793650  39.9151897
  10.5891454  35.3965068  47.8620672  11.4248478  35.8424091  47.9999161
  10.2324653  35.7960892  47.0687532  55.2486229   0.6256229  24.5012379
  54.9811220   0.2942894  23.6439776  54.4615602   1.0409683  24.8537326
  12.6870847  62.2254229  49.3063211  13.5241330  62.6787567  49.2059708
  12.0424592  62.8277540  48.9349937  65.0870323   5.7906049  66.8943930
  64.7800779   6.6473055  66.5976238  64.5466423   5.1630849  66.4143658
  77.0787811  38.2531571  46.0474300  77.8462410  38.1004190  45.4961443
  77.3986292  38.8157845  46.7526817  29.0167212  62.1474409  64.6522427
  29.3955112  62.0764112  63.7760544  28.1840730  62.5998878  64.5172548
  43.3718395  62.8774118  39.0974474  42.5297880  63.2260132  39.3901205
  43.4202909  63.1143475  38.1713009  60.5023575  12.0085049  48.1324387
  60.3144264  12.2450101  47.2241545  60.0186062  11.1945939  48.2730103
  56.9319725  45.1987553  57.7903509  56.4678049  45.9844637  58.0792236
  56.8490887  44.5885706  58.5231733   4.9307299  68.0323744  61.9993973
   4.8704028  68.6068583  62.7626514   4.2859301  68.3823824  61.3846159
  20.9792304  21.6078806  30.2609062  21.9085860  21.4575148  30.4338861
  20.7251000  22.2841883  30.8888054  27.5532842  75.3165770  66.1698675
  27.7945328  74.4147778  66.3814926  26.6473007  75.2572918  65.8666945
  74.5315075  13.9004791  48.1133461  74.8073673  14.2983854  47.2876358
  75.1474190  14.2422581  48.7614727  26.5946436  72.6341486  37.2082305
  25.9011889  73.1181622  37.6566553  26.2922716  72.5663280  36.3025808
  76.8794155  38.6040330   5.0792855  76.8905735  37.7350235   5.4804468
  77.1877098  38.4588861   4.1847917   8.1294119  48.1923628  66.5858269
   8.8372403  47.9493713  65.9890318   7.7561957  47.3571110  66.8674135
  13.1224620  71.4341116  65.3900671  13.4706759  72.2372246  65.0027847
  12.9339910  71.6685677  66.2987661  22.7247906  61.5365362  15.9809887
  22.1070623  61.8376446  16.6473055  22.2759604  60.8095980  15.5493152
  13.2658494  50.2822542  57.9510117  13.9527965  50.1532269  58.6049891
  13.5772383  49.8083353  57.1798611  61.3106155  70.5283880  52.4257040
  61.8982983  71.2828255  52.3846340  61.2476206  70.2242851  51.5202856
  30.7347226  22.8802299  29.0934658  30.8830214  23.7082028  28.6366272
  30.7843733  23.1068397  30.0221300  75.3443432  70.6025696  59.5976305
  76.0697317  70.4576969  58.9901304  75.7504559  70.5845881  60.4642248
  77.1576786   7.2902012  32.6873231  77.1589851   8.0351245  32.0862246
  76.9908524   7.6764894  33.5470819  59.1339016   0.5682378  21.0197735
  58.3550739   0.0273762  21.1506486  58.8311052   1.4640623  21.1682510
  50.5413914  64.9509192  61.9834852  49.8619461  65.4170895  61.4963818
  50.8188534  64.2487288  61.3951206  43.4024143  75.4929447  37.2925615
  42.5108004  75.8291578  37.3832083  43.8832140  75.8903408  38.0186033
  75.6887007  11.9259453  19.7622144  76.2542105  12.6034248  19.3914747
  76.2191677  11.1296570  19.7346437  58.9665937  66.5010262  33.4744501
  59.0609217  65.7480431  34.0578461  59.3399763  67.2328377  33.9656425
  23.5642862  78.0068254  43.2953978  22.9212928  77.3715591  43.6103964
  24.2233777  77.4777842  42.8460121   2.1941958  14.5611513  11.0536814
   1.9563931  13.6489403  10.8876920   3.1355947  14.5978642  10.8844125
  12.6253295  46.4779234  67.9168034  12.2787738  47.3137760  68.2290316
  12.6746321  45.9311724  68.7009382  12.4540091   9.5759219  61.0711861
  12.1659434  10.2015519  61.7358971  11.6429746   9.2546719  60.6771660
  47.0004797  78.8806438  58.2677269  47.0309687  78.7913227  57.3151922
  46.0677671  78.9471579  58.4723186  29.0054154  44.2673779  22.2790051
  29.2624354  44.6470547  21.4387560  28.3522630  44.8747253  22.6265001
  28.0782151   6.9249475  35.9504247  27.9580331   5.9967512  35.7498264
  28.3567667   7.3149467  35.1218462   9.5688254   7.0140058  41.0329247
   9.6602333   6.0648143  41.1160612  10.3649604   7.2925669  40.5803680
  20.8838010  64.0911961  11.5467477  21.2214637  64.9766588  11.4119399
  21.4659858  63.5319614  11.0324025  74.2938471  34.1260791  12.1985269
  73.6114740  34.1440344  11.5275002  74.5051289  35.0473022  12.3499775
  27.9476857  21.6984105  41.8244886  28.7953138  21.5411520  42.2404528
  28.1530380  22.2314072  41.0563850  78.7420034  41.8250942  39.3640327
  79.2733192  42.4257898  38.8414407  77.8741837  42.2284746  39.3840957
  56.2740183  58.1432581  57.4830484  55.9218168  58.4301615  56.6405106
  56.0358238  57.2178984  57.5396204  48.8341188  36.8600845  12.9137421
  49.5020056  36.3601422  13.3830154  48.0663681  36.2884450  12.9088831
  60.7004833  42.3482990  20.5004883  61.5465260  42.1724844  20.9122372
  60.8969307  42.9822206  19.8107183   0.9768910  65.8872700  60.2940655
   1.1607780  65.4712915  61.1363125   0.1456718  66.3425827  60.4282188
  20.9416103   5.5459577  30.4783320  21.3127017   6.3568807  30.8260751
  20.0357747   5.7694751  30.2644753   3.7968826   0.9185054  57.1030664
   3.8917741   1.8574053  56.9427681   2.9216129   0.7073230  56.7782021
  66.5998507  63.9655352  53.7984610  66.0779667  63.2132244  53.5193634
  66.4584255  64.0177059  54.7437191  21.0810804  77.8405380  22.8987551
  20.1769376  77.5452232  23.0062246  21.4939952  77.1594667  22.3678398
   1.9504814  17.9840982  55.8477879   1.3575724  17.2328675  55.8663034
   2.8134286  17.6127172  56.0311699  61.5714979  17.3576558  29.5875359
  62.2380924  16.9369233  29.0445232  60.8304024  17.4910867  28.9965940
  24.3530774  36.4558125   3.1300375  24.4290781  36.2818933   2.1918435
  23.6828399  37.1361995   3.1939790  12.5002694  36.2969160  43.0631638
  11.7301142  36.5440321  42.5512791  12.2827113  35.4371476  43.4233046
  19.1419232  11.5968537  15.8668041  18.6663389  11.8921173  15.0903559
  19.5329082  10.7631242  15.6055439  63.4235144  12.2951543  60.3851461
  63.1672859  12.2657895  59.4633436  64.3319178  11.9934893  60.3909588
  49.1874123  47.4952078  60.7662725  48.9752722  47.0246506  59.9601698
  49.2565918  48.4113455  60.4976892  51.5706253  78.9134121  61.9578934
  51.4550066  79.3366814  61.1071825  52.4060297  78.4519911  61.8842697
  27.2601104  31.2644625   6.4660370  27.2941566  31.5244627   5.5454540
  28.1744289  31.1149549   6.7066646  51.0516977   1.0206686  13.3138895
  51.4619255   1.2051820  12.4689639  51.0726595   1.8574828  13.7781465
  30.4302692  19.8274815  35.8812332  30.7817006  19.9274528  34.9965096
  31.0874939  20.2324271  36.4471889  12.1144128  48.6982393  27.3083520
  11.8726635  49.4894791  27.7897286  11.2795520  48.2741261  27.1099329
   1.2880373  17.9544365  15.9432423   1.3257369  17.1701002  15.3958619
   1.8940234  17.7742767  16.6619599  11.9256330   6.9580364  48.6225557
  12.4445462   6.7336905  49.3949747  12.3489130   6.4872265  47.9046392
  62.2214794  25.1682997  14.3939888  61.7738771  24.4017982  14.7522581
  61.7095089  25.4048729  13.6205864  32.8892994   4.9499387  20.3670621
  33.0172133   4.1583741  20.8898401  32.0583844   4.8061681  19.9141359
  21.5981102  21.9948101  21.0148692  21.7268968  21.3648868  21.7239857
  20.7122278  21.8200564  20.6972194  13.8508081  78.2633924  47.8661823
  13.5484731  78.4365749  46.9746494  13.0490136  78.2235384  48.3874989
  11.7279410  10.1344013  36.8023682  11.2091672   9.4569868  37.2362041
  11.0884023  10.6439340  36.3047767  80.2106571  73.0072451  32.7828050
  81.0718822  73.2525301  32.4446511  80.0892448  72.1023798  32.4952173
  79.6642160  12.1321404  20.2237344  79.8461580  11.3483298  19.7053051
  80.5280876  12.4589849  20.4749846  18.1152856  15.6021059  33.7238073
  18.0783367  16.4850676  33.3560514  18.9315486  15.2351797  33.3842325
   4.8584372  24.7380853  25.3593564   5.6516975  25.2381778  25.1673222
   4.4278011  25.2309489  26.0578322   1.9844337  61.7810440  37.5341439
   2.0108037  60.8676147  37.8190804   2.6309490  62.2225094  38.0849242
  25.7845974  58.8201427  16.5756917  26.1494660  59.0586758  15.7235146
  25.7866049  57.8629494  16.5776551   7.0377117  41.8446350  55.5411959
   7.8367734  41.3389063  55.6894207   7.1894574  42.2940445  54.7097874
  13.0510652  46.2308407  27.1641803  12.6804662  47.0990753  27.3224759
  13.9832878  46.3294029  27.3577714  68.0923176  13.6213350  13.6005878
  67.9505014  13.2206273  12.7429438  67.6309490  13.0475616  14.2122698
  69.2416239  78.8439131  60.0339460  70.1872349  78.7012339  59.9927711
  68.8617563  78.0250883  59.7154188  29.1903663  32.2922635  19.2648792
  29.1327500  31.3473916  19.4067633  30.0962925  32.4387908  18.9927387
  84.2629147  34.8239112  18.5918868  83.5306358  35.4389977  18.6327779
  84.9230957  35.2722883  18.0633593  76.1674213  46.6890287  16.3672364
  76.8200064  46.0121107  16.1879385  75.4120016  46.2094116  16.7071569
  79.1648960  13.6489522  64.7411442  78.2963133  13.7994170  65.1141739
  79.7551870  13.6651587  65.4944849  25.5581021  76.5329361  42.1095943
  26.4426231  76.6460228  41.7616510  25.6902385  76.1827326  42.9905748
  18.1973791  54.6056080  38.6344028  18.2521915  54.5809031  39.5897126
  18.9781511  55.0877619  38.3620858  10.2795637  55.6760836  11.8892574
  11.0296798  55.7239008  12.4819374   9.8088336  54.8884344  12.1617591
  26.8591189  47.1082926  20.9625626  27.0507550  46.7984486  21.8477225
  26.0345340  46.6802216  20.7322383  21.4452267   6.0199207   5.1716715
  20.6028748   5.6268638   4.9432352  21.5474081   6.7435157   4.5534474
   5.1913607  34.6238256  17.8349507   4.3082261  34.9289894  17.6271534
   5.0733721  34.0428233  18.5864472  37.8707266  49.8899937  15.7966244
  38.6333132  49.7285223  15.2410901  37.1658301  50.0945997  15.1822209
  73.6658764  47.6906061  31.2667370  74.1105413  47.5759888  30.4268765
  72.9465532  47.0594692  31.2449956  46.3839817  17.0968068  13.5166419
  45.7152224  17.4680185  12.9411459  47.2125053  17.4121869  13.1556511
   6.9147199  12.0440102  27.6085329   7.7788723  11.9155169  27.9996371
   6.8427557  11.3499331  26.9533157  18.5425746  20.6794095  15.0721157
  18.2515037  20.8771682  14.1819465  18.7723029  19.7504938  15.0481784
  26.3703012  49.9392986  58.1575632  25.9926414  49.2136097  58.6545324
  25.9968281  49.8491859  57.2808456  14.3871856  26.3012958  16.1710942
  13.5375607  25.9195042  15.9506297  14.9682355  26.0158873  15.4660022
  39.3423891  27.6539993  33.1060052  39.3872738  28.5092330  32.6784611
  39.2980719  27.0272589  32.3838806   6.3419026   7.8480452  24.7405386
   5.8377832   7.8763831  25.5537367   6.9798011   8.5561579  24.8293853
   5.5001855  40.1757526  30.5297589   5.5763817  40.0375271  29.5856619
   5.5823523  41.1229658  30.6405425  75.2814722  36.6885066  12.2708070
  75.3434277  37.6436400  12.2814584  76.1812687  36.3916278  12.1349120
   8.3533394  15.0875080  40.5462837   7.4125367  15.0204241  40.3831196
   8.5044628  14.5297039  41.3093376  76.3706493   6.3952619  18.6898494
  75.4993963   6.4406633  19.0836632  76.6572094   5.4953080  18.8454092
  66.0229111  41.6914034  38.8668275  65.9226990  41.3805866  39.7665977
  65.3055429  41.2756729  38.3885193  27.5408745  12.0687211  15.8645225
  28.1792259  12.1706796  16.5704572  26.6962385  12.0136070  16.3114941
   2.5341892  20.5655408  56.1251497   2.5203121  19.6103370  56.0649443
   3.2270825  20.8335304  55.5215645   3.1436530  24.7325969  40.6547165
   2.6177454  24.7928548  41.4522266   3.5948861  23.8916445  40.7283449
  14.0865910  43.6215162   8.3978564  13.5474634  44.3726397   8.1500971
  13.4950686  43.0551910   8.8934475  75.1985598  50.7704830  30.0133300
  74.2872143  50.5673552  29.8025584  75.1992798  50.9138966  30.9597254
  82.4616146  36.0354948  22.8000665  82.9527283  35.2265215  22.9435921
  81.9440460  36.1461878  23.5976291  10.9546340  28.3904362  37.3212528
  11.3907874  28.0073333  36.5601802  10.6213212  29.2313409  37.0081830
   2.3004498  17.0305419  39.4619226   2.7920464  16.9680977  38.6429811
   1.5239343  16.4899480  39.3169618  10.8155978  17.0719314  44.5469046
  11.1639524  16.2277579  44.2601061  10.6269646  17.5416720  43.7345028
  24.6851802  62.2733355  64.0004063  24.1178083  63.0062103  63.7612200
  24.3715882  61.5434551  63.4663963  60.7990408  40.1246214  60.6294298
  61.2597275  40.9514809  60.7719088  59.9309015  40.3842020  60.3209114
  13.9870381  25.3652906   7.4404877  13.8143802  24.4918680   7.7919930
  14.1532695  25.2200747   6.5090847  20.5244923  47.9465485  41.1811590
  20.5376363  47.3204947  41.9051170  20.5693674  48.8036776  41.6048813
  77.2168159  44.8037958  21.8155646  76.7452574  45.1691771  21.0669899
  77.2133493  43.8588715  21.6627932  16.2066758  45.8028984  34.0068483
  15.9825432  44.9106550  34.2712188  16.4698780  45.7220984  33.0900979
  24.6167469  17.3210931   5.4126918  25.4930449  17.2405922   5.7893300
  24.7683048  17.4222767   4.4729981  65.8573151  77.6616287  68.1769896
  66.3041639  77.7556515  69.0182495  66.5650082  77.6020432  67.5352287
  41.3745832  77.2678423  47.1361065  41.7401075  77.4762678  47.9958630
  40.4373789  77.1556091  47.2951078  29.1910076   1.3176046  42.3243332
  28.2543087   1.1210959  42.3098803  29.5097566   0.9058313  43.1274986
  32.1762800   8.7960088  61.1390209  32.0623803   7.8812039  61.3966846
  32.4786353   8.7534541  60.2318239  22.6407218  29.5194960  22.0538878
  22.0027065  28.8301682  21.8695045  23.2853079  29.1025472  22.6256323
   7.7244627  13.3079493  37.2499156   7.1452415  12.7153563  36.7707825
   7.1328312  13.9255071  37.6798296   2.4277686  74.9250793  37.7473259
   2.1888512  75.3057718  36.9022083   3.1199661  75.4962873  38.0802226
  20.6795120   5.7766515  47.0659447  20.4682469   4.9064946  47.4042130
  21.0422301   6.2444729  47.8181458  26.3311124  44.4360256  17.6913357
  25.7599664  43.9426279  17.1026230  25.7647848  44.6845341  18.4219170
  47.3388147  32.2136879  13.9671195  46.4036655  32.2728872  14.1626406
  47.3986006  31.5477824  13.2821178  77.9763079  21.8692040  11.8231082
  77.6043510  21.0207391  12.0639169  77.7800226  21.9608378  10.8907413
  16.3761556  37.0460367  57.7890444  15.6163108  36.4641356  57.7729464
  16.0099649  37.9134202  57.9616165  62.8427172  27.5560880  15.2969170
  62.0011997  27.9602456  15.5084193  62.6300144  26.6404605  15.1163244
  39.4651818  63.5762787   1.6670761  40.1429272  64.2519474   1.6478154
  39.8493624  62.8381252   1.1940366  14.1026425  20.7095504  46.5372038
  13.3869481  21.0113716  45.9778118  13.6744845  20.1769924  47.2074938
  79.3281174   9.5270193  35.7795739  79.4371319   8.6736822  35.3598547
  78.3962107   9.7236300  35.6840158  32.6616621  38.9793777  30.3203106
  33.2023573  39.4959879  29.7228241  32.0993495  39.6228647  30.7515407
  32.4802184  24.7030234  40.3704405  32.6830745  25.5872679  40.6757164
  32.4315953  24.7837591  39.4178939  23.1562424   9.6603549  15.9321392
  23.7149453   9.0020645  15.5189371  23.7636614  10.3382933  16.2282348
  77.0636845  48.6186695  25.2448869  76.7492008  48.6908722  24.3437099
  76.4247513  49.1095972  25.7615924  83.7975025  16.5931857  43.5434532
  83.4934902  15.6941867  43.6683893  83.5885429  16.7920256  42.6307487
  27.8154325   2.5096181   5.3773457  27.4942279   2.8728661   4.5520517
  28.0860043   3.2738683   5.8862120  19.7685480  40.0713348  36.6587257
  19.7754061  39.1389966  36.4420962  18.9639604  40.4037762  36.2607884
  34.1164804  78.0571651  46.2081671  33.9294195  77.2210121  46.6348839
  35.0192285  77.9727983  45.9013128  57.4267244  16.9951940  58.7352371
  57.8829288  17.1352291  57.9054785  56.4978600  17.0387042  58.5081816
  54.9286890   1.3342738  11.9386888  54.0425634   1.3441774  11.5768683
  54.9347830   0.5870926  12.5369477  75.5796671  33.7193155  23.9344883
  74.9059153  33.1319952  23.5919356  76.3941956  33.4033751  23.5433888
  57.4931860   5.7668149  68.7256813  56.7960978   6.3110995  68.3595371
  58.0084038   5.4946131  67.9662800  38.6621141  61.2791395  20.0089264
  38.2867527  62.1553421  20.0961566  38.7705851  61.1578655  19.0656567
  76.5971279  23.6824632  47.6297808  75.9977293  24.1013908  48.2473993
  77.2090054  24.3756771  47.3822021  76.3623285  47.8406620  38.7739515
  77.2578335  47.8243876  38.4362626  75.9997320  46.9883680  38.5323763
  42.4209404  64.3900537  56.6505480  42.6021385  63.6268425  56.1019945
  41.8886805  64.0478611  57.3687649  55.7006025  36.3288045   7.8635609
  55.6329918  35.8945489   7.0132184  54.9012518  36.0763431   8.3256567
  18.2053065  48.8159990  29.9871206  18.4642720  48.1474066  29.3529654
  18.1778371  49.6281147  29.4812083   7.0598274  16.7283881  43.9994907
   7.1332651  16.5647149  44.9397326   6.1943918  16.3933706  43.7649345
  77.5545359  17.2843480   3.8722596  77.2306681  18.1754398   4.0037793
  77.5391531  17.1615672   2.9230914  24.5593166  11.7302644   9.2638785
  24.5010281  12.1012080  10.1443529  25.4952478  11.7354059   9.0632886
   2.6884660  56.9694042  41.2204695   2.1816359  57.7649593  41.0578299
   2.6607281  56.4938259  40.3902388  24.6833420  34.7763133  44.0591908
  23.8391161  34.4353223  44.3545532  24.4722652  35.3042006  43.2891178
  25.4300928  37.8251290  38.8525510  26.1814165  38.1994796  38.3925462
  25.1101518  37.1373892  38.2686973  16.3536978  29.8632216  39.4429564
  15.8988500  30.5467582  39.9350142  15.7180190  29.5769811  38.7870526
  75.1662350  14.8676527  20.9414935  75.6703520  14.0778399  20.7457972
  75.8188343  15.4998493  21.2426138  19.9391747  22.4582529  36.2700534
  20.3368473  21.9203711  35.5853844  20.6506300  22.6227093  36.8889356
  34.2836213  73.8633394   1.8890229  34.8878789  74.1899967   1.2223871
  33.9799237  73.0229616   1.5458609   5.3028142  44.9164248  24.6994758
   6.1871421  44.5905590  24.8668265   4.7736526  44.5469809  25.4063916
  70.7725430  17.3569667  15.5614948  70.9714270  16.8785143  16.3663292
  70.4442787  16.6883624  14.9602914  24.4590592  22.2714448  26.0353589
  23.8253164  22.4380493  25.3376126  23.9594650  22.3825932  26.8442369
  83.3701420   0.5515048  63.7975168  82.6148129   0.8798875  63.3097982
  83.3135223   0.9866048  64.6482325  15.2932966  53.1505919  55.4815483
  14.4972110  52.9512882  55.9742546  15.8191824  52.3531866  55.5433798
   6.9736981  67.5252247   4.8242977   7.8981960  67.2823954   4.7735915
   6.5238166  66.7101240   5.0466621  38.2596970  22.9924345  39.5353436
  38.9863300  23.6084127  39.4415045  38.6176395  22.2783518  40.0627851
  20.8954740  26.4381409  22.4540591  21.2823248  25.8886313  23.1356883
  21.0296202  25.9454799  21.6444159   0.7572205  67.8246403  56.8369198
   0.6612439  68.4198141  57.5804186   1.4703761  68.1998014  56.3203049
  81.9296455  12.0985913  17.5894308  82.4308300  11.9952190  18.3983564
  81.7588520  13.0386758  17.5319660  24.4447756   4.6660453  37.5938821
  25.0729680   3.9493486  37.5047040  23.7701488   4.4757217  36.9420481
  54.5908737   4.2716712  59.8015738  55.3686762   4.1262564  60.3401899
  54.3406343   3.3978862  59.5013809  54.4573021  11.6535747  38.5287666
  54.5517302  10.7565618  38.8492107  54.5923805  12.1999621  39.3030071
   5.7597798  30.4087210  51.8438339   6.6182721  30.0461960  51.6252136
   5.7487422  31.2685513  51.4233589  37.9723406  30.0484347  36.0097766
  37.1283174  29.7982597  35.6339192  38.4598970  30.4225183  35.2758956
  79.8185110  53.3655262   2.2445202  79.6869898  52.4193859   2.3057821
  78.9671564  53.7407494   2.4695334  61.2331533  19.0407121  10.0321507
  61.1054611  18.0923462  10.0091767  61.5127325  19.2230797  10.9292614
  10.1483178  13.3041680  62.6982450   9.5560771  13.3506835  61.9476986
  10.5556035  14.1695750  62.7359533  75.3359842  59.6930170  29.5553613
  76.0005474  59.1738844  29.1024971  75.4243708  60.5711126  29.1847229
  18.0540931  22.7625966   1.5842302  17.1897018  22.7098083   1.1764647
  18.5326874  22.0136571   1.2288867   3.8045099  13.6829913  33.7109327
   3.2547453  13.2482708  34.3628597   3.2944709  13.6422157  32.9019642
  20.2435708  37.5319934  10.2443123  20.5599761  36.9299936   9.5707256
  21.0072827  38.0638981  10.4680336  48.9981699  31.2666583  63.5675430
  49.1036415  30.4751301  64.0953588  48.6479807  30.9535098  62.7335548
  20.5278778  19.9955666  22.6330185  19.9165833  19.7494841  21.9387627
  20.0062513  19.9608397  23.4348488   2.0284855  23.8651824   5.5357903
   2.4238029  24.6909142   5.8152992   1.1283720  23.9092588   5.8584118
  16.6043460  45.0882292  20.9609604  16.7333627  44.1433620  20.8784318
  17.1520948  45.4657745  20.2727294  50.6651163  64.3218374  13.2705021
  50.7667398  64.1909981  14.2132568  50.3505087  63.4787512  12.9442263
  80.1763725  46.2789965  40.0308561  79.3245697  45.8448648  40.0777102
  80.0180817  47.0605087  39.5013142  13.3068454  56.4966249  47.8689432
  13.4652865  56.1834526  48.7594795  13.8389719  55.9247684  47.3157215
  32.8426361  36.3198018  31.0857153  32.1797419  36.1076069  30.4286170
  32.9731274  37.2640038  30.9980631   9.2431748  33.4477687  29.4721079
   8.3977008  33.8551903  29.6602869   9.6316874  33.2935643  30.3332186
  80.7130814  11.6307640  55.8903027  81.2545776  10.8634949  56.0755301
  79.8156977  11.3315630  56.0366344  16.9651389  35.3773189  25.8660483
  17.3767066  36.2306976  25.7297087  16.6091001  35.1434302  25.0088644
   6.8001026  47.2078133  23.7033725   6.9361889  46.5125084  23.0597377
   6.3845539  46.7690516  24.4456935  77.6706553  28.9404011  22.7838659
  78.1998539  28.3606243  22.2361064  78.1840038  29.0478969  23.5845828
  17.4471772  16.1481762  30.4374981  17.8779757  16.4399981  29.6340752
  17.4126077  16.9302106  30.9883690  17.1207833  24.8474669  33.1315255
  17.4549353  25.6679845  33.4939146  16.3264000  25.0995064  32.6607132
  64.7495174  50.2299500  38.7502050  64.0571404  50.8876371  38.6847329
  64.5443201  49.7449112  39.5494962  83.6711979  40.0611830  34.0391660
  84.5673275  40.2275705  34.3315506  83.2013702  39.8140526  34.8356724
  68.1426620   3.7869492  60.6088400  68.2334852   4.6295652  61.0537910
  67.2144079   3.5696396  60.6945848  10.9499240  37.1346807   1.2262528
  10.1709270  36.9209528   0.7127185  11.5887964  37.4335909   0.5791617
  14.2109144  43.1716824  44.3113565  14.3747413  42.4007225  44.8545027
  15.0653636  43.3873701  43.9376879  11.8503964  29.6308351  40.9271955
  12.2727215  30.2849269  41.4840031  11.4742243  29.0003681  41.5413904
  13.7577367  25.0189233  66.1081696  13.1392562  24.3712854  65.7701206
  14.5988381  24.7695279  65.7253122  79.6295023  12.3494017  24.4664979
  79.1864586  11.8760526  23.7623072  78.9697695  12.9588604  24.7974682
  30.4529452  36.2584662  11.5657008  31.1272454  36.7924595  11.9857037
  29.8826170  36.8919039  11.1301351   4.0187326  25.6022787   9.2477906
   3.4755448  25.2640557   9.9596775   4.8475486  25.8326316   9.6675932
  60.5306149  26.2120414  63.0231094  61.1868525  26.4003730  63.6940193
  59.7468567  25.9693742  63.5161352  69.4088078   1.7982243  56.0261583
  68.7967014   2.2454993  55.4417801  68.8839674   1.1173485  56.4470863
  19.3747175  23.3117318  32.4845362  20.2105927  23.7769127  32.5184393
  18.7143636  23.9990449  32.5726509  82.8842831  13.7320077  26.2363791
  82.7267933  12.8857744  26.6550922  83.7976360  13.9335966  26.4397860
  65.2859163  17.2535801  51.4888525  66.0827923  17.0930088  50.9834433
  65.5473232  17.1138835  52.3990107   3.9216942  19.1964257  46.4524031
   4.8035830  19.4504237  46.1803913   3.5779709  19.9685121  46.9018126
  69.7222376   9.3542564  43.1346035  69.4703913   9.3018740  42.2126150
  68.9004183   9.5138669  43.5986805  17.0401025  16.9239008   5.2640337
  17.9086900  16.5313148   5.3515792  16.4614260  16.3357818   5.7492983
  76.9181013   7.8335762  56.5543652  76.4670753   7.8864384  55.7117414
  76.3646698   7.2622478  57.0868397  17.0080066  59.2742825  66.8080473
  17.7949297  58.7331295  66.7437363  17.1449399  59.9730778  66.1683893
  74.8161268  29.4308114  22.5562882  74.1683245  28.7811089  22.8291750
  75.6600523  29.0283060  22.7612448  81.4671707  17.1641767  28.1989050
  82.1660519  17.8075421  28.3167005  80.7302094  17.6708508  27.8577280
  20.7136607  17.4099493   1.5254810  20.7443333  17.1689212   0.5996318
  19.8704195  17.8505790   1.6304591  75.3986311   6.5315640  22.4350166
  75.5693340   7.2953045  21.8838429  76.1691475   5.9755790  22.3191929
  17.2067177  37.0728397  36.9425106  16.7910802  37.3680687  36.1323762
  18.1443739  37.0905185  36.7508817  51.3051605   4.5035645  24.4068766
  50.6012154   4.0452927  24.8658776  50.8931303   5.2990377  24.0697026
   0.9475036  35.2582836  61.7160892   1.0627327  35.9023523  62.4147511
   1.7739412  34.7757387  61.6964769   0.8719376  16.1730325  29.4164801
   0.0523888  15.9121430  28.9963531   0.6600192  16.9898093  29.8683643
  20.8424640  12.5321531  43.0763102  20.0578213  13.0750310  43.1528044
  20.5502343  11.7544723  42.6008654   9.9468440  35.5652761  31.3744211
  10.8385623  35.5342531  31.7209864   9.4487172  34.9770308  31.9419312
  22.6948857  32.2962713  19.4209087  23.4081888  32.9324079  19.3683755
  22.9914141  31.5592813  18.8869166  27.7742910  47.4557161  28.9090657
  26.9838643  46.9631481  29.1300559  28.4624505  47.0552254  29.4403625
  78.0587816  11.7147040  22.3883367  78.4532499  11.5755916  21.5273643
  78.0172729  12.6664221  22.4818254  83.1963062  45.4345465  37.1759176
  83.1388950  44.6981049  36.5671587  83.5935974  46.1385822  36.6633511
  68.1622076  14.6895742  59.0162659  68.9798021  15.1544213  59.1942835
  67.8582001  14.4014645  59.8769665  58.6174774  58.9264393  38.6045122
  58.5780907  59.8771143  38.7089157  59.5266390  58.7012720  38.8019061
  81.6512585  60.1445866  21.0104632  81.4288330  60.6918335  21.7636466
  81.8530273  59.2883492  21.3877845  62.6458836  41.6923285  40.4196453
  62.7569723  42.1130085  41.2722397  63.5343742  41.4603949  40.1494217
  16.8905163  39.2162728  31.0278416  16.4591944  39.6119070  30.2704334
  16.2997794  38.5140467  31.3001299  78.4004116  76.0939837  15.7764602
  78.1156254  76.4390087  16.6226780  78.8543177  75.2789164  15.9906197
  39.3927288  30.1021004  31.7212129  39.3599558  29.8173428  30.8079386
  40.3221416  30.2557015  31.8909979  13.3626544  14.8635721  64.3823290
  14.0848613  15.2253401  63.8687372  13.3704472  13.9279032  64.1805983
  13.8369095  10.4344130   5.8647931  13.5898018  10.8619881   6.6847622
  14.6345043   9.9500906   6.0781121   9.6710634  34.4100738  26.9340754
   9.8912656  34.1478896  27.8279448  10.2434397  35.1562023  26.7554402
  16.1370027   9.1126537   6.4492083  16.0348809   9.2961603   7.3830861
  17.0819819   9.0253466   6.3242066  72.1168089  29.8364425  20.8796048
  73.0653143  29.8168945  20.7523823  71.7907572  29.0987396  20.3641272
  23.2346201   6.7150939  12.1134698  23.3033442   7.6036680  12.4626768
  23.9421201   6.6546237  11.4715827   5.0016010  25.9244919  13.1225049
   4.5892781  26.6049194  13.6547077   5.8544964  25.7830453  13.5333502
  23.1733727  51.3713980  20.6846523  22.2851682  51.3391685  21.0400224
  23.4786510  50.4648829  20.7203126   7.1682447  30.5078363  36.4063430
   6.8012685  29.6927142  36.7485976   6.5140843  30.8213925  35.7818532
  26.5954900  64.2879009   4.6860203  25.6543374  64.3330050   4.8546249
  26.6620493  64.0214396   3.7690693   0.6972680  38.1583500  37.3459697
   0.1603507  38.9434195  37.2381854   1.5807493  38.4375572  37.1056867
   4.1288731  58.4161806  48.8242531   3.5222146  57.8801203  49.3349791
   4.9651101  57.9542398  48.8838196  12.7087092  39.9312091  18.8477731
  13.6247826  39.8922515  18.5729563  12.7382410  39.8130727  19.7971952
  13.8459337  65.0947094  38.3514380  13.5146308  64.4006109  37.7816129
  14.5816779  65.4706192  37.8681135  17.9839873  31.4961505  42.0430613
  17.1867728  31.8347430  41.6355848  18.6573434  31.5943241  41.3698721
  74.3375349  72.6511574  57.9402208  74.2506504  72.2938919  57.0564508
  74.6772909  71.9231081  58.4605455  51.2902546  61.1926174   3.5034791
  50.8177662  61.1772394   2.6711637  50.6029844  61.1728907   4.1694415
  14.9650884  62.3003006   8.0977380  14.8546124  61.7544603   8.8762546
  15.5805039  62.9816818   8.3683181  45.3313780  68.8597536  24.3233728
  45.6738663  68.3633947  25.0667191  46.1105299  69.1953754  23.8800788
  24.5358419  56.3316059  30.3232527  25.0455952  55.5681849  30.0520110
  25.1822209  57.0320082  30.4119325  19.5430768  43.0167866  36.7519283
  20.0007224  42.2070312  36.5259027  19.6563363  43.5780334  35.9848523
  33.2331705  45.0271225  26.9216251  33.5823274  45.6969929  27.5094962
  33.9746380  44.4454002  26.7541170  18.1491089  67.6460838  29.1884518
  18.4094250  67.7769232  28.2766676  17.5395870  66.9085836  29.1600442
  12.9954910  64.5418167  23.4910989  13.2264674  64.5660925  22.5625038
  12.1039116  64.8884439  23.5252833   4.9951869  49.1432238  39.9556017
   4.2970026  49.0543699  40.6043482   5.8037877  49.0596342  40.4609823
  46.1786032  13.9497674  43.0385780  45.9104013  13.3675539  42.3277140
  45.4193258  13.9828026  43.6205053   2.6087627  53.2162189  50.1093340
   1.9627523  53.2764959  50.8130884   2.1853873  53.6336422  49.3591738
  75.5153418  74.1410351   3.2975218  74.7450924  73.6621761   2.9915136
  76.0952282  73.4640980   3.6464038  68.6311817  54.5062923  41.2515259
  68.4998083  55.4035330  40.9450436  69.5799637  54.3817854  41.2283850
  27.2179079  69.9689865   7.0998085  27.2655225  70.5704069   6.3566691
  26.9852090  69.1258192   6.7110276  27.0504022  27.8846502  39.2123151
  26.2810755  28.2402825  39.6571708  27.3852706  27.2164202  39.8102784
  56.1496878  66.8373537  61.7076015  55.9170818  67.7653074  61.6754150
  55.3194904  66.3778257  61.5817404  38.7931132  67.4929476  48.0464506
  37.9735184  67.9739904  48.1608677  38.7112117  66.7381620  48.6293936
  66.8585634  67.9965782  45.5437374  67.7235031  67.6160717  45.6964636
  66.2483883  67.3648024  45.9242296  21.0678029  49.8180151  46.9255400
  20.8919024  50.6241751  46.4403677  21.9030309  49.9798727  47.3642063
  60.1810455  28.5263252   8.1341738  60.6419849  27.9938865   7.4858868
  60.7559490  29.2777324   8.2794434  27.0624495  53.1494474  35.1716256
  27.4616957  53.1303215  34.3018723  26.8623638  52.2332764  35.3635192
  34.9847269   6.5178871  21.4186049  34.2773533   6.0839468  20.9415841
  35.7694125   6.3352507  20.9017444   2.0459072  36.4027166  39.5882320
   1.7345278  37.0038700  38.9115548   1.9067664  36.8739486  40.4097033
   6.1399734  74.5338249  49.4312143   5.2239227  74.3651819  49.2106676
   6.1654907  75.4646349  49.6529770  71.8398809  13.3817971   8.9533681
  72.4362421  12.7440035   9.3455440  71.0621834  12.8730536   8.7240136
  80.8581448  76.7243099  45.2052927  81.7305660  76.8224382  44.8238754
  80.2839661  76.5738487  44.4543505  38.4347177  73.4831047  66.7433548
  37.8148246  73.0149317  66.1840916  39.1475654  72.8601217  66.8846750
   0.5499498  59.6814919  49.2755222   1.1448999  59.6675110  48.5258055
   0.3056275  60.6021261  49.3702602  17.4846256  53.8337564  35.0904417
  18.1074333  53.7330198  34.3705845  16.7095101  54.2214108  34.6840572
   0.9649403  49.3230915  16.6595662   0.5213882  49.8366499  17.3346591
   1.1602005  48.4875774  17.0838559  75.9888172  46.2657690  52.5568295
  76.4732409  45.6506252  52.0062256  75.2516031  45.7565022  52.8935671
   0.6558194  27.9607296  15.3907204   0.7894250  28.7103057  14.8106194
  -0.2104724  28.1041765  15.7717633  82.4795055  50.3779936  63.6047554
  82.5544071  50.9894705  62.8721428  82.7846241  49.5423603  63.2514143
  81.2613869  60.9059954  18.5230768  81.0043526  60.2184916  17.9086614
  81.3611507  60.4535913  19.3606973  15.8101666  45.1902533  36.9811177
  15.7672191  44.2517471  36.7978215  15.0113249  45.5469465  36.5927196
   0.4045004  21.2391233  43.2976961   0.4200539  21.2706184  42.3411417
   1.2904419  20.9723473  43.5429907  16.5203285  41.4064503  11.3924730
  16.2655807  40.9651661  12.2027838  15.9882903  40.9890938  10.7149923
   9.3648624  53.9616823  16.8972611   9.1285586  53.1472969  17.3412943
  10.2438283  53.8009930  16.5539980  21.3944650  55.6714773   0.9510261
  21.5428758  56.0367393   0.0787921  21.9935107  56.1562538   1.5188023
  64.4375658  64.4440937  51.1528873  65.3316069  64.2086744  51.4008856
  64.0323257  63.6141443  50.9014940   1.3216963  64.3408966  62.6543045
   0.9970982  64.0726519  63.5139036   2.0121321  63.7097502  62.4513626
  64.5057631  27.2039604  10.7047129  64.5143700  28.1437421  10.8862793
  63.6283827  27.0343161  10.3617001  40.3223276  50.0056505  18.0973101
  40.3995752  49.0869331  18.3546376  39.9510074  49.9769974  17.2155333
  33.4982038  47.3881578  12.5516474  33.8176680  47.6476336  13.4158492
  33.2949209  48.2145023  12.1133959  35.3358793  66.8878317  16.4776003
  35.3192735  67.5847292  15.8216310  35.6643414  67.3125744  17.2700250
   7.8550011  26.3557935   0.6076905   8.0086946  26.7570591   1.4630248
   8.0035394  27.0637608  -0.0191668  32.1735311  44.6205139  10.6936669
  31.9861007  44.4891500  11.6231000  32.5857019  45.4834270  10.6520808
  18.1716180  61.2190151  35.1366115  17.6370597  60.5428410  34.7203541
  18.0416727  61.0830307  36.0751486  72.4637079  67.5356817  22.1962094
  72.9792833  68.2680225  21.8584442  71.5647221  67.8638983  22.2143650
  67.3018980  46.5928221  38.4931326  66.6038084  46.6899347  39.1407943
  67.5955582  47.4875546  38.3215189   7.6781702  57.3482132  55.4003191
   7.7503288  56.5067291  54.9498367   7.3569000  57.1253777  56.2740231
  26.5905476  38.2687140  31.3190126  27.4035025  38.7100935  31.0730028
  26.7753792  37.8871989  32.1772170  31.5541649  36.7630005  36.6675234
  31.4357615  37.5759602  36.1762929  32.1880603  36.2627530  36.1535573
  22.2662187  38.6743307  25.0771165  21.6483903  38.4411144  25.7700324
  21.7297149  39.1089463  24.4141650  19.9347222  59.0320873  21.1967230
  19.6539187  59.1570091  20.2902055  20.8724117  58.8502789  21.1341119
   6.2889367  34.1485190  52.9762888   5.7439929  33.9863038  53.7463236
   7.1363527  33.7618852  53.1968164  21.9338870  55.9012794  16.0098588
  21.0627174  55.6756353  15.6837034  22.0438790  56.8240786  15.7805634
  79.9267864  25.5969048  23.2602882  79.8139858  24.7993946  22.7431011
  80.7785130  25.9395719  22.9894114   3.5374761  62.5106716  10.8756149
   3.4270772  63.2060051  11.5241158   2.6554632  62.1623373  10.7454300
  79.8426294  59.4636154   9.9314451  79.5601368  60.0007010  10.6716943
  79.0773153  58.9303541   9.7165877  28.4186506  46.1579418  11.6169965
  29.1733932  46.6614151  11.9221342  28.0363035  46.6959143  10.9237230
  65.4265928  45.0843477  18.4882176  65.3252792  45.0275755  19.4383466
  65.7483530  45.9726143  18.3343077  20.3723454   5.7939178  63.4569740
  21.0062122   5.5588877  62.7793264  20.6427836   5.2884966  64.2235518
  17.3774374  35.6073284  28.9381480  16.9085813  34.7761893  29.0130711
  18.1166887  35.5203962  29.5399642   6.9193691  51.0347652  18.9394736
   7.4341720  50.3881121  19.4222224   6.6588759  51.6757298  19.6009433
  71.4166927   4.2373019  66.3075638  72.1921682   4.7984040  66.3134766
  71.1581516   4.1957319  65.3868818  45.0339508  65.7540369  66.0041475
  44.1598320  65.4294252  66.2204313  45.5697775  65.5229664  66.7629099
  27.2640777  36.9610882  33.7775755  27.1507692  36.6561651  34.6778059
  27.1439600  36.1768007  33.2421350  12.1885955  18.2069981  34.4037485
  11.3982987  18.0880272  34.9305391  12.8551090  18.4861445  35.0314975
  36.1171150  49.2996025   4.1694495  36.3485622  48.4613562   4.5694506
  35.9338379  49.8763800   4.9110493   1.5973173   3.4258753  31.9422603
   2.1583542   3.5628989  32.7056026   2.1898657   3.4961236  31.1938047
  39.6466827  59.5691776   7.8290212  38.8863230  59.2774963   8.3320177
  40.2429676  58.8204813   7.8404486  66.5632725  69.9564075  33.7327528
  65.7677937  69.8319101  34.2503834  66.8223763  69.0716553  33.4752345
   9.5438451   3.7726021  47.0107365  10.4691744   3.5594848  47.1314764
   9.4224542   4.5925283  47.4895048  42.6249981  59.8576212  53.7750959
  43.1577539  60.6222486  53.5565805  43.2451963  59.2332697  54.1516209
  10.4705822   8.0915254  66.6755819  10.3650272   7.6093221  65.8554792
  11.4002073   8.0047256  66.8865156   8.8206953  36.5332770  18.7883115
   8.5351974  35.9538841  18.0818939   9.0137124  37.3639202  18.3535624
  19.5453203  57.9351044  23.6225557  19.8558426  58.1137323  22.7349186
  19.4714761  58.7986755  24.0287900  80.4563904  23.1457996  22.2757769
  81.1532879  22.8870893  22.8788090  79.9543858  22.3436570  22.1316075
  16.3316417  16.8987167  19.4504488  15.5913353  17.4288499  19.7456396
  15.9479225  16.0472846  19.2405570   2.6232338  60.3638506  18.3668995
   1.8424655  60.2089262  17.8352702   3.1777591  59.6003580  18.2062459
  82.9852295  36.3799286  15.0564063  82.9766273  36.9734025  14.3054426
  82.4055767  35.6622386  14.8011589   8.8891047  33.1004333  59.7635317
   8.4233660  33.0221915  60.5961180   8.7526697  34.0096831  59.4972944
  19.1740608  53.0623913  17.3131895  19.7611749  52.5870800  17.9010749
  19.7564888  53.4766245  16.6764641  35.3171062  67.4759769  26.5745139
  35.8819675  67.5910854  27.3386574  35.9209800  67.2845221  25.8569407
  52.1544075  25.7186151   3.1473717  53.0583334  25.9359670   2.9195285
  51.8185568  26.5072107   3.5734591  79.9083996  68.4954166  52.9942608
  80.1372337  68.0192518  52.1960545  80.7499790  68.7660646  53.3613014
  31.7266917  55.0010729  33.2479811  30.8052278  54.7955847  33.4058094
  32.0303583  54.3063021  32.6637578  79.1989088  46.5790415  19.0621901
  79.4209957  46.1723185  18.2246423  78.2515860  46.7098999  19.0211749
  65.7625294  48.9716291  15.8706784  66.3601923  49.7001266  15.7024038
  64.8891878  49.3494892  15.7670987  84.0013827  74.5693445  41.3218069
  84.2968771  74.5506334  40.4115534  84.6152191  73.9990759  41.7846584
  36.8951035  22.9935336  43.1581163  36.4516592  22.9070640  44.0019846
  37.0840383  22.0932579  42.8934717  19.7810900  74.1192007   8.0543917
  20.1507807  74.9122381   8.4425342  20.4156947  73.4330797   8.2611471
   2.1624306  36.0530233  10.8965683   2.8079671  36.1566615  11.5956926
   2.5965768  35.4961419  10.2503252   8.9830035  51.3444901  48.2183170
   8.4294921  50.9346390  47.5535727   9.4420129  52.0422983  47.7507639
  81.9491482  22.1825933  10.1647174  82.0431423  22.7732897  10.9120309
  82.8153992  22.1716785   9.7576177  82.3448563  67.6756191  56.2171173
  82.2323132  68.5448074  55.8323097  83.2028103  67.7102184  56.6401386
  10.4171705  21.3197923  14.1018391   9.4746524  21.3339543  13.9354360
  10.6873012  22.2350669  14.0274358   3.3828270  63.6881351  39.3055081
   3.1762946  63.3816290  40.1884747   4.1945738  64.1848803  39.4081712
  69.3967962  44.8807526  23.0124998  69.4987202  45.4300404  23.7897539
  68.5904312  45.1934099  22.6023197  11.3502884  17.8708577  40.0688744
  11.3805938  18.8169193  39.9264622  10.5692482  17.5824559  39.5966101
  65.5113649  21.1113930  41.5876293  66.4626312  21.0184884  41.6394854
  65.1704168  20.3119016  41.9886303  31.2945390  43.4265280  34.1266990
  31.0290551  44.3278837  34.3092227  30.4820824  42.9228497  34.1762185
  60.0487041   3.8921213  61.1761856  60.3297329   3.5503972  62.0249939
  60.0027847   4.8397961  61.3028145  33.2364893  33.3857012   4.1110721
  32.9736257  33.1931305   3.2110435  33.0210233  34.3106127   4.2308328
  70.0418377  57.0927143  21.7619658  69.6866703  56.4689207  21.1287427
  70.6341314  57.6430988  21.2496185  78.9960861  62.9463625   8.6540437
  78.0658579  63.1653643   8.7083161  79.0772295  62.4452829   7.8425217
   7.6866013  35.1483870  16.6641140   7.9243028  34.2653418  16.3813436
   6.7509049  35.0939298  16.8583786  63.0614614  39.9538398  24.6651268
  62.7072430  39.8143172  25.5433583  63.7817001  39.3272829  24.5950365
  38.0127335  77.3563337  33.1696892  38.5062504  77.0056152  32.4282932
  37.0961905  77.1975374  32.9439330   0.7722872  26.1791754  19.8039556
   0.6230851  26.8915296  20.4256654   0.2741477  25.4430151  20.1591420
  43.2512999  32.3880672  29.7785974  43.4670782  33.2977462  29.5732808
  42.8342009  32.0555902  28.9837885  37.3464870  66.6894484  20.3769445
  36.6837192  66.3423681  20.9740257  36.8675971  67.2996664  19.8161173
   2.2672506  76.1769772  31.5289474   1.6005895  75.9537697  30.8793545
   2.5016841  75.3395939  31.9290257  12.6346838  54.3062162  32.7980471
  12.1771848  55.1451445  32.8539562  12.1025538  53.7077999  33.3224201
  16.7367721  43.8391256  43.4152460  16.6085958  44.7391510  43.1156492
  17.4118400  43.4873629  42.8349209  49.8357248  35.9077835   7.5593311
  49.7526884  36.7743254   7.9573816  50.2529860  35.3729701   8.2346839
  47.5682926  74.0271807  22.6229787  47.0797825  74.1565943  23.4359002
  48.2856989  74.6590137  22.6714849  64.8575544  74.7185040  23.2396936
  65.4629898  74.8237133  22.5057936  65.4214478  74.5338202  23.9907932
  14.3130350  53.3684874  13.7660325  13.6961186  54.0893650  13.6396217
  14.0701616  52.7257490  13.0995989  81.2545490  49.6111774  27.4703860
  81.5309429  48.8965368  28.0440807  80.3414631  49.7706318  27.7093029
   9.6293664  77.0412636  21.6763377   8.9852011  77.4771023  21.1183715
   9.4041753  77.3190880  22.5642204   0.5906552  12.6916587  67.1137094
  -0.0942720  13.3600962  67.0964575   0.1355010  11.8768167  66.9013453
  22.6617289  63.8715315  66.3323498  23.3737040  64.0055275  66.9579458
  21.8653750  63.9250755  66.8607283  26.3252425  47.3834610  17.1014285
  25.7928467  47.5167656  16.3171971  26.0486746  46.5305614  17.4365449
   3.0853969  75.8281708  19.1857934   3.6326391  75.2561188  19.7238612
   2.9018843  76.5814257  19.7471845  78.8178396  47.5256062  37.7351880
  79.0907478  47.0830870  36.9314909  79.4821501  48.2005405  37.8743982
  83.9442348  30.4993892  49.1636896  83.5907841  31.2251306  49.6780825
  84.0540028  30.8604455  48.2840157  18.6238182  45.8885193  16.5946281
  18.2525659  46.3521528  15.8439970  19.3209267  46.4634705  16.9103920
   7.2251606  49.0072870  41.5994215   6.8103379  49.3333912  42.3980474
   7.3564279  48.0731678  41.7619658  15.2596104  29.9063325  48.9872646
  14.3645537  30.2404833  49.0459824  15.2233696  29.2445087  48.2966805
  13.0084598  66.1486721  34.8299956  13.7379706  66.3731050  34.2523479
  13.0283535  65.1930237  34.8807120   8.8461173  37.2382498  34.6793890
   9.7368318  37.4006009  34.9900365   8.5460162  36.4887261  35.1935720
  -0.1395961  77.2419834  23.5941768   0.2386986  76.5813684  24.1744471
   0.1413525  78.0775452  23.9671803  11.4854896   3.5813972  28.7827945
  11.3705540   3.1493255  29.6291614  12.1093786   4.2862588  28.9564753
  51.0965395  59.5484972  63.2157993  51.3015652  59.6523476  62.2866011
  50.9691572  60.4421186  63.5342979  25.4988980  68.4877825  62.4697781
  26.4485335  68.5345793  62.3591709  25.1455283  68.7514591  61.6201687
  40.5816793  29.0033889   6.6184556  41.3906384  28.9347148   7.1255100
  40.0176620  29.5715904   7.1431088  82.2818184  55.5848122  40.4936695
  82.0893669  56.2340832  41.1701632  82.0306969  56.0110617  39.6742320
  34.5913005  25.5295563  32.1784902  35.1800251  25.9431791  31.5471792
  35.0987411  24.8019719  32.5381541  81.3504887  61.0073948   8.4413898
  82.1679497  60.9157658   8.9308679  80.6939411  60.5768061   8.9888948
  19.0336168  43.0364275  42.0525551  19.2589855  43.2392120  41.1446333
  19.7204125  43.4574175  42.5695753   8.9835566  40.4672670  30.0997543
   9.8875946  40.2433252  29.8788571   8.4984356  39.6508598  29.9798942
  19.8081791  67.9437017  22.6683187  18.8620782  67.8261042  22.7537203
  20.1201177  67.1167421  22.3008060   7.2911716   6.4199138  20.4376888
   8.0576342   6.6648346  19.9192476   7.3585725   6.9516516  21.2307477
  33.7746906  56.4790583  16.7221749  33.3337736  57.1690321  17.2179163
  34.5970416  56.8772745  16.4368820  12.2752070  39.9525285  40.2066135
  12.8494513  39.4564342  39.6232057  12.0032501  40.7097197  39.6880269
  25.3983355  17.5934589  50.9268999  24.6877933  18.1508613  50.6096268
  24.9745393  16.7611313  51.1363268  60.6498766  69.2764854  68.0202770
  61.1904478  69.7760868  67.4083853  60.7107210  68.3727407  67.7108049
  83.5634422  59.9770403  46.4249754  83.2726860  59.7654867  47.3120689
  84.5191574  59.9632835  46.4764977  16.1921656  70.7510424  16.6874969
  17.0573020  71.0265255  16.3843775  16.3685906  70.0309181  17.2929108
   1.8741068  35.0812125  30.2979660   1.3023406  34.5773864  29.7187638
   2.7451211  34.9925995  29.9110365  82.3122597  23.9787769  16.6277885
  82.4978256  23.2049584  16.0958087  83.1684017  24.3824935  16.7701423
  19.6853662  38.5302281  32.3423767  18.8480163  38.8232303  31.9828987
  20.0704694  39.3183637  32.7254844  38.0915427  13.1523311  10.2399600
  38.3099318  13.0242133  11.1630666  37.7830529  14.0570879  10.1901555
  73.3078861  14.1877258  29.0179348  73.9090919  14.3816710  29.7370815
  73.3244705  13.2336402  28.9425826  15.1524031  64.8993301  40.8342695
  14.4763422  65.2740955  40.2697134  15.2960372  64.0199375  40.4845953
   4.6866810  46.6281366   7.9610568   5.4748321  46.4566374   7.4456555
   4.8826683  46.2672186   8.8256723  78.3854914  70.2087164  22.0543051
  77.6997662  70.7771301  21.7037058  77.9548216  69.3631029  22.1795845
  50.0218248   1.7926757   9.0412235  49.7440100   2.2948153   9.8073220
  50.6991291   2.3325294   8.6337328  25.6175423  36.9990468  29.0566301
  26.1291862  37.0511341  29.8639321  25.3996372  36.0709572  28.9706278
  10.6674969  54.3167210  47.2587347  11.3131750  54.6166372  46.6189051
  11.1737883  53.8005877  47.8860331  12.3247290  69.9701643  32.5743747
  11.8039286  70.4151726  31.9058180  12.0357561  69.0584564  32.5355482
   5.9668672  25.7542539   5.4500204   6.2410152  25.0559163   6.0444951
   6.5941870  26.4604950   5.6047022   0.5879817  44.8062420  30.3348589
   0.0295059  44.7787237  29.5579553   0.9406696  45.6960392  30.3449082
  11.2853014  60.8273220  26.5007186  11.9685030  61.3878059  26.8685842
  10.5570638  60.9011364  27.1175289   7.4833697  25.9194970  22.0024490
   8.1653863  26.5083480  22.3254657   6.9694740  25.6991792  22.7793670
  51.4353561  51.3699675  64.7373724  52.2856760  51.4363098  65.1718664
  50.8753967  50.9250116  65.3735256  39.6391773  58.0015755  15.1471961
  39.4888258  57.4523926  15.9166253  39.1325665  58.7957525  15.3170872
  11.5291321   9.7348315  48.3514071  11.3612986   8.8436383  48.6577368
  11.2923157   9.7179437  47.4241209  75.9344769  64.7275352  47.7539158
  76.5663290  65.4083204  47.9852629  76.4477730  63.9197540  47.7380657
  81.1793137  66.3757038  20.8022738  80.6928635  65.9304333  20.1084971
  81.9448280  66.7429447  20.3602791  13.0593324  51.1798906  35.3831768
  12.5038660  51.9111013  35.1129627  13.6928499  51.0847807  34.6719503
  30.2273536  45.0118017  27.8579426  29.7226596  44.9732447  28.6703634
  31.0250044  44.5179081  28.0478263  63.5807705  73.9760828   8.3512646
  63.6907101  74.6862793   7.7189946  63.0341721  74.3521404   9.0412253
  18.8816369  73.2862568  30.0180173  19.4452131  72.5130129  30.0445890
  18.7115097  73.4903526  30.9376001  20.1339054  56.0665894  44.7543526
  20.9322429  55.5707502  44.9361086  20.0647879  56.6844606  45.4821539
   6.2921113  29.4923973  31.1809802   5.4332519  29.1203690  31.3814425
   6.5009922  29.1567063  30.3092504  52.2652578  19.9200344  28.3497095
  52.8320694  20.3737903  28.9734602  52.7857399  19.8664498  27.5481725
  21.5451121  48.2121086  24.6013379  21.5995097  47.5712872  25.3102946
  22.4001956  48.6422968  24.6011949  10.5172479  62.9585218  34.2722821
   9.9906206  62.9804611  33.4732747  10.0538039  62.3502159  34.8479676
  20.2968788  52.4124432  31.1195779  20.6728530  51.5882063  31.4286232
  19.9090540  52.1957779  30.2717090  82.5875854  70.8739471  17.5411355
  81.7394733  70.7590055  17.1124983  83.1599808  71.2124777  16.8526638
  84.1161251  53.4112453  27.8256130  84.0168667  53.8725901  28.6584044
  83.2637691  53.5005236  27.3992777  26.6439080   5.8900970  51.8357849
  26.4479041   6.0492873  50.9124899  27.5552130   6.1645377  51.9379520
  35.3509188  61.0101175  28.1529164  35.8746982  61.8094969  28.0992842
  34.5306134  61.2312269  27.7119565  48.5169458   5.5551714  29.0488029
  49.4592810   5.5761707  29.2155385  48.1978607   4.8184142  29.5699596
  47.3268223  66.9172382  43.3941031  46.7689657  66.6080332  42.6803684
  47.6387310  66.1176634  43.8179207  12.4067259  50.6048679  52.4592972
  12.7355886  50.0048733  51.7899036  12.5043142  51.4741278  52.0705891
  53.5522270  58.5278463  31.6398787  53.3689213  58.7042713  30.7171082
  53.1891441  57.6556396  31.7936945  57.0854902  23.5081840  65.4833698
  56.1949348  23.8321924  65.6181192  56.9997787  22.5551271  65.5071688
   3.5325342  61.3322973  21.1260223   3.8252366  60.4767513  21.4400315
   3.5949510  61.2717533  20.1727819   9.1616988  54.6195364  36.7063475
   8.5312366  53.9041662  36.7899585   9.0973359  55.0936365  37.5353956
  14.6190834  48.1406832  46.0475397  14.5349264  47.3727369  45.4823828
  15.0978017  48.7773609  45.5167818  75.2469015  29.2727876  37.1683121
  76.0458422  29.2389154  37.6944089  74.8139477  30.0813842  37.4420929
  24.4394231  76.0200500  23.4424233  23.9934063  75.1731396  23.4486222
  23.9929295  76.5308332  24.1176844  43.6255789  20.6386065  59.6943426
  42.9666376  19.9443793  59.7033548  44.1143751  20.5154586  60.5080652
  74.2357111   7.7053708   4.9094456  74.8162174   8.3491653   5.3153658
  74.8222589   7.1299756   4.4184130  34.9138331  44.2879248  23.4123564
  35.2765298  44.0145922  24.2549539  35.2816367  45.1591969  23.2645822
  13.7922239  44.2542124  16.5306330  14.6334434  43.7987995  16.4962864
  13.2142365  43.6544275  17.0022440  56.7841434   3.0887401  24.3704534
  56.4162493   2.2162952  24.2300010  56.2408161   3.6668462  23.8348937
  60.1757526   4.4873720  41.3415956  60.9008217   5.0891799  41.5099239
  59.5771980   4.6220586  42.0763206  39.2618585  52.7582312  12.7384186
  38.3648205  52.5378180  12.9893577  39.3624449  52.3897600  11.8607271
  31.5954328  55.4277420   5.8760381  30.7245231  55.7903957   5.7140839
  32.1689987  56.1927843   5.9203857  54.9169970   0.4131298  32.5344753
  55.0328112   1.3121554  32.8419995  54.7411489  -0.0909856  33.3289409
  35.9596372  49.6795321  22.7891922  35.8498430  50.0776529  23.6527181
  36.6154432  50.2254105  22.3554087  13.5985458  48.4689045  19.8874152
  13.8959253  47.7080393  20.3862977  14.3612099  48.7298155  19.3711793
  25.3863764  77.9173183  10.9196377  25.8655190  77.9575825  10.0919712
  26.0181069  78.2098436  11.5765810  19.3919325  54.9091482  14.8538125
  19.3879497  54.4210291  14.0304303  18.8933432  55.7037878  14.6635842
  81.5504360  52.6434803  65.8046865  80.6669617  52.2949409  65.9239483
  81.9274521  52.1070004  65.1073456  12.5802386  38.9222121   7.5752795
  11.8572211  39.5311427   7.7258807  13.1481135  39.3743086   6.9512939
  27.9881406  61.0023975  49.8038673  28.6434317  60.3762531  49.4960165
  28.0528879  60.9670877  50.7582235  34.0705872  65.7635021  30.3803015
  34.1358399  66.7121506  30.2705646  33.1823158  65.6207418  30.7071424
   9.6889853   0.2373471  14.9946547   9.5774674  -0.1075919  14.1087580
   9.7511369   1.1851984  14.8765588  27.2216082  75.7372999  22.1559262
  26.6030979  76.3020754  22.6192904  28.0562830  76.2029934  22.2076869
  10.9131062  27.2015905  24.9940252  11.5555084  27.2501397  25.7019758
  10.4349601  26.3891053  25.1597834  24.4415307  75.8697033  46.8698215
  23.8735867  75.0992537  46.8787336  23.8514090  76.6042328  47.0384979
  11.4520609  76.6876888   9.4356543  11.7914391  76.8301630  10.3192568
  12.1799767  76.9200754   8.8591409  70.0919294  31.5443635  54.4365406
  69.5202875  31.0434842  53.8546658  70.9507847  31.5113306  54.0152311
  23.5169005  62.0632935   8.2588774  23.1444716  61.2624836   7.8897852
  23.6441779  61.8629885   9.1861910  34.7058463  72.6007748  44.3538046
  35.0829887  73.4778833  44.2853832  35.2024651  72.1806335  45.0559998
  53.3137226  79.1552067  50.4161549  53.0810833  79.2231369  49.4901466
  53.7731552  79.9726677  50.6082821  79.4594431  76.7486715  32.4274158
  79.4141054  77.1371269  33.3010769  80.3399658  76.9596195  32.1169019
  32.9788971   0.2952661  14.2407131  33.5218811   0.0358508  14.9850953
  33.5815167   0.3066286  13.4971070  68.6325073  73.2287788  22.9148912
  69.3746901  73.6552429  23.3432865  68.2845259  72.6315928  23.5770893
  56.1170053  64.1172075  51.4300060  56.2312460  64.5553923  52.2733164
  56.9828415  64.1510296  51.0232830  63.0304384  36.0753202  60.1997328
  63.9118338  35.9697032  59.8416567  63.1686163  36.4503455  61.0694981
  77.2631836  49.9903059  44.4120598  76.8426180  50.0816202  45.2670527
  77.1261311  49.0732527  44.1744423  51.8822718  12.9954326  32.6313734
  51.9652224  12.1385801  33.0498886  52.5290680  12.9810417  31.9259119
  22.6339912  64.6157265  21.8150878  23.1113410  65.3429890  21.4157605
  23.0704594  64.4753790  22.6553440  40.7341194  65.3733349   8.2497770
  40.7485151  64.6914244   7.5781929  40.2008152  66.0718536   7.8704578
   8.6274713  48.7074709  14.9703944   8.6279595  49.6404076  14.7562432
   8.7432820  48.2682610  14.1278291  28.3694649  26.0632944  41.2411547
  29.0039134  25.4832625  40.8201170  28.5443902  25.9701324  42.1776104
  29.4042945  46.1038780  25.2465868  30.0648069  46.6271448  24.7925496
  29.8495865  45.7847309  26.0315013  74.5821571   5.1915210  46.2396049
  75.3839874   5.0354427  46.7385483  73.9351606   4.6091613  46.6377020
  18.2604885  41.2389088  44.2400789  18.1220734  41.6191053  43.3726025
  18.0498886  40.3114986  44.1315031   3.1642860  38.6902881  65.8719778
   3.5726452  39.4058061  66.3593245   2.7890465  38.1244612  66.5467119
  15.1533282  56.3663626  17.7937996  15.7250369  57.0673752  17.4808168
  15.4827785  55.5779982  17.3623204  46.0081387  77.5925112  65.4455662
  46.4580822  77.0507717  64.7972584  46.7114067  78.0578995  65.8984041
   7.3805457  19.7976601  65.8022976   7.6898581  19.5046389  66.6594410
   6.9344002  20.6258965  65.9789658  15.1746166  79.6009445  58.9337254
  14.3480301  79.5578861  59.4144869  15.2598560  78.7390327  58.5262108
  66.1991787  75.2902508  11.5007794  66.4928341  76.1091709  11.8999851
  65.9351778  75.5370426  10.6144226  45.9925222  60.4683447  26.2423539
  45.2417898  60.8983707  26.6518760  45.6108809  59.9271584  25.5511904
  83.0130577  11.4078796  44.3978739  83.9247704  11.1253393  44.4698286
  82.5496864  10.8921838  45.0578642  32.1483922  49.6662140  23.4124541
  31.3535976  49.6362925  22.8798795  32.6954150  50.3280449  22.9893970
  37.6349902  43.3489132  30.7575488  37.7290845  43.1040239  29.8370028
  36.7917252  43.7997961  30.8004570  36.0939503  64.4402790  15.5226767
  35.3856516  64.0790653  14.9896944  35.9424639  65.3853750  15.5136263
  48.1144714  75.8313036  44.2410755  48.9920330  76.2069321  44.3119669
  47.8994846  75.5550909  45.1319838  23.3699298  60.5290508  30.1000667
  22.4706483  60.7194901  30.3670049  23.7565351  61.3881779  29.9307275
  61.3459969   0.7891836  12.4126291  60.9813929   0.2863037  13.1409204
  60.6213140   1.3389908  12.1146762  20.0575304  56.9275570  33.6509395
  19.2172194  57.3767805  33.5597920  20.5766010  57.2376060  32.9088712
  78.1489468  24.3297386   4.3456388  77.6710796  23.7732673   3.7306479
  77.6288795  24.3008041   5.1487136  54.5285702  18.5104871  26.7348647
  54.3085003  17.8459632  27.3877120  54.4871235  18.0472803  25.8982325
  47.7532053  15.4422784  19.9638009  47.5351667  15.6756127  20.8661556
  48.6646843  15.7152915  19.8593771  50.2543592  74.9760056  34.5506144
  49.9407768  74.6512938  35.3946853  50.4123831  74.1859770  34.0337825
  31.7338037  47.1046734  21.0838270  32.3499584  46.7132282  20.4646683
  30.9845471  47.3612881  20.5462456  11.5834427  17.9442286  22.6325178
  10.9666634  17.6693892  21.9540787  11.6312218  18.8958907  22.5414824
   1.2629284  78.7736082  46.2738943   1.7856118  78.5507011  45.5036020
   0.6638406  78.0344868  46.3788939  69.5132637  14.2042279  16.4449394
  69.2518330  13.6605620  17.1881175  68.6903429  14.5522761  16.1015832
  27.8560805  41.7223930  18.2309449  27.3585773  41.3293695  17.5138283
  27.8727293  42.6573896  18.0266535  47.2515488  75.3022623   5.9022105
  47.7372503  75.0390434   6.6839021  47.3620844  74.5713425   5.2941191
   1.8634479  56.9359303  66.1504221   1.3532753  56.6865778  65.3798485
   1.6089496  56.3025045  66.8214130  53.3044100   9.8930633  30.6994224
  53.7928629   9.1378695  31.0270333  53.9206696  10.6227458  30.7628489
  19.7640967  49.4118595  32.3167753  19.2362273  49.2074347  33.0886531
  19.2214096  49.1400003  31.5766287  29.4537091  57.1592379   5.6840974
  29.5297146  57.5370121   6.5603065  29.0886736  57.8646946   5.1499552
  81.5625000   7.6499820  42.9651308  81.1971951   7.6672691  43.8497114
  80.8088779   7.4869871  42.3979187  29.4313264  60.0615168  56.1184216
  29.7867990  59.5555925  55.3877258  28.6562419  59.5720863  56.3939857
  26.4480138  52.7757931  14.1235423  26.7716408  52.5250530  14.9887753
  27.2127128  52.7053547  13.5521364  72.1547318   5.6200522  41.0003805
  72.2147989   6.5515333  41.2124348  72.9866362   5.4177338  40.5723190
  41.1199570  52.6022768  15.1547384  40.8214664  52.7383995  14.2555118
  40.6793070  53.2858944  15.6594431  68.3454657  12.1476185  20.5988550
  68.9664602  12.1195471  21.3267374  68.1163120  11.2312376  20.4440498
   9.5569402  74.0596581  31.6090274   8.9034784  74.7582769  31.5750456
  10.2542436  74.4106722  32.1629143  25.8460259  65.8065796  38.4116435
  26.3496470  65.0549793  38.0990934  25.1170349  65.4210520  38.8976169
  61.2671375  65.0313473  27.8393435  61.9255543  65.3769112  28.4420919
  61.7739296  64.5816040  27.1632314  67.2770405  58.8210344  38.2589054
  67.5073147  59.4547272  38.9383483  66.3627148  58.6006737  38.4368873
  39.6342945   6.7255771  21.1680555  39.2805505   7.6083148  21.2770081
  40.5755758   6.8255079  21.3103175  34.8284316  75.6134653   3.8760105
  34.3795943  74.9327564   3.3745971  35.3882122  75.1322842   4.4853920
  58.6441231   6.6421449  39.8903728  59.3295670   5.9743541  39.9117374
  58.8321972   7.1533161  39.1032481  59.3941355  63.1362534  58.7361050
  59.8645401  63.6546946  58.0832863  59.6093988  62.2285843  58.5215712
   8.5672277  14.7370684  52.7395964   9.2782903  15.3556192  52.9069805
   8.3496660  14.3831730  53.6019516  10.3731859  20.5913782  61.6606331
   9.7205210  20.9933591  61.0873318   9.8594832  20.1675868  62.3481941
  59.1852474  76.3250685  25.8685946  58.7908936  75.6098366  26.3677573
  59.1332150  77.0817852  26.4524651  15.2852285  60.1997614  34.7300982
  15.0220752  59.4182301  34.2441082  14.5815921  60.8289194  34.5710778
   7.1012622  46.9492579  38.6913848   8.0082625  47.2545958  38.7101889
   6.5786946  47.7441549  38.7976575  35.3494596  77.1831751  29.5307779
  34.6600056  77.7590370  29.2002225  35.6217217  76.6731310  28.7679148
  30.1198196  59.0916443  34.9470735  30.5345774  59.9140978  34.6867275
  30.5381322  58.4282351  34.3983197  31.6068935  75.4253387   6.2541974
  32.0138216  74.5729494   6.4093471  32.3253250  76.0523939   6.3372284
  34.0515304  66.5419531  65.2795458  33.5438633  65.9948492  64.6802235
  33.7038136  66.3337326  66.1467028  14.6170425  55.2558374  42.8848982
  15.3569674  55.7570744  43.2276869  14.3473017  54.6977949  43.6143208
  14.1282415  48.2067156  38.5626936  13.4890246  48.6651278  38.0172634
  13.6219573  47.5234985  39.0021467   5.3798997  60.2909899  37.9442525
   6.2708819  60.1423073  38.2609177   4.8747334  60.4865265  38.7334299
  16.1227703   1.3969715  50.0903702  16.8080378   0.8243256  49.7458220
  15.3522778   1.1946011  49.5596933  36.0170531  74.7226143  14.9188125
  36.6084266  74.3358135  15.5644846  36.4931703  74.6609449  14.0907168
  24.2361426  64.6064806  60.9691381  24.0067673  64.6257114  61.8982458
  24.7164583  63.7860107  60.8579445  53.6405706  78.4103584  15.6441367
  52.8775501  78.8935804  15.9611940  53.8149405  78.7793493  14.7783017
   7.1395546  76.0549116  19.3575311   8.0739987  75.8619070  19.4336605
   6.8525612  75.5524874  18.5950100  21.1814499  62.9904079  18.3528078
  22.0709991  63.1864786  18.6469054  20.7804251  62.5324774  19.0915298
  37.5923395  20.0155926  15.2287829  37.3581672  19.1179836  14.9927878
  38.4293008  20.1680064  14.7900379  17.3549759  12.3677111  59.3419600
  17.7535665  11.5439856  59.0611935  17.0164502  12.1835697  60.2181578
  44.7317219  52.3265791  22.3715758  45.3494453  52.0834923  21.6819668
  44.6527433  51.5395880  22.9106903  75.0133705   4.3061313  52.5427628
  74.2158937   4.2420590  53.0682707  74.9842882   3.5404935  51.9690132
  40.7549477  63.9089632  18.2460272  40.7944536  62.9841042  18.0024898
  40.9914160  64.3777084  17.4456573  57.4544477  72.5753641  34.4656920
  56.9748688  72.5756359  33.6372995  56.9080353  72.0595026  35.0586104
  72.5946283   7.5862801  52.6491976  72.2594786   8.4408009  52.3777246
  72.4273729   7.0143944  51.9000626  28.5886002  36.4407802  23.4042525
  28.1525087  36.5840745  22.5642991  29.3438768  37.0285130  23.3853364
  33.6435509  48.7205458  27.1445727  33.6414599  48.1824875  26.3529134
  33.7718678  48.0958652  27.8583956   2.6298606  48.6528206  33.5957336
   1.9270259  48.0148745  33.7193680   2.4732736  49.3151522  34.2688060
  23.1797457  77.1798754  25.7942486  22.8012943  76.6198301  26.4720058
  22.6170731  77.9541349  25.7815814  83.2937145  17.2379506  41.0841894
  83.6267567  17.8384793  40.4173470  82.9672813  16.4869082  40.5886030
  17.2311866  57.3696804  26.4935565  17.9019737  57.6767397  25.8836484
  17.6134872  57.5088739  27.3599887  30.0016546  67.5420570  29.3335009
  30.9029913  67.7780914  29.5528436  30.0870109  66.8984222  28.6301661
  27.0504594  33.4690881  44.5234394  26.5283227  32.7250957  44.8235798
  26.4064407  34.1480565  44.3222666  30.0681305  23.6026311  41.0209513
  29.7097111  23.6274242  40.1337337  30.9576464  23.9441609  40.9295511
  63.5520697  54.0025806  14.2521000  63.6446047  54.6683455  13.5706115
  64.3691587  53.5054684  14.2138159  73.9298487  71.0724068  31.5527749
  74.2840672  70.9027338  32.4256849  73.0394506  71.3854218  31.7122912
  62.7141237   6.7065746  38.8022995  62.7135420   7.6046687  38.4711528
  62.8448772   6.7993397  39.7459793  17.4704504  72.2800732  22.2178006
  17.1713853  72.2963285  21.3086653  17.0108652  73.0092049  22.6341939
  34.8916364  58.1155109  11.4314973  34.1645360  58.0868673  10.8096170
  35.6199002  57.7022743  10.9677076  32.8437567  78.2553864  57.5396919
  33.5630441  78.5112381  56.9622850  33.2297039  78.2510853  58.4156227
  51.0225677  77.8858852  40.0404263  50.1105022  77.7082968  40.2702808
  51.5261507  77.5505686  40.7821846  10.5934024  11.8331921  67.5151682
  11.4328754  12.2580063  67.3389578  10.3126419  11.4955366  66.6646433
  42.7118635  59.8733044  22.3659062  41.9564533  60.4055452  22.1162868
  42.4963903  58.9926958  22.0587683  54.5360804   0.9214905   5.7442725
  53.6878204   0.4793715   5.7093686  54.6981001   1.2003379   4.8430362
  36.3266134  75.1875162  27.1702147  36.0996652  74.3330622  27.5371432
  37.2499132  75.1077271  26.9306684  42.6025677  76.1219120   6.8422771
  43.4278345  76.3697910   6.4254701  42.7720976  76.2097931   7.7802372
  32.8604412  52.9386806   4.1292325  33.0062294  53.8337946   4.4354203
  33.0126810  52.9806995   3.1851512   2.0599630  69.1818857  40.9139204
   1.7801891  68.3359337  40.5641747   2.9491472  69.2973423  40.5788755
  32.3218465  61.0999680  20.1476455  31.6961694  61.5280676  19.5632720
  31.8840408  60.2925777  20.4172373  17.8785419  57.7665710  40.1354074
  18.0901432  58.3019352  40.9001589  18.6447060  57.8470421  39.5672965
  36.3454175  64.7703075  29.2496800  37.0161080  64.8230886  29.9305773
  35.5618882  65.1406765  29.6560502  70.2300119  47.7073717  18.4279871
  69.6609306  48.4706211  18.5271037  69.6787882  46.9641829  18.6730468
  39.0176725  23.6805344  57.6293421  38.7034822  24.1691065  56.8685436
  39.8948812  24.0276551  57.7913332  28.1409502  16.1538708  33.1207538
  27.5657201  15.5643213  33.6083722  28.9280963  16.2216866  33.6611581
  58.6166763   8.8315612  41.4394331  58.7148094   7.9081631  41.2071848
  58.1988049   9.2277449  40.6748056  23.1814098  71.7111921  27.6528001
  23.0345225  70.7676935  27.5859642  23.6624670  71.8211889  28.4729958
  78.0093336  43.0626440  43.0897045  77.7578211  43.4614944  43.9227057
  77.6920652  42.1615744  43.1501293  70.2131271  36.7034173  67.0594311
  70.7559347  37.3120332  67.5606108  70.7420492  36.4874196  66.2914324
  29.0954661  45.4096651  19.6849442  29.7613311  45.6886673  19.0564430
  28.3355951  45.9573507  19.4878042   7.5698447  48.9897537   4.5745435
   8.4010142  48.6092854   4.2905837   7.5812030  48.9055634   5.5279660
  30.1477790  28.0124283  16.4233744  30.4915810  27.5860596  15.6383634
  30.8561134  28.5871744  16.7134786  74.7167730  65.5812836  51.7667007
  74.5160484  64.7053385  52.0963430  75.6413078  65.5392027  51.5223742
  68.6496925  55.5137634  24.4968843  67.9667854  55.2021599  25.0908327
  68.1968117  55.6585026  23.6661124  20.2504706  68.0529737  46.3326120
  19.9800634  68.5614347  47.0971870  20.9192228  67.4552107  46.6667986
  40.4189062  70.5269623  26.1780739  40.1217604  69.7780752  25.6612563
  41.3598299  70.5762053  26.0093355  -0.0958509  63.6745787   2.4471140
   0.3685886  64.2020416   1.7972596   0.4073920  63.7898779   3.2531440
   7.4564284  65.1403856   7.4614483   7.1443701  65.3429651   8.3433855
   8.1291080  64.4722319   7.5929862  83.1762505  56.0363913  34.2413783
  82.2426414  55.8722878  34.3743134  83.6007309  55.6310177  34.9974990
  63.0674171   2.8122276  12.1878707  62.6245165   1.9931045  12.4094772
  63.4255743   2.6617798  11.3130462  24.0891862  50.4137564  24.2368746
  25.0280905  50.4283047  24.4225502  23.6846066  50.7901144  25.0184751
  83.2180214  67.9930401  15.5329466  82.7647018  68.8024426  15.2971435
  82.6789284  67.6093626  16.2246060  30.0464916  61.7211866  62.2281027
  30.4561400  62.0084524  61.4120770  29.6699786  60.8663273  62.0191050
  40.8325768  62.7389956  25.3505516  40.6274605  62.5068378  24.4448686
  40.5665541  63.6551237  25.4290986  60.0157928   1.0798372  27.0759988
  59.5945406   1.2392326  26.2313890  60.3521395   1.9358483  27.3412299
  36.7933893  46.3117743  19.7037065  37.3281598  45.5302143  19.8430586
  37.3798800  46.9282389  19.2652667  51.7639160  48.6314154   1.5804841
  51.6739607  49.5704651   1.7427355  51.5253639  48.2208252   2.4115910
  45.2445316  70.8501625  11.9695485  45.6781483  70.2174902  12.5422060
  45.3724194  71.6934347  12.4040186  78.2414818  47.0839596  65.8200884
  77.2856903  47.1358299  65.8212757  78.5295486  47.9765892  65.6291294
   4.6951264  58.4990406  17.9181170   5.6048381  58.5782623  17.6310980
   4.2297173  58.1674147  17.1502280   1.9835374  47.6386070  51.5719175
   2.0040862  46.7429686  51.9090223   2.8500009  47.9909658  51.7751789
  53.1690216   9.0202165  13.2810402  53.4284592   8.4172285  12.5843847
  52.2175503   9.0854657  13.1993186  50.1159811  74.0272856  30.7579231
  50.1165915  74.8916292  31.1691928  50.2212000  73.4153414  31.4864063
  71.7900610  41.8759918  50.8714962  71.8198729  41.5704727  49.9648571
  72.1323633  42.7691364  50.8346510  33.0935907   9.9785089  34.4249249
  33.1816411   9.9040782  33.4746933  33.3383441  10.8835256  34.6179843
   7.7291822  47.8207350  17.4538374   7.7669531  46.8786955  17.2884262
   8.0938637  48.2176161  16.6628098  40.0405693  44.8170805  24.6347976
  39.5185971  45.0276852  25.4090214  40.7519293  44.2696190  24.9671865
  68.1673574  73.6325645  35.2101207  68.3820581  72.7792692  34.8332572
  67.2360802  73.7497997  35.0224638  32.5910234  43.6396694  31.8632603
  32.1167588  43.7578154  32.6862717  33.3598471  44.2037344  31.9467640
  53.2010698  11.6945219  36.0859489  53.6449337  11.7241740  36.9334960
  52.5789928  12.4214077  36.1158037  82.8040123   9.5389599  56.6673088
  83.2443047   9.3819493  57.5026083  83.5132980   9.7397166  56.0567093
  76.3745213  18.3796203  67.5500822  76.1936617  18.7997210  66.7092276
  76.2669992  19.0786397  68.1950998  74.2094040  14.8593605   2.1697554
  74.9642181  15.2017260   1.6909336  73.8582277  15.6173968   2.6369673
  13.8983393  61.9544315  29.8031044  14.3440032  62.6068068  30.3434968
  13.0177605  62.3082066  29.6779847  73.8474512  32.0267844  23.0437994
  73.4791183  32.2209239  22.1818995  74.4340372  31.2857294  22.8921938
  72.4715424   9.9872953  26.0066962  73.1917429   9.8491710  25.3915000
  71.9432449   9.1919279  25.9394622  21.3733435  48.3993053  20.2960229
  20.7189631  48.4897375  20.9887266  22.2056675  48.5967016  20.7255650
  52.3634958  71.7683125  44.3477917  52.6843214  71.9851255  45.2231741
  51.6745663  72.4111032  44.1791773   4.8691970  18.9117932   1.4425395
   4.2520165  19.6428716   1.4716011   5.5632567  19.2075467   0.8534361
  62.5404406  30.3289557  63.3680916  62.4260187  31.2607980  63.1815147
  61.6596842  29.9607396  63.2979774  70.3199911  13.6717570  36.4698315
  70.3924942  13.7746561  35.5209446  71.1939335  13.3983147  36.7485642
  77.2760487  39.2925024  35.7681465  76.8346071  38.6763096  35.1836252
  77.0946598  40.1530218  35.3902125  51.2955713  54.2652750  12.6708162
  50.8023405  54.7194958  11.9877064  51.8188238  53.6179304  12.1981823
  42.2234869  75.1107597  22.2500277  41.6432667  75.2627087  21.5040445
  41.8521833  74.3462944  22.6904392  51.0314226  71.1109018   6.2108654
  51.1295700  70.4681921   6.9133747  50.0995493  71.3296032   6.2147939
  38.6715889  76.8450689  40.0695848  38.1075549  76.1886311  39.6606946
  38.8572764  77.4708605  39.3694878  75.0534058   4.1204712  26.8436980
  74.8115301   3.2427365  27.1391797  75.8633471   4.3169531  27.3144627
  14.5240486   4.3392015  36.7563367  14.4541049   4.6110609  35.8412242
  15.3725708   3.8996482  36.8114281  27.1905756  10.0180793  35.7895422
  26.6918898   9.2010486  35.7874155  26.8143320  10.5301881  35.0737071
  15.1112306  69.2102289  31.9978619  14.2836392  69.6894455  31.9569421
  14.8537493  68.2884312  32.0127368  11.2693083  71.9444990  12.2034371
  11.1903131  72.3303032  11.3310015  12.1940637  71.7090321  12.2783601
  47.7052307  73.3834171  52.5061703  48.0080032  72.4857855  52.3689795
  47.9941845  73.8556337  51.7253065  63.7303972  69.5283270   8.7521690
  63.1611919  68.7588739   8.7656528  63.1684113  70.2365017   8.4376961
  20.5707860  74.6140766  11.1228311  20.8335733  75.3393507  10.5561268
  20.6770182  74.9537802  12.0113969  26.1423707  71.5916967  60.9594440
  25.4817247  71.0347414  60.5476427  25.7410836  72.4603367  60.9851265
  69.1267538   9.3325520  14.2736447  69.6565771   9.4717145  15.0585985
  69.4312525   8.4949106  13.9245486  55.0027657  60.0613642  20.4838371
  55.2962160  59.3509102  21.0542512  55.1109648  59.7169781  19.5973158
  69.0348816  63.6088514  37.5422335  69.2664862  63.1080103  38.3243799
  69.8760128  63.8683796  37.1662331  65.6551218   3.1650174  21.4394975
  65.6064749   3.4524429  22.3512292  65.8714437   2.2341207  21.4930511
  65.6199980  20.5914164  23.5331750  65.3498983  21.4811301  23.7605262
  66.4243174  20.4503012  24.0325618  13.9517415  13.7547839  24.8868394
  13.3475578  13.4809053  25.5769014  14.1762686  12.9444051  24.4295597
  49.6985435  15.1621318  53.7933207  50.5428410  14.7407269  53.9539909
  49.5374680  15.6833279  54.5798588  39.4840431  76.6418695  50.2139521
  39.5235562  75.9853983  50.9094477  38.5483360  76.7681551  50.0566721
  71.4540339  12.5759506  32.5036573  71.1801004  12.8398097  31.6252661
  71.0203981  13.1987858  33.0869842  64.8383188  76.7027950  35.6248784
  64.7117662  76.6378736  36.5714526  65.7535839  76.9638157  35.5229473
  49.7323751  13.5072315  34.6011209  50.2735090  13.6409175  33.8229609
  50.2517986  13.8690627  35.3191113  39.1098976  68.5157347  39.8217177
  38.2701492  68.6541748  40.2597713  39.7095871  68.2692146  40.5258703
  39.1413164  71.5926552  40.6558275  39.5859241  72.1005630  39.9771619
  39.3636346  70.6828117  40.4583693  15.3632700  55.1731968  64.0595436
  15.6893885  54.5779514  64.7344971  15.7567668  54.8533678  63.2476902
  66.9824934  23.8040948  63.9169025  66.5593529  22.9473996  63.9739943
  67.7576637  23.6527967  63.3761168  48.4282589  54.3838453  58.5313177
  48.1466150  54.8117113  57.7227163  47.7571392  54.6178913  59.1724491
  71.3756609  69.3151140  59.0441990  72.1234417  68.8889313  59.4630384
  70.6103039  68.9259815  59.4673252   6.5493798  66.4487362  28.4571862
   7.0575166  66.7417526  29.2136049   5.6395996  66.4802361  28.7530541
  16.3818562  49.4312429  27.1938515  16.7556739  50.3068161  27.0945168
  15.8562040  49.3042183  26.4040518  31.9593406  43.3489895   5.6082439
  32.8526568  43.0061150   5.6338626  31.9724035  43.9991856   4.9058858
  76.9087410  32.9300785  29.0240955  76.6508436  33.7713432  28.6472750
  77.5500822  32.5777674  28.4070158  36.6445518  50.5372286  25.3296733
  37.1659946  51.2925005  25.6014991  37.2912288  49.8714066  25.0957394
  68.3641911   5.3910649  21.2859464  69.2792130   5.6720781  21.2848163
  67.9968166   5.7682502  20.4865742  40.4711866  25.9641004  23.4150863
  40.3143835  25.9160328  22.4720407  40.0754309  26.7938733  23.6817026
  74.8029232  71.9922209  46.6445780  75.2017736  71.1236477  46.6968298
  75.3664827  72.5473785  47.1834993   3.5175511  63.2361126  18.4022415
   3.1801814  62.3517704  18.2595730   2.7418602  63.7582541  18.6069465
   0.2895200  71.3203001  61.1538935   1.0344454  70.9599733  61.6350222
  -0.1531741  71.8860388  61.7864990   5.1984644  13.2149994  52.0406008
   4.3576255  13.5281670  51.7072153   5.8221322  13.4140313  51.3422775
   9.6893483  59.8834991  40.9440041   9.2384666  59.0405512  40.9927273
  10.6026185  59.6568346  40.7685280  34.5765185  51.2380171  27.1083355
  34.2160368  50.4029036  27.4064565  35.2688956  50.9943485  26.4939499
  34.5703220  75.6072378  47.6348734  35.4723692  75.3717232  47.8518391
  34.2112422  74.8230028  47.2198200   8.4011447  18.5998929  52.6285410
   7.7509671  17.9129088  52.7753544   9.1059440  18.1641662  52.1493387
   0.6469512  19.9052596  14.1139913   0.7242638  19.1930997  14.7488785
  -0.2377910  19.8154438  13.7598777  79.3694353  56.2209225  47.6339531
  78.8660145  55.4627752  47.3372793  79.7116518  56.6108561  46.8295479
  54.6258354   8.3900595  15.4745591  55.4548931   8.8524103  15.5975556
  54.2319441   8.8046920  14.7069907  62.1345901  78.3402395  14.6272004
  62.3594093  78.9332294  15.3441715  62.5579262  77.5134802  14.8584855
   2.2601365   1.7930165  51.9659805   2.4513489   2.7301812  52.0032883
   1.6713852   1.6983180  51.2172222  59.6149206   2.3706155   7.6935023
  59.8670769   3.2887709   7.7916896  60.4407930   1.9099557   7.5453115
  53.7237835   7.3599058  51.1553097  54.6509457   7.1336764  51.0816765
  53.4867382   7.6845556  50.2866030  33.6115217  66.1162949  23.8846326
  32.8811717  65.5495262  24.1328168  33.9180827  66.4879513  24.7117496
  51.8237638  10.2129185  33.0890679  51.4983797   9.4719291  33.6002350
  51.8021202   9.9064416  32.1825171  31.6724658  13.6486685  51.8619680
  31.1109757  13.2007217  51.2292719  31.3380313  13.3738399  52.7156973
  56.0178185  64.9308395  57.6632071  56.6963053  65.1484156  58.3023882
  55.6182003  65.7721233  57.4423504  51.3499308   1.1318626  27.1002865
  50.6715775   0.7008888  26.5803528  50.9450483   1.2676217  27.9569483
  80.1860332  23.6826015  37.8367424  80.3441811  24.5826268  38.1216502
  80.8807945  23.1735849  38.2543993  15.2046895  40.1295805  29.0507388
  15.3368366  41.0583210  28.8604450  14.5813847  39.8353291  28.3865571
  58.9546871   3.5552567  36.4440894  59.3073511   4.2583922  36.9894886
  58.0061388   3.6180714  36.5560985  80.6464481  30.9495187  17.0484400
  81.4186478  31.2535334  16.5714550  80.9197712  30.9403491  17.9657400
  70.3091383   7.4862206  32.7759576  70.5229950   7.1157455  33.6322546
  70.8460569   8.2763803  32.7159905  31.4122105  73.2664347  59.8328924
  30.7292247  73.4884644  59.2000675  31.0135245  72.5989962  60.3912878
  57.2504091  53.7917185  32.2914147  57.5926590  54.6748734  32.4297619
  57.2388268  53.3998251  33.1646371  57.1566439  64.0859461  10.7384098
  57.6755810  63.7237978  10.0202250  57.3466015  63.5149622  11.4828074
  18.7349474   5.9615046  17.1732628  18.3700728   5.5226618  16.4048123
  18.2897592   5.5535430  17.9159641  67.3915577   7.2834730  10.4017878
  67.8204107   6.4334643  10.3027987  67.8204393   7.8447956   9.7558731
  60.6660509   2.5423601  30.6237030  59.7547579   2.2508200  30.6516528
  60.7550859   2.9687241  29.7713423  82.9677296   9.2570382  15.6933296
  83.2573414   9.0066206  14.8160338  83.7185669   9.7143006  16.0719979
  48.7035608  76.4537334  25.0699568  49.1442871  75.9918070  24.3567824
  48.4923363  77.3128176  24.7044539  20.6134629  78.9142609   9.5970309
  21.0916305  79.7242689   9.4196302  19.7470498  79.0594435   9.2169249
  31.4636421  74.5246506  47.1016026  31.6654420  73.8130140  46.4940834
  31.2424850  74.0837765  47.9219389   2.9923952   1.7706178  42.3061323
   3.1140119   1.0128673  42.8781939   3.0880708   1.4200050  41.4206076
  25.9037113  70.8828402  43.1662273  26.4730597  71.0267782  43.9221048
  26.1394644  71.5788126  42.5528145  32.3105812   5.6554288  14.3191397
  32.5999737   6.2402695  15.0194561  32.5556374   4.7807404  14.6209657
  31.3412386   0.1387019   6.3885665  30.4304889   0.1569934   6.6825598
  31.8241584  -0.2309041   7.1277624  27.6378131  56.1614561  11.6340971
  27.0495272  56.0468817  12.3804390  27.4174857  55.4417229  11.0427642
  67.7597809  77.9312229  45.4584026  67.0841980  78.3818531  45.9651089
  67.2723055  77.3877096  44.8393726  79.8847008  71.9422626  26.7547393
  79.6852875  72.8452682  26.5076447  79.7013664  71.4320326  25.9658909
  55.4401350  57.9310942   3.8784441  56.0407686  57.2142601   4.0824631
  55.4527569  57.9895926   2.9231167  18.0797660   4.5036983  14.8753858
  18.5037684   3.6655945  15.0598752  18.2585585   4.6637201  13.9487481
  19.8121393  55.6350470  36.5668488  19.4795752  54.7465754  36.4393711
  19.7618926  56.0363674  35.6992960  47.4087954  66.7550993  55.5136156
  48.1912231  67.1568966  55.8912277  46.8227291  66.6250849  56.2591743
  10.2671361  62.6319551   0.3361705   9.9988329  63.3108139   0.9553578
   9.4778639  62.4463272  -0.1725765  40.7861662  62.3602200  52.7579832
  40.4759884  61.5904045  52.2811127  41.4706564  62.0239115  53.3364248
  55.7102489   6.1486417  39.3337107  56.6555166   6.0445046  39.4425702
  55.5630207   6.0325497  38.3950543  53.1009483  47.2080469  41.7606878
  52.6980066  47.1672392  40.8933926  52.3744202  47.0723963  42.3689508
  55.7633972  13.9306605  52.2732639  54.9162912  13.8843632  52.7165508
  56.3614511  13.4543729  52.8492069  39.2157578  23.2862234  13.2818997
  38.6537361  23.0859137  12.5334084  39.4303799  24.2133522  13.1789255
  32.1380424  73.0022335  26.1847234  31.7173672  72.1872330  26.4586544
  31.9983721  73.0375671  25.2384257   6.2118250  65.0386763  32.5181437
   5.4728895  65.2903700  33.0720901   6.2900621  64.0923166  32.6386333
  40.6664181  75.0975657  19.9193215  40.9026289  75.9794092  19.6315908
  40.7246447  74.5635033  19.1270995  80.7896519   8.5520291  49.6427679
  80.4177666   9.2725831  50.1514339  80.1415157   8.3818805  48.9592457
  68.1271076  24.9811029  32.9738426  67.4656200  25.1721263  32.3088789
  68.9280701  24.8192525  32.4753475  51.0163879   6.4394164   5.6729317
  50.6543493   6.8143445   4.8700687  51.8917322   6.1419773   5.4248643
  64.4308472  61.3430691  63.7510300  65.3200626  61.4724874  63.4212112
  63.9051867  61.9922924  63.2836723  58.9291430  75.2198029   5.6597978
  58.7608004  75.7349825   4.8708248  58.1031752  74.7674561   5.8312452
  74.1058826   0.7429917  36.0537148  73.6697340   1.5733805  35.8627701
  73.5663414   0.0833027  35.6178951  63.0478811  21.8763018  53.1668854
  63.7014198  22.5400710  52.9465914  62.9216671  21.9685864  54.1112280
  54.1352987  66.2696791  16.0569918  54.1671228  65.3962088  15.6667721
  53.3802795  66.2420797  16.6447079  74.1861963  20.0548744  20.3741074
  73.5832548  19.8622167  21.0921454  74.9936247  20.3319192  20.8071589
  60.3858137  13.2572186  31.6314697  60.5023336  13.4908330  32.5523829
  60.2281952  14.0921307  31.1906648  44.7075415  71.0504866  50.0499964
  45.5997038  71.0390949  49.7033739  44.3788385  70.1650524  49.8944664
  31.7160773  74.5300531  12.2533822  31.5048361  73.6072254  12.1119475
  31.2729549  74.9892616  11.5399384   2.2537775  45.8262968  14.4419026
   2.7617326  45.9807825  15.2383626   1.4528534  45.4004049  14.7474623
   5.0175738  15.4496741  26.4073229   4.4207737  15.9560549  26.9583583
   4.4475892  15.0168073  25.7717323  18.7596869  60.7633495   3.8219655
  18.5624063  60.1035929   4.4868210  18.6597311  60.3017378   2.9894060
  60.2422857   2.2479996  47.3633242  60.9330225   1.7523688  47.8031683
  59.8711109   1.6323784  46.7312860  36.4635682   9.5064741  44.8737049
  35.5624509   9.2338413  44.7008085  36.6996837  10.0456500  44.1188717
  53.2333708  74.2316151  42.3496628  53.3823633  74.1767550  41.4057207
  52.3677492  73.8438749  42.4784422  60.7865953  58.5380411  61.8268633
  61.2993670  58.4967852  61.0196495  61.3315582  59.0419292  62.4313068
  78.3661413   2.5773269  61.8013668  78.9298439   2.8466415  61.0761452
  77.5849342   2.2213003  61.3780594   7.9168093   9.3874264  64.8012257
   7.9577076   8.4780788  65.0972748   8.4722376   9.4108367  64.0220070
  82.9904461  22.1028113   2.0731364  82.2313404  21.8254733   2.5860456
  83.7325573  21.6605568   2.4853432  43.2928991  74.9024200  46.6613913
  43.0874443  74.1624975  47.2328186  42.5333500  75.4802227  46.7352724
  16.9732869  40.4379940  25.2625966  16.2262404  40.9728765  25.5310273
  17.7362132  40.9918928  25.4280472  14.8155725  64.8061466  43.5545444
  14.7685766  64.6924400  42.6052856  15.7528710  64.8161602  43.7484598
   4.8906228  28.1450319  44.2306280   4.8049721  28.7328768  44.9811840
   5.8324939  28.1035829  44.0651226  62.7069759  55.5703831  34.3715978
  63.4545660  55.5535221  34.9691415  62.9636002  54.9954128  33.6506391
  15.6282675  69.4108057  45.3791571  15.5091536  69.8642302  44.5446205
  15.4218054  68.4962225  45.1864290  72.6359177  23.8591957  46.3609982
  73.3402443  23.9705563  46.9995594  72.8454304  24.4794631  45.6627131
  12.8205490  12.7343392  49.6236801  13.7536252  12.6192176  49.4438267
  12.5589263  13.4701240  49.0701389  49.8737335  70.8249950  40.7648373
  49.6132040  69.9238539  40.9553814  49.0909529  71.3444805  40.9481907
  38.5427141  20.2224469  30.9970379  38.4734583  19.2928326  31.2144113
  37.6765847  20.4554176  30.6627131  16.2954879  24.2611074  38.2180500
  16.1799395  24.9069166  37.5210500  15.4046834  24.0395188  38.4893370
  78.8641548  16.6455519  34.4531989  79.3143368  17.4894381  34.4154549
  78.8166618  16.4409876  35.3870797  26.0310555  61.9581175  27.1986485
  26.2269473  61.0661459  26.9118762  26.7476606  62.1815681  27.7926016
  46.5577602  70.6139183  45.2052689  46.5944672  70.6995678  46.1579227
  46.4813662  69.6721220  45.0522327  57.8937054   2.9499578  21.1689568
  57.3622179   3.4174982  20.5246305  57.4299145   3.0736613  21.9971037
  58.9393663  67.8453636  47.5931931  59.3828154  67.4450827  46.8452883
  58.1868792  68.2974529  47.2115993  66.4677954   3.2698968  44.5227623
  66.7328882   4.1879234  44.5792007  66.3977385   3.0981222  43.5837126
  16.2978387  44.7645855  66.7012024  16.0647786  44.3486547  67.5312090
  17.2549951  44.7731733  66.6980505  60.1476479   2.0004460   0.6926582
  59.6246195   1.3120094   1.1034238  59.6426821   2.8012803   0.8337363
  64.8704386  67.4591064  36.8944740  64.9011421  66.5932131  36.4876390
  64.8301268  68.0686760  36.1575675  41.0819006   3.1887755  13.8885820
  41.8228197   2.7055606  13.5228348  40.3989601   2.5282043  14.0046620
  80.7226372  15.1602268  32.9358339  80.0021458  15.6313276  33.3543944
  80.3220463  14.3575454  32.6019788  47.0103216  55.0063753  63.4844637
  47.9242468  55.0332546  63.7677526  46.7452431  54.0961695  63.6167336
  30.3772759  79.4471979  64.9200535  30.1353812  78.9605856  65.7080412
  31.2103939  79.8631430  65.1417160  25.7453084  68.3880329  65.1517344
  26.3137054  67.6178741  65.1558495  25.2957559  68.3494186  64.3075514
  50.7285547  79.4965363  27.8398323  50.2546978  79.0563679  28.5454822
  50.9862709  78.7902308  27.2474217   6.8680871  78.5941362   8.5463911
   7.4268901  78.1415558   9.1781676   7.0583081  78.1685400   7.7103788
  22.0958829  35.6981921  64.1906834  22.9944897  35.3978825  64.0544796
  21.5806293  34.8935843  64.2485619  72.3118544  78.1712675  46.2649488
  71.6262102  78.7702656  46.5604639  71.8902206  77.6385784  45.5906391
  29.7654152  31.6830850   6.6517633  30.6802440  31.6819358   6.9333988
  29.7955012  31.3969254   5.7388347  47.4105644  53.5035086  52.2503471
  46.4878702  53.6787558  52.4351549  47.4473381  53.3905506  51.3005447
  19.9542212  40.9503698  57.6902390  20.4442024  40.3311443  58.2312632
  19.8192775  40.4900885  56.8618870  29.7737288   6.0886079   0.8560339
  30.3889227   5.5225241   0.3898602  30.0855303   6.9765282   0.6810807
  67.5209284  77.3549032  12.5291979  66.9692850  78.1334639  12.4532604
  68.4064531  77.6992130  12.6455164  30.1700068   8.6128986  11.4512861
  30.3567624   7.6822168  11.3280547  29.3781161   8.6291635  11.9887567
  52.1912766   6.2403357  14.4998050  53.1400776   6.1576372  14.4040251
  52.0314837   7.1840942  14.4956219  82.0368385  24.1144133  66.4446831
  81.4019680  23.7557173  65.8245945  82.6643753  24.5875072  65.8982325
  56.8756199  26.2237573  26.2410426  56.1604643  25.9716153  25.6569123
  57.5869036  26.4778185  25.6530309  42.6304340  54.4596052  17.9556143
  43.0760908  54.1158152  17.1813846  43.3242655  54.5572042  18.6077690
  29.7580743  66.8179226  44.9319458  29.4313169  66.5365076  44.0773869
  29.7367024  66.0260010  45.4691887  80.2333736  65.1486301   6.3268322
  79.8481083  64.2728567   6.2982213  79.5184994  65.7154369   6.6164988
  79.0463924  30.3921747  32.1486497  79.5086384  31.1398935  31.7698646
  78.9384413  29.7825003  31.4186668  63.0224705  23.6656094   1.4507329
  62.9813099  23.9924097   2.3494759  63.5010386  22.8393650   1.5179980
  81.6017723  65.0932264  58.5275030  82.4537468  65.1813126  58.1001616
  81.3101292  65.9939909  58.6682129   7.6560086  17.0260978   6.7179179
   8.3246088  16.5495479   6.2258744   7.0563060  17.3564613   6.0490024
  69.5375347   0.2560637  15.7979965  69.2902946  -0.6010973  15.4510427
  69.5992279   0.8183038  15.0257850  21.2707186   9.4137019  62.4377537
  20.6460714   8.7013018  62.3016119  22.1019936   8.9729959  62.6137924
  37.3096180  74.0543365  36.2448668  36.8297029  74.1040277  35.4181600
  37.8283262  73.2530928  36.1729074  47.4766922  76.8310499  60.2640438
  47.6551247  77.6030111  59.7269535  48.3119965  76.3648748  60.2983761
  54.4310760  11.5117383  21.8395019  55.1485729  10.8850718  21.7461371
  53.9134645  11.4038229  21.0415864  52.7686977  67.6462793  29.1724157
  52.3570013  67.2558975  28.4014845  53.5045338  67.0669222  29.3702149
  27.7275348  78.6495924  43.8791275  27.8645587  78.2999039  44.7595692
  28.1740236  78.0292606  43.3028746  77.8830242  79.5992279  58.7709618
  77.5428629  79.0790272  58.0430126  78.8334417  79.5027685  58.7107182
  63.9115572   1.9188981  27.8160429  63.5227966   1.3118982  27.1862411
  63.8945103   2.7672142  27.3729849  54.7403336  50.5615091  61.6845703
  55.0508738  51.4554739  61.5409565  55.1577425  50.0488520  60.9923410
   2.2528398  10.3778243  67.8537989   3.1333759  10.3998053  68.2285070
   2.0710479  11.2869740  67.6158285  78.3803177  29.7603607  48.0277252
  79.1725779  30.2794743  47.8896189  78.5741234  29.2282391  48.7994194
  52.5326824  69.0496492  25.5169868  52.3542356  68.4459925  26.2380886
  52.8848362  68.4943724  24.8213649  76.4583588   8.2158828   0.3203984
  77.3125029   8.5459626   0.5991846  75.8352661   8.6285681   0.9184589
  69.0817881   2.5350642  10.9373629  68.8567877   2.1257234  11.7728555
  68.3402443   3.1087187  10.7443190  30.5678058  64.6902227  51.6392136
  30.6545472  64.0951157  50.8945274  30.6694674  64.1286612  52.4076843
  66.8668270  50.0001669  62.6787996  66.0907125  50.5603743  62.6720905
  67.2806644  50.1743793  63.5241508  29.4915771  28.5906053  23.8633132
  29.8971629  27.8956628  23.3448672  29.8600411  28.4815192  24.7399926
  43.9251757  11.3472629  31.9883490  44.7695637  10.9796393  32.2493005
  43.4026384  10.5877900  31.7306924  80.8334160  21.4598942  32.5023770
  81.2753868  20.9074974  33.1471682  81.5395737  21.7949176  31.9498038
   0.6944727  10.9170818  48.5293293   1.3486791  11.0450351  47.8423977
   1.1481930  10.4067934  49.2001295  84.2506790  27.9337072  55.9988070
  84.6342278  28.8103628  55.9742975  83.6592484  27.9519796  56.7512035
  74.3085670  11.4076245  38.7965274  73.8029909  11.5546501  39.5959067
  75.1183748  11.8998289  38.9313698  82.0604706  14.6331501  56.6833925
  81.1131001  14.5544744  56.5714693  82.1651649  15.1509285  57.4816275
   6.8465441  34.4816518  40.9705210   6.9486403  35.0601292  41.7262793
   7.5640863  34.7236276  40.3850174  33.4077644   3.2285002  15.2401924
  33.0517411   2.4216452  15.6122994  34.2972112   3.2814631  15.5899239
   7.1272957   1.6681927   9.1965199   6.7709666   0.8858652   8.7755394
   7.0150357   1.5081485  10.1335454  45.8186054  46.6666651  41.1563921
  46.4559603  46.4858818  41.8472862  45.9331894  47.5969458  40.9622765
  54.7279119  15.5352306  26.8378353  53.8842344  15.3093469  26.4461517
  55.0418472  14.7155416  27.2196579   1.7852724  49.2511415  66.0951328
   1.0401811  48.7619162  65.7462311   1.4173123  49.7701073  66.8103313
  72.6069832  42.3131418  27.1673107  73.4402418  42.5894451  27.5488377
  72.8043556  42.1652794  26.2424231   5.3368980  11.8113601  57.8314161
   5.2546555  12.7611744  57.9169798   4.4396847  11.5039539  57.7020311
  19.5748580  43.9484692  59.5700741  19.8901117  43.1847954  60.0534487
  20.1968551  44.0493727  58.8495398  13.7243390   3.3553949  50.9056330
  13.7697089   2.7735364  51.6643286  14.4877040   3.1208333  50.3779173
   0.1041946  28.1622148  31.4310026   0.9200264  28.0076790  31.9072056
  -0.4191635  28.7036681  32.0218945  37.2362137  53.6423063   9.9447376
  37.9566646  53.3740759  10.5150306  37.3151016  53.0762959   9.1768563
  62.7325153  72.8034878  38.3758402  63.6586666  73.0452871  38.3737850
  62.4037695  73.1073284  37.5297642   6.7704356  79.3646479  16.2219346
   7.6460993  79.7481775  16.2704206   6.8980688  78.4456968  16.4574575
  16.1047864  13.1519628  38.0428863  15.6580365  12.8057623  38.8154101
  16.5884531  13.9119792  38.3664203  52.2653818   1.5147179  10.9123838
  52.4626064   0.9772881  10.1452458  52.3271179   2.4159214  10.5957580
   1.8378456  20.0822449   5.6359947   1.7270443  20.6772494   6.3775641
   2.7809402  19.9237633   5.5949092  57.7587223  44.5692062  13.9850211
  57.8696489  44.7373247  13.0492520  58.6500597  44.4575977  14.3156242
  83.8281345  18.3655572  24.8561645  83.4555054  17.6282597  25.3396678
  83.5437393  18.2277226  23.9526391  83.8465595   4.5410234  12.3850775
  82.9338360   4.4784114  12.6666009  83.8724995   5.3188396  11.8277979
  30.3030586  13.1804276  57.1654606  29.7098589  12.4910951  57.4640656
  30.9221363  13.2927465  57.8868198  21.5368414  20.6074286  18.3204126
  20.9964347  20.9694862  19.0226269  21.2748408  21.0962558  17.5402617
  22.0912075  25.5905747  34.7196174  22.7838683  25.9140611  34.1435862
  22.3777843  24.7119284  34.9687886  74.9510765  38.4831619  44.0716791
  74.1418076  38.4331226  44.5804119  75.6466579  38.3397007  44.7134113
  11.9171321  17.5571012  67.8794765  11.7116702  16.9486237  67.1697044
  12.5999105  17.1148825  68.3839417  15.3998554   5.0133002  15.9009385
  15.3358662   5.8142662  15.3807557  16.2573838   4.6509597  15.6782603
  80.5592728  68.0898333   8.5410833  80.8299446  68.9773083   8.7763572
  81.3346100  67.7028179   8.1345052  25.0114727  57.1209192  37.4513721
  25.7520437  56.6590071  37.8443456  24.9972081  57.9700565  37.8929543
  15.2805400  37.0968890  32.5567579  15.6980598  36.3210368  32.9308724
  14.6547425  36.7492247  31.9213533  72.2592163  17.1106541   9.3232244
  71.3655043  17.4533105   9.3134105  72.3718643  16.7607141  10.2070141
  34.1003513  29.9462390  19.2088389  33.1664491  29.9524450  19.4186449
  34.2494226  30.7757926  18.7551343  74.2425251  69.8953152  22.0771837
  74.8708200  69.9751711  21.3594794  74.7715950  69.9852848  22.8697896
  11.9528270  20.0541258  10.0403941  12.1558642  19.8929274   9.1189700
  11.2809360  20.7356358  10.0219262  31.7576337  33.6415958  29.1790986
  31.3752604  33.0141258  28.5656619  31.0672307  34.2893195  29.3206358
  70.0207472   5.9970796  10.7168865  69.4190836   5.7305139  11.4119959
  70.8133841   6.2711430  11.1782432  61.9107199  23.7182593  59.7992086
  61.8763018  22.8496170  59.3985796  61.0118771  23.8876748  60.0813675
  21.1255550  46.0339785  32.6871395  21.2377477  46.9842815  32.7109480
  21.8308282  45.7236910  32.1192098  84.5124768  10.0698507  34.5445251
  84.2726743   9.9914277  33.6211729  83.8440650   9.5663083  35.0091767
  19.9634516  37.5852537  64.3766212  20.6640577  36.9365597  64.4442940
  20.1701808  38.2323003  65.0510263  21.8236470  34.8085141  16.7175853
  21.5738058  34.9689651  15.8076036  22.3058629  33.9820671  16.6914093
  79.9799919   9.5796001  13.3861470  79.9120045   8.7231290  13.8081264
  79.5277786   9.4709784  12.5495243   6.1686826   3.4655392  31.5052724
   6.8157208   3.4492585  32.2104740   6.6896927   3.4744960  30.7023406
  60.1218843  55.7894945  68.3528805  60.2511024  55.2685404  67.5603294
  59.4428205  55.3216791  68.8389349  79.8136950  42.0125771  21.6204023
  79.0803814  41.9566631  21.0077429  80.5899334  41.8715763  21.0783648
  57.1488047  74.9573898  18.4506869  56.9230795  75.8793640  18.5741520
  56.7256975  74.7154570  17.6268673  76.9129992   9.7777450  15.3277171
  76.1343670   9.3717140  15.7086456  76.7549467   9.7599357  14.3838239
  49.9022865  65.0665522  29.1316581  50.1218414  65.7398891  28.4877300
  49.3711567  64.4351721  28.6463833  64.5381594  48.4992838  12.5654840
  65.4362822  48.8298464  12.5472665  64.6080685  47.6385546  12.9783964
   8.2217848  58.8340521  35.4320359   7.9562962  58.6474848  36.3325596
   8.7124288  58.0580282  35.1613235  31.1958241  49.4420481  17.4713922
  31.3438582  50.3861332  17.5263846  30.4498625  49.3507099  16.8785787
  37.0959139  24.7182798   8.3303529  36.2674284  24.3292236   8.0502129
  36.8595219  25.5969119   8.6275989  12.9598951  78.7623882  67.5298882
  12.9943538  79.6025753  67.9871941  13.0087113  78.9925289  66.6020536
  23.1771755  15.8408964  25.2276516  22.7820015  16.5838921  24.7715545
  23.1574130  16.0891712  26.1518812  54.5835638  78.0958462  67.1637297
  54.6346045  78.5605669  67.9989910  53.9108372  78.5644197  66.6696596
  31.6749930   4.9028119  11.7835963  32.5768781   4.7707102  11.4913893
  31.7582941   5.2107292  12.6860809  81.4950657   6.2654877  58.4499216
  81.6950893   5.3345621  58.5478973  81.6514778   6.4478523  57.5233650
  16.7688382  24.9306059   4.8511624  17.4804568  25.3803658   5.3067356
  17.0639586  24.0225625   4.7833967  10.1229501  13.3002198  22.0176029
  10.9423459  13.7634552  22.1914887   9.6706367  13.8466358  21.3748956
  42.8373337  41.9006681   4.5304847  41.9170618  42.0281267   4.3000793
  43.1506824  42.7759933   4.7581804  35.5995178   0.6777286  33.3966398
  35.3825283   0.0036569  32.7526093  36.0385990   1.3607641  32.8897858
  23.2016087   1.2013017  11.9219410  23.7682605   0.5523659  12.3390961
  23.7046385   1.5091935  11.1680198  66.6721487   4.1664523   3.1807753
  66.9035292   4.7703427   3.8864747  66.9043255   3.3018708   3.5196313
  64.5450783  66.0865784  57.6556253  64.4513416  66.3648319  58.5666800
  63.7235212  66.3478136  57.2396612  66.6630983  41.2643433  52.5169659
  65.8048868  41.6871548  52.5476599  66.7560625  40.9767485  51.6087341
  44.7377205  11.0038424  41.8767262  45.6794405  10.8451700  41.8117952
  44.4169378  10.3093982  42.4521208  82.5640583  32.5757551  20.2801156
  82.1214867  31.8652606  19.8158288  83.0939102  33.0066538  19.6094358
   7.8726912  31.7477775  39.6631265   8.8230228  31.7536306  39.7774434
   7.6100355  32.6588154  39.7944760   7.9596645  33.9873552   6.0623765
   7.7356893  34.0550256   5.1342130   7.2761643  34.4854784   6.5106332
  76.7299557  26.2669325  20.5741978  76.3966417  25.8851337  21.3862085
  76.2388086  27.0823407  20.4736495  27.2794938  30.4278970  30.3672647
  27.0886922  29.9975848  29.5338058  26.8787169  31.2934613  30.2871966
   1.6108508  58.6126089  52.5883532   1.0131146  58.9763594  51.9351864
   1.4071526  59.0908575  53.3921051  50.4874134  30.5482268  67.1912098
  49.6729422  30.6030726  67.6910686  51.1194038  30.1717186  67.8036356
   8.1161499  23.4525704  23.8287616   8.9410055  23.4469557  23.3431554
   7.7466691  22.5816131  23.6833405  41.4883757  76.8578815  61.5502834
  40.5941248  76.6312981  61.8056488  41.4009571  77.6893044  61.0840988
  12.6602805   6.5267545  41.4401197  12.8520000   7.3794216  41.0496950
  13.5061550   6.0794669  41.4658499  26.5049911  21.7260790  46.3304138
  25.7971716  21.1486149  46.0444832  26.7938423  21.3560033  47.1645832
  78.5061646  75.9559536  62.6526785  78.0570555  76.2789965  63.4338188
  77.9408836  75.2573395  62.3230886  82.4585724   4.3691829  53.5332251
  82.6530743   4.9939072  52.8345680  83.2095432   4.4288167  54.1237593
  82.8159046   1.9514990  66.1047792  82.9284382   1.4229380  66.8948412
  83.3208466   2.7467322  66.2747002  61.6788721  47.1397257  63.8629532
  62.2965097  46.4917898  63.5239363  62.2276545  47.8775120  64.1289330
  30.8671880  53.0573559   8.7102991  30.3108788  53.7429380   8.3405238
  30.9060740  53.2587862   9.6452570  27.4780178  24.0422344  14.1964149
  27.6322341  24.7967696  14.7648561  28.1755781  24.0883994  13.5425735
   3.5601369  68.3657408   1.6921888   3.8637605  68.9569378   2.3810504
   3.1526572  68.9413404   1.0449836  80.0454617  69.7766781  11.9674659
  80.0773048  70.6535387  12.3500013  79.9919510  69.9287844  11.0239446
  52.6119900  52.6559162  10.8715558  53.0922270  51.9826126  10.3896177
  51.9173765  52.9297161  10.2725780  55.1451874  77.2827721   0.3015611
  55.4313231  77.8824615  -0.3874406  55.9407425  77.0916510   0.7983495
  27.9994917  24.5071507  28.2736039  27.8494024  25.2614450  28.8434696
  28.1561542  23.7796021  28.8755679  18.8087010  41.9535160  10.0565529
  18.5365176  41.4208508   9.3092823  18.0247819  42.0194960  10.6018496
   3.5424969  46.9232273  22.5721216   3.3581704  46.4122677  21.7839718
   3.7112063  46.2674570  23.2486844  29.6605158  22.8652143  34.2215943
  29.5779896  22.1726704  34.8771882  29.1320133  23.5851860  34.5659137
  24.3616986  35.9789467  36.5113664  23.9432287  35.2873087  35.9987736
  25.2963638  35.7770920  36.4679432   5.0413525  56.8336630  25.3316236
   5.0397670  55.9476233  24.9694610   4.4622120  56.7826319  26.0920358
  74.8457861  12.7353454  61.0911846  75.7777309  12.5174558  61.1065292
  74.4011497  11.8887711  61.1341000  62.1004963  52.6390505  28.7713647
  61.9450665  53.5447693  29.0392232  61.4518213  52.1306419  29.2581582
  56.0713053  50.6984377  53.4328318  56.7742825  50.3074217  53.9516401
  56.5243959  51.2065411  52.7599525  38.0030870  18.9754808  47.6161480
  37.1534657  18.7157154  47.2599220  37.8569221  19.0420902  48.5597754
  41.8283749  27.9140091  60.0504160  42.1049547  28.7686205  59.7196960
  42.4472904  27.2953510  59.6625519  72.2467661  15.3679049  61.8139601
  72.2121382  16.3193905  61.7154312  72.1866608  15.0321543  60.9195948
  38.6915851  69.9217176   6.5549320  39.4075990  70.2465153   6.0089833
  38.4876466  70.6505394   7.1409899  26.5044022  75.3724909  62.3514795
  25.7494116  74.8247433  62.1365547  26.1250639  76.1643267  62.7327061
   9.5930421   0.3788979   8.5652059   9.5936263   0.5347174   7.6207739
   8.9008731   0.9481724   8.9014506  80.9443760   8.1761241  62.6508045
  80.6203747   7.2801590  62.7430105  81.8679333   8.0743533  62.4207830
  41.9669008  23.9508724   1.5218283  41.6389990  24.4634199   2.2607505
  42.9195452  23.9930224   1.6050689   4.8487401  70.2516985  29.2573357
   5.1636600  69.6863461  29.9626231   5.4012376  70.0299215  28.5078049
  63.0039358  12.4566102  57.8137255  62.8752041  12.0919943  56.9381046
  63.5605097  13.2228470  57.6746607  17.3284149  53.4331989  26.0984731
  16.4403832  53.1158304  25.9344339  17.3944807  54.2371035  25.5831051
  42.3672962  31.3899350  27.4785161  41.8891907  30.5666733  27.3790646
  43.0965137  31.3193393  26.8624878  58.9463425  34.8249745  10.8902884
  58.0271292  35.0639796  10.7713163  59.4326210  35.5011082  10.4184711
   9.1725898  70.4037380  36.9509864   8.6424750  69.9201536  37.5845122
  10.0615335  70.3657198  37.3039246  24.9155307  48.1434250   9.2401665
  24.7327852  47.9336405  10.1560414  24.3598795  47.5442266   8.7417275
  77.7697325   4.1912878  28.0341816  78.4588480   3.6095789  28.3550692
  78.2385206   4.9544230  27.6964068  49.8164845   5.6514931  40.8147287
  48.9792728   5.9352875  40.4476166  49.8384190   4.7072566  40.6592703
  42.3246574  56.6467142  66.8454552  42.2246504  57.4574471  66.3465118
  42.2862673  55.9535980  66.1864042  74.7109985  70.9520340  65.3932524
  74.3653679  70.4116201  64.6828079  74.2597151  71.7907286  65.2975273
  64.0639496  58.0615807  33.2708955  63.5857439  57.4832201  33.8650727
  64.3897247  57.4815559  32.5826573  42.6169634  58.2210112  26.6185975
  43.3276224  58.5945940  26.0974169  42.3858690  58.9123774  27.2389531
  12.1818566  17.2064364  46.8865061  12.0727777  17.0626724  45.9464693
  13.1203866  17.3577166  46.9983482  30.1524353  25.4279137  54.5286703
  29.9375868  24.7233438  53.9173937  29.4063997  26.0254216  54.4772339
  25.8124328   3.5384628  65.4246998  25.3679848   4.3477011  65.6773520
  26.1319518   3.1730720  66.2497044  14.0493202  33.0279779  25.7168794
  13.6026740  33.5447431  26.3874698  13.6139905  33.2691216  24.8992205
  10.5285525  43.7110424  19.8676467  11.0478055  44.4994831  20.0256562
  10.9102142  43.3271122  19.0782380  79.8981667   2.3980673  28.7656474
  79.6036482   1.5968916  28.3325076  80.4667473   2.0929775  29.4726562
  51.8489981  38.5281706   1.1597371  51.9064522  39.2469096   0.5301780
  52.7596998  38.3061028   1.3534845  17.0936847  30.5413508  44.4838095
  16.2372863  30.2052355  44.2195320  17.4347067  30.9712219  43.6994982
  84.3040943  53.6632967  66.9530678  84.9143124  53.2080936  66.3728523
  83.4484386  53.5459280  66.5403748   8.3207166  54.7220182  59.6267653
   8.8149476  54.4928646  60.4138184   8.4202558  53.9630890  59.0520048
  36.4139438  24.0333462  20.1584673  36.7415118  23.2417321  19.7315252
  35.7719064  23.7150311  20.7930517  66.2288475  38.4214830  68.0241299
  67.1380043  38.7201715  68.0028105  66.1433983  37.9741144  68.8660288
  21.6685534  78.7389231  61.6056061  21.7110920  79.1127491  62.4857616
  20.7881236  78.3682251  61.5451288  79.2940664  41.8565178  31.4240623
  80.1039219  42.1512890  31.8405747  79.0135002  41.1072063  31.9494557
  58.9922094  18.3909166  34.9115062  58.6454487  19.0977216  35.4559469
  59.3232632  18.8317263  34.1289949  55.6591272  10.4342937  68.0601978
  56.1219120  11.2378335  67.8227425  55.3975534  10.0520849  67.2225046
  29.4663429  55.3447390  15.3770530  30.3052473  54.9931669  15.0789392
  29.6892929  55.8876753  16.1331904  41.4604616  67.3229218  47.0619678
  40.6014681  67.5388193  47.4249411  41.4174175  67.6186180  46.1526012
  60.8986092   0.4001851  65.9614468  61.3795280   0.9007400  66.6205359
  60.9783077  -0.5100317  66.2467289   4.5765889  19.4800901  14.2033684
   4.0074605  19.6960092  13.4646499   5.4330301  19.3198514  13.8070560
  44.1928720  15.3593338  23.4651423  44.4078779  15.2729678  22.5364089
  44.3511152  16.2824428  23.6627865   0.7321066  30.8182549  15.6026125
   1.3702819  31.4765787  15.3277016   1.1709511  30.3377199  16.3045609
  16.3939583  10.2104580  13.2725239  16.8660152  11.0063112  13.0275512
  15.5106819  10.5117834  13.4852624  42.0008659  73.3196878   7.5192988
  41.9536209  74.2559958   7.3260981  41.3600731  72.9210043   6.9305152
  30.0553870  30.8414292   3.8714364  30.8829045  30.4887915   4.1986889
  30.3030038  31.3660908   3.1100911  83.3433342  51.8827915  61.3323069
  83.5434818  52.6186943  61.9107676  83.2137012  52.2825384  60.4722881
  58.1499243  13.1075966  34.4066954  58.2119274  14.0563047  34.5177794
  57.2597122  12.9615963  34.0866351   7.0749521  28.5888767   8.8091701
   6.2902778  29.0777612   8.5611594   7.7972335  29.1942763   8.6417454
  75.6034040  71.5978146  26.8537450  76.0308552  72.4343967  26.6703057
  75.4764223  71.5966845  27.8024840  43.8432789  62.2147894  48.7227631
  44.5673227  61.5907478  48.7734222  43.0859995  61.6835642  48.4766817
  38.3796978   9.3416601  22.0371270  38.5367870  10.1572061  21.5612698
  37.4279356   9.2399907  22.0304751  70.0278854  19.5595670  22.9354620
  69.7500944  18.6986673  22.6225448  69.2299128  20.0880623  22.9225063
  80.2344322   4.4069403  20.5866981  80.9440804   4.4313580  21.2286043
  80.2443695   3.5099673  20.2526736  80.5360985  18.7789178  24.3902159
  81.2714767  18.1998289  24.5904922  80.0273418  18.8089693  25.2004576
  32.3934150  43.3559513  13.7269032  31.5411401  42.9265070  13.6531639
  32.4645782  43.5896587  14.6524012  24.0092897  18.9660680  20.4446912
  23.8345289  19.7355509  19.9028540  24.1371131  19.3175852  21.3257861
  39.4644260  71.9410610  11.3094604  40.2608204  71.6637611  11.7623293
  38.8359714  71.2391567  11.4785981  33.5452318  35.4127192  15.7042241
  33.7893367  34.6480751  16.2257278  32.6170158  35.2834058  15.5094862
  19.8535097  24.4676352  26.2145185  19.7729540  25.3208232  26.6409135
  20.5351186  24.5932293  25.5543137  52.4109840  62.2515869  12.2846353
  52.0847082  61.7139959  13.0062795  51.7338657  62.1851969  11.6113377
  20.6279135  53.6879110  47.0438433  20.6099653  53.1219482  47.8155899
  20.5143166  54.5720720  47.3925304  68.0113602  18.3995020  35.9249282
  67.8039694  19.0260470  35.2316284  67.2772312  18.4662402  36.5355253
  17.6292932  42.7569342  19.5048845  18.3795619  43.3487034  19.5608675
  17.9716539  41.9767332  19.0686381  29.6426392  29.6766758  19.4901526
  28.8624215  29.1766477  19.7298717  30.1737380  29.0631056  18.9825141
  29.3501854   9.2580867  33.6132789  28.7690592   9.6877998  32.9856873
  30.2170324   9.6153992  33.4205675  34.0118694   3.1380391  56.3359499
  34.3283558   2.2692543  56.5834999  33.0582833   3.0666789  56.3785267
  68.3183670  12.0550275  17.7640498  68.4038639  12.1007991  18.7163246
  68.7215090  11.2197828  17.5272512  79.9683905  38.0593228  68.0690050
  79.5209122  37.2138476  68.1031895  80.5782509  37.9780626  67.3357296
  22.1178913  73.9636946  26.3860393  22.6520920  73.2028627  26.6140532
  21.2157059  73.6495018  26.4458442  18.2147741  65.4277945  43.0735064
  18.0322707  65.4704142  44.0121794  17.8789365  66.2542295  42.7264452
  74.0023899  22.3024893  18.5907793  73.9941549  21.5383959  19.1672575
  73.1238794  22.3257995  18.2114315  76.5907907  35.8531713  27.0544887
  75.9260416  36.5412736  27.0837712  77.1682549  36.1084771  26.3350558
  16.8630838  27.7758789  61.9602060  16.9383681  28.3402777  62.7296352
  17.2392285  28.2917547  61.2470293  22.1331310   2.3908360  68.0779552
  21.5875769   1.8956059  68.6889791  22.8650403   2.7035573  68.6096954
  13.8315594  12.4272192  30.3142190  14.5825684  11.8358636  30.2640653
  14.1980362  13.2536459  30.6287742   0.7900760   8.2492733  13.3124340
   0.0604618   8.3698118  12.7046800   1.3942526   8.9623600  13.1057703
  31.9650507  18.9248967   8.0399036  31.6686630  18.2949471   7.3829782
  31.3131809  18.8670826   8.7384415  56.3670015  50.9455681  20.3567600
  56.2886143  51.7966938  20.7876658  56.4505053  51.1548853  19.4264674
  31.0126090   9.2164475  15.5211484  31.1504436   9.4874519  16.4287770
  30.5807853   8.3648390  15.5884099  60.8762884  31.1467481   8.8222450
  60.6174994  32.0587993   8.6902505  61.6748810  31.1979842   9.3474650
  39.0223336  17.8282487  16.7555988  39.9387860  17.5607812  16.6862512
  39.0511465  18.7850082  16.7521966   8.9877629  17.5552034  42.1142149
   8.7182575  16.9773316  41.4003086   8.4244806  17.3084390  42.8477383
  11.6837680  78.9028311   2.3839369  12.4491262  78.3279943   2.3885252
  10.9566212  78.3315372   2.1367249  33.2081580  69.5385027  66.5289259
  33.0547929  68.7328386  66.0353422  32.3989224  70.0394964  66.4270878
  30.4746389  33.3227992  47.1105862  30.4863667  32.8395772  46.2843943
  29.5673776  33.6127615  47.2056055  47.4774981  70.9818888  63.9605761
  47.0995092  71.8438911  63.7864876  46.7300844  70.4386854  64.2106390
  35.2034163  43.1076527  27.1804500  35.9935188  42.6871061  26.8411684
  35.4182768  43.3245754  28.0876493  32.7196980  17.1712601   5.7792461
  32.1446991  16.9179082   5.0571513  33.4255910  16.5250206   5.7613808
  17.3672926  45.3380966  23.9021826  17.1575618  44.8937416  23.0807257
  16.6958511  46.0150671  23.9865065  16.3428724  24.6517181  17.6351297
  16.2656832  25.1109052  18.4714437  15.7055366  25.0826001  17.0655918
  34.4324112  65.3795433  60.5051041  35.2269959  65.7726955  60.1441336
  34.4166732  64.4942760  60.1413870  45.1587820  31.8079686  61.2661886
  45.2508879  32.4626374  61.9583988  44.4889116  31.2070751  61.5924263
   7.1432829  11.1258423  60.0080585   7.1570551  10.1703751  59.9521685
   6.2580061  11.3356245  60.3055620  29.7115755  31.2498379  22.4161124
  29.3051457  30.4430461  22.7325535  29.0507340  31.6434455  21.8463802
  34.1737747  74.6332836  17.4701715  34.8110127  74.8042011  16.7766690
  33.3582544  75.0150394  17.1454859  13.4411108  38.5100794  36.2294388
  13.8544357  39.0888333  36.8700933  12.5729346  38.8883138  36.0900068
  72.1157694  12.4534023  18.8686514  72.4789095  11.6250277  19.1819525
  71.2013769  12.4361718  19.1511858  80.2444649  58.5579586  63.8047361
  80.8143234  58.8432169  63.0905104  79.3905973  58.9367294  63.5957384
  20.9574461  31.5554261  29.4475198  20.4144526  31.8641901  28.7222242
  21.4985776  32.3100638  29.6797466  74.3256903  36.0225248  67.9119349
  74.1366053  36.9604707  67.8847933  73.8706112  35.7089686  68.6934805
  45.4761648  24.1666102  27.8810859  46.3917732  24.3717384  27.6918340
  45.3435230  24.4696975  28.7792921   3.9595905  43.2088852  26.6365147
   3.7182453  42.5898409  25.9474802   3.7051803  42.7730799  27.4498916
  20.9318352  68.5833836  25.1867747  21.0457921  67.6738453  25.4624343
  20.5715251  68.5221767  24.3020940  67.1718740  25.0788426  56.6245651
  67.6305437  24.5343089  55.9847689  67.6572037  24.9510050  57.4396372
  15.8758676  59.2994881  55.0043774  14.9486697  59.2233801  55.2296400
  16.3272452  59.3108845  55.8483934  30.5541325   8.6965811   0.2813319
  29.7540617   9.2216289   0.3023679  31.1904454   9.2478013  -0.1741838
  53.7269831  25.4454279  61.7629671  54.1194010  26.3161922  61.6996241
  53.3836365  25.4017901  62.6554012  10.5879533  30.9979415  10.5218077
  11.5326846  30.8439493  10.5233753  10.2433121  30.3659463   9.8909068
   5.8507973   9.8034793  66.6050196   6.6069293   9.8483419  66.0198021
   6.0826135  10.3714168  67.3398256  46.5616798  72.5385809  60.3841639
  45.7533264  72.0765400  60.6062460  46.5282965  73.3424377  60.9027576
  55.4347038  52.0929193  57.6645947  55.7527685  52.9492331  57.3785973
  54.6929407  52.2915602  58.2360411  59.3341684  12.9504883  62.3494387
  58.8343763  13.7353158  62.5741386  59.1950655  12.8390467  61.4089823
  68.5819101  42.2739267   7.9353422  68.0252934  41.9019938   8.6195022
  68.6033201  43.2114315   8.1273198  45.9810162  14.9830699  26.5844703
  46.9179153  15.0568926  26.4028168  45.7240438  15.8576274  26.8766117
  73.3586121  48.6480045  42.7049446  72.4478960  48.5692453  42.4210072
  73.8567257  48.7307644  41.8917608  35.8714128  25.1990438  11.2541091
  36.6102123  25.2400160  11.8613410  36.1344314  25.7530451  10.5191708
  18.0069113  57.3558378   4.5649999  17.7355993  57.1031046   3.6825326
  18.9603364  57.2714186   4.5558447  48.0357742  62.0241690  42.4506760
  47.7441120  62.3455715  41.5975285  47.8343821  61.0885096  42.4357653
  41.9061852  17.9455805   9.2909145  42.5811195  18.1798804   8.6538923
  42.1090174  18.4766257  10.0610328  79.8831797   5.7471514   1.1849826
  80.1104927   6.3671064   0.4920080  80.6798649   5.2333832   1.3175251
  33.9988899  58.0981398  22.4400926  33.9049673  59.0477562  22.3650002
  33.1475854  57.7976751  22.7582645  34.7894287  34.1895223   7.3094684
  34.7500324  34.6749997   6.4854580  35.0910139  34.8319578   7.9517728
  18.3419204  40.4766655  18.4689701  18.8098180  40.1657248  19.2439663
  18.4753680  39.7889709  17.8166664  15.9180069   7.5477809  14.3136728
  16.7217934   7.4966818  13.7964213  15.7377422   8.4852064  14.3841696
  33.1533527  51.9498348  22.1644807  33.4357023  52.6085138  22.7990270
  33.3819413  52.3236370  21.3134503   4.4457862   7.1119422  66.4114571
   4.6721700   6.6424501  67.2142982   5.2698970   7.5040728  66.1228275
  43.3663464  51.4078999   1.8902509  43.6273766  50.5043745   2.0683920
  43.1201982  51.4081526   0.9652404  17.9537463  36.0206747   1.2507418
  17.6274824  35.5561066   2.0214300  18.6559284  36.5778947   1.5864182
  70.4793119  73.8569212  19.6242261  69.5729589  73.9921618  19.3477023
  70.5823517  72.9056406  19.6503460  30.7808328  69.0322304  48.9679337
  30.5987906  69.2161226  48.0463696  30.1989770  68.3042479  49.1863823
   2.2966334  19.6281087  61.5376186   2.6874053  18.7543070  61.5380716
   2.8339216  20.1304436  60.9250736  13.5703039  75.4334402  45.6499767
  12.8035307  75.8206558  46.0722971  13.7942839  74.6836567  46.2012386
  46.0082293  21.9318032  20.3818178  46.2581205  21.8111682  19.4657230
  45.0950575  22.2164702  20.3454947  36.5605092  14.5982373  17.5302637
  35.8282757  14.7366714  18.1310165  37.0366216  13.8548338  17.9002631
  11.8771839  36.5711975  50.7049370  12.5067770  35.8790040  50.5031633
  11.8721461  36.6191506  51.6609192  82.8444576  62.2188091  41.4969349
  83.0583954  62.0147753  40.5865288  83.4053421  61.6377687  42.0107746
  67.0654297  77.2515678  65.6934166  66.5033627  76.4864254  65.5714560
  67.9094839  76.9897938  65.3256083   6.9760156  43.9201355  51.2955379
   7.5285810  43.8921022  50.5144358   7.4691343  43.4326267  51.9553852
  45.1754618  29.4404054  20.2288914  44.5254660  29.0467596  20.8109403
  45.3553486  28.7625432  19.5774484  22.4910736  47.7244854  61.0147047
  22.4644566  46.7692947  60.9587336  21.5953588  48.0008173  60.8208799
  34.6195340  40.3066730  10.1242268  33.7855363  40.2057123  10.5830169
  34.7821426  39.4490767   9.7313941  17.3557580  51.9216776   2.0655940
  18.0136800  51.8404675   1.3751048  16.6193545  51.3930941   1.7581138
  29.1684818  23.5408521  52.8153181  28.9844513  22.6169300  52.6458120
  28.4205222  24.0065861  52.4413061  81.3042164  52.6927805  34.3654704
  82.2298145  52.5377512  34.1771793  81.1248016  52.1597099  35.1399899
  23.1113195  30.9817600  61.2841082  23.6593103  31.1445951  60.5163717
  23.3929753  30.1238728  61.6018105  29.0691614  18.5963488   4.2503273
  28.6326051  18.8529325   3.4380370  29.6636701  19.3216050   4.4421473
   3.9128160  64.3984318   9.0051180   3.6221918  63.7011814   9.5930046
   4.8178834  64.5695448   9.2655122  84.0115738  57.0592213  13.3715057
  83.5401154  57.3405504  12.5874066  84.9343872  57.0860958  13.1186700
  13.0946136  29.4554663  21.3490772  12.5798500  30.2606797  21.2953758
  13.1850362  29.2911506  22.2877216  22.5000119  58.1325674  21.6318846
  23.4258461  58.0969954  21.3914728  22.2035360  57.2240257  21.5781999
  51.4629984  18.0636179  30.4140019  51.6503572  18.9175081  30.0241303
  51.1680698  17.5246930  29.6799660  22.7520132  58.0135679  26.0551119
  22.5307846  57.1725416  25.6551600  22.8560758  57.8161335  26.9859314
   2.1787728   9.7470778  60.2768517   2.7349272   8.9766103  60.3921938
   1.8387766   9.9303299  61.1526680   6.0869503  39.9959803  27.8295445
   5.6213182  39.7735262  27.0233583   6.6648090  40.7174873  27.5810766
  44.1763210  60.1499176  29.8638701  43.8957024  59.2821121  30.1543832
  43.5759687  60.7543421  30.3003097  79.1186190  50.4596567  12.2515321
  79.1276550  50.0153685  13.0993283  79.3300295  49.7730207  11.6190267
   5.4521948  30.5439949  39.1427422   6.2962717  30.9302258  39.3763924
   5.0284356  30.3682780  39.9828529   3.5937315  66.8367052  22.2732234
   3.5439098  65.9159946  22.0162344   4.4641262  67.1174669  21.9907022
  31.9465661   6.6088611  23.1781793  32.3662329   5.7510698  23.2438040
  32.1548104   6.9103587  22.2938919  40.2298784  26.7119932  40.9986210
  40.2091980  26.0776591  40.2820873  41.0902882  27.1253967  40.9277725
   6.3166058  10.2684891  11.3015580   5.9195656  10.7233775  12.0443010
   5.5926889   9.7875583  10.9004569   1.1417364  43.6392689  26.1344361
   1.1944650  42.7024174  26.3235283   2.0378646  43.9568377  26.2455058
  48.0872393   9.2156905   9.2379427  48.0493259   9.9922043   8.6795336
  48.9847565   9.2033589   9.5704204  16.5378392  23.1831050  28.0196095
  16.2704110  23.9215207  28.5668349  17.3483443  22.8690815  28.4204841
  72.9493093  64.2818785  17.0985806  73.2615995  64.7466326  16.3222349
  72.2871447  63.6764383  16.7650890  10.9134901  29.0474629  60.9877586
  11.4717937  28.2856178  61.1430645  10.2177536  28.7220860  60.4165220
  30.5813217   9.7512478  18.3275366  30.8859062  10.2049375  19.1134274
  30.0674200  10.4070973  17.8563690  82.6635933  47.2037649  31.2994766
  83.5495949  47.5596952  31.2321258  82.6626301  46.7181253  32.1243310
   0.0496486   1.9229291  30.1228499   0.4540876   2.3784080  30.8612275
  -0.2140753   2.6225832  29.5252180  44.2710114  33.2046461   1.4915924
  44.0335989  32.3009968   1.2835483  44.6686554  33.1537652   2.3608017
  33.6166978  23.5665655  11.5058708  34.4843364  23.9700747  11.4811027
  33.4175253  23.3704710  10.5903876  75.3015804  41.9898891  13.1644392
  75.3747225  42.7662849  13.7195015  75.0944567  42.3350000  12.2959745
  55.1299667  72.5291061  63.5211372  54.3833256  72.9094696  63.9838266
  55.2639627  71.6791916  63.9405632   1.8129951  36.3099360   5.3564572
   2.6223803  36.7823768   5.1617098   1.5458113  35.9362459   4.5166951
  38.9743423  65.6519365  25.3572750  38.5617375  66.3138723  24.8024487
  39.4772530  66.1555529  25.9973359  31.9122195  44.4048119  24.6293283
  32.1329951  44.4722271  25.5582762  31.7693448  45.3093910  24.3508387
  20.5609012  31.9566965  21.4324141  21.2244487  31.9360924  20.7428408
  20.1483941  31.0938096  21.3937283  17.3898935  73.0709600   6.6751039
  18.0834162  73.6192846   7.0419806  17.8453493  72.4739933   6.0814542
  82.7740192  53.2418776  41.3278341  83.4882641  53.5751629  41.8709755
  82.3124504  54.0262890  41.0313797  26.5904188  68.9021969  11.7372108
  26.6215158  68.4211397  10.9102583  27.3753643  69.4498777  11.7253637
  12.3125100  49.6853352  10.8257389  13.0006313  49.0399694  10.6637990
  11.7904282  49.6852207  10.0234532  23.1811094  44.1978455  25.9451675
  23.4864783  43.3168793  26.1616921  23.6827230  44.4406843  25.1669383
  47.0544958  28.2840633   8.0864596  47.2935104  28.6788011   7.2478372
  46.9784927  29.0254402   8.6871397  84.0314674  39.1595125  42.2456884
  84.2458057  38.2533145  42.4672651  83.1871033  39.3161607  42.6684570
  22.5550985  58.4511328  18.4880245  22.1739340  58.9128876  19.2348361
  22.2547579  57.5476122  18.5863924  14.0966439  41.2959528   6.6050488
  14.3050730  41.7614079   7.4150747  13.5523689  41.9083881   6.1101538
  19.1744781  15.0568056  46.5502739  19.3696499  15.0480723  47.4873257
  18.9303339  15.9635961  46.3649178  51.0585594  57.0918179  65.1122475
  50.8303642  56.3877535  65.7192516  50.3018713  57.1608019  64.5301008
   7.9490203  40.1249123   4.2441553   7.7008510  40.6167316   5.0269437
   7.7783954  39.2108846   4.4714624   8.6146438  65.1646614  58.7500858
   9.0760648  65.9981775  58.6574793   7.6945335  65.3824091  58.6010361
  12.0272624  46.1502934  12.0435452  12.7756751  46.4812088  11.5469515
  12.4011457  45.8608484  12.8758109  56.8249913  71.2406614  69.1801487
  56.9329783  70.3035405  69.0177445  57.1874615  71.6621187  68.4009041
  12.8331423  39.2669678  21.4328170  13.6698270  38.9616132  21.7834616
  12.2998345  38.4752536  21.3620830  36.3649631  43.5696316  16.0114980
  36.3487172  42.8839827  16.6792202  35.4455709  43.8057852  15.8882761
  22.5879908  70.2550316  31.2778115  21.6644478  70.4346561  31.1016536
  22.7486181  69.4042635  30.8696127  22.9668784   5.3662771  65.9656763
  23.7997794   5.8126664  65.8132172  22.9216719   4.7021243  65.2778625
  83.0581280  79.6140464  47.8099728  83.6661788  78.9962075  48.2159090
  83.3816453  79.7153690  46.9148207  58.4136868  37.8683066  12.7286184
  58.4268141  37.4756145  13.6014605  58.5199118  37.1279502  12.1312737
   5.0904357  62.1815348  66.9634628   4.8785511  62.7929020  67.6688480
   5.7804430  61.6264629  67.3268032  23.4625959  29.4876909   5.8953977
  23.0786920  29.3289208   5.0330514  22.7645588  29.9126673   6.3937664
  40.2669477  24.2611909  20.9021497  40.5650854  23.7828040  20.1285291
  40.2255249  25.1742744  20.6179070  23.7620926   1.9709714  50.6632996
  24.2518806   2.7678317  50.4599428  23.1124830   2.2474927  51.3096523
  31.4185953  51.0448265  29.5137191  30.5158448  50.7938814  29.3180108
  31.8731022  50.2141428  29.6537757  28.3330631  51.9290590   9.5478350
  27.5932384  51.4774418   9.1417187  29.0838146  51.6991949   9.0003252
  44.9036741  23.2026410  56.2109184  44.8986912  22.4095869  55.6749392
  45.1556873  23.8995743  55.6051064  53.3134270  60.5738831  47.1437359
  53.1758165  61.5056467  47.3143530  52.6360416  60.3442717  46.5076113
  30.6184149  50.9753513   3.9626294  31.3063288  51.6163063   4.1420099
  30.3953457  50.6166792   4.8215997  35.3260207  22.7657747  36.9288039
  35.3754616  23.6746740  36.6326761  36.1765528  22.3921180  36.6981411
  40.0424862  54.5097399  23.9375806  39.9547338  55.4293251  24.1883707
  40.4571056  54.0938520  24.6934628  75.2405787  32.8757811   4.4404638
  75.4576063  33.7994075   4.5671394  76.0142803  32.4035716   4.7480929
  19.5874929  48.7926865   9.7777665  19.1874039  48.4155464   8.9942318
  18.9032960  49.3471384  10.1528537  57.0018148  24.6283031  22.5739360
  56.3729143  25.1971197  23.0179644  57.0403004  23.8423586  23.1189489
  62.8208971  35.9389114  25.1454616  62.1173191  36.5120792  24.8410082
  62.4399137  35.0610089  25.1261640  29.5925641  43.7273836  10.5737317
  29.2032075  44.4769812  11.0239947  30.4792523  44.0137339  10.3545940
  11.5455234  38.8103008  30.4121971  12.3823309  38.3460236  30.3914261
  10.9008586  38.1539965  30.1478052   9.3285245  75.5605841   4.7549254
   9.1320258  74.6955490   5.1145518   9.3690789  75.4229593   3.8085398
  44.1848707  37.3163414   2.4206316  43.4852552  36.8568707   1.9562440
  44.4399166  36.7175627   3.1225213  16.7431164  52.4439812   7.4177033
  17.3951936  53.1236601   7.2472227  16.3341057  52.2856712   6.5668917
  40.6038237  18.9174855  25.5532885  41.3020515  19.4847381  25.2262831
  40.8982706  18.0308306  25.3450203  23.8094473  36.3771248  25.7450652
  23.2595396  37.1559405  25.6597447  24.4431067  36.4520025  25.0315499
  24.8577857  42.2796440   1.3884673  24.6631551  42.9966784   0.7849643
  25.8041310  42.3300838   1.5230787  70.6052399  71.8884468  61.3881063
  69.6891260  71.6129351  61.4206266  70.7547522  72.1150827  60.4702187
  59.6560049   8.1973112  54.6251249  59.5980549   7.5651133  53.9087439
  59.5705843   7.6687109  55.4185438  23.1079531  33.2373667  29.5580697
  23.6238694  33.9540052  29.9275160  22.6925278  33.6159563  28.7832642
  19.3225563  78.6076736  16.2168205  19.6164942  77.9983330  16.8939745
  19.8740327  79.3810940  16.3348353   7.1429819  30.0482726   5.1429307
   6.3889194  30.5834556   4.8955429   7.9006243  30.6063986   4.9677005
  14.2238963  36.5768480  55.2235317  14.0367138  36.3791537  56.1412001
  15.0791836  36.1784410  55.0623322  56.4155340  29.1774845  23.6569595
  57.3709297  29.1796780  23.7157083  56.1495876  30.0094819  24.0484738
  15.7332683  32.3798227  40.3484297  15.3835714  32.9271436  41.0515547
  16.0571289  33.0031729  39.6982145   4.9667034  38.8249326  18.2574737
   4.2956406  39.5017171  18.1687725   5.2570403  38.6565757  17.3610413
  80.3572273  49.3120480  19.0803564  80.1822567  48.3804464  18.9471602
  80.7794952  49.3561792  19.9382448  35.6872487  68.4918594  33.4431982
  36.0266018  68.5477352  32.5499177  34.8588395  68.9705849  33.4150863
  43.0225706  59.3043041   9.1974533  42.6201200  60.1696062   9.2717242
  42.3446465  58.7582159   8.7994105  65.1520252  11.9191682  68.2898712
  64.6618938  11.1803114  67.9291821  64.7229671  12.1065068  69.1247654
  30.7677221  42.2550106  23.3015370  31.4115286  42.9081535  23.5756660
  29.9549222  42.7494431  23.1960678  40.0749254  24.0067029  25.7678509
  40.8889818  24.0795016  26.2660909  40.2297735  24.5260286  24.9788308
  35.2841973   0.1965144  12.9835725  36.1635113  -0.1485242  13.1384528
  35.4185152   0.9387314  12.3942471  23.1274438  47.8603268  34.3302393
  22.6622605  47.6252174  35.1330829  23.8445878  48.4218168  34.6246362
  30.3053808  16.5023553  41.2436771  30.1958704  17.3023200  41.7577744
  29.5080924  15.9995556  41.4102840  15.9871340  56.1220694  32.6645350
  15.7135940  55.2869654  32.2850466  15.3314054  56.3056898  33.3372426
  23.3425641  15.4933226  -0.1341242  23.4277558  15.5724609   0.8159870
  23.6390543  16.3382518  -0.4723853  53.2111454  54.8856544  30.3255224
  53.5011673  54.0658665  30.7256079  52.9605818  55.4380465  31.0660005
  60.3558683   8.4204346  64.4433594  61.2659216   8.4670424  64.1503382
  60.4144001   8.1935841  65.3714466  54.6241999  27.2076154  68.7074995
  53.6815166  27.0734358  68.8053942  54.8444176  26.7693710  67.8854990
  34.1666794  27.7053928  13.5720718  34.0657592  26.7908859  13.3080196
  34.7700858  27.6751280  14.3145108  23.3727789  69.2453480  40.9854746
  23.9577961  68.8507509  41.6322231  23.7854481  69.0567493  40.1426411
  56.4724874  78.5970974  17.1345091  57.1316290  78.0394983  16.7211723
  55.7613659  78.6414528  16.4953148  27.6925015  42.3290014   1.6820568
  27.7913427  41.8844509   0.8401330  28.3541584  41.9264889   2.2445755
  55.4623890  56.5779066  14.7947443  55.9834003  56.6073132  13.9923012
  54.5695543  56.7695332  14.5077693  72.5158930  22.3829150  54.4456387
  73.3253479  21.8960953  54.2906570  72.7451372  23.0194521  55.1227665
  29.5422697  40.2072477  36.4539576  29.3114638  40.9835863  35.9437990
  30.4960775  40.1551628  36.3925672  50.7574701  16.1525154  14.0363574
  50.0788164  15.9682584  14.6857524  50.6891346  15.4337156  13.4079564
  41.0808086   4.6199113  34.7969818  41.1619473   4.7320908  33.8498473
  41.0409164   3.6719275  34.9233413  44.4476604  48.3066130  10.0787199
  45.0164604  47.8630972   9.4494438  44.6328211  47.8765059  10.9135568
  20.5405259  51.3672876   4.7125307  20.9015775  51.9019032   5.4196787
  21.1664319  50.6502581   4.6108410   5.1123720  53.9103842  25.5489898
   5.7258821  53.1770277  25.5940318   4.4408444  53.7010908  26.1982036
   5.2998412  57.5268412  35.0775862   4.6541771  57.4089193  34.3808484
   6.0366440  57.9633045  34.6499705  19.7293067   6.7004669  51.4913177
  19.9212062   7.4845928  50.9769678  19.3660915   6.0815030  50.8579206
  28.0836248  28.8138604  10.7833576  28.5754609  28.4177732  10.0640225
  28.7334108  28.9457440  11.4737332  59.5602322  54.8524523  34.5342541
  59.6291065  55.1576519  35.4388762  59.0217829  55.5133057  34.0988541
  41.4636755  20.0179362  56.9125319  41.9647169  20.8317924  56.9657087
  40.5499268  20.2941561  56.9832611  38.7918258  12.9340827  12.7022505
  39.5282125  13.3206427  13.1761026  38.1545496  12.7198195  13.3835757
  42.1369600  22.7383685  52.5789833  41.7234659  23.6010742  52.6104498
  42.3098755  22.5894094  51.6493893  28.9966846  37.2488999  15.1847649
  29.2403769  36.6425967  15.8842230  29.8227835  37.6533222  14.9197435
  44.0579510  61.1771727  59.5745754  43.1804132  61.3010406  59.2128849
  43.9387512  61.2474918  60.5217218  40.5830336  78.3865118  67.9670238
  40.0993443  78.6578369  67.1868563  41.2903118  77.8360271  67.6309395
  83.2421017  12.1325874   2.7642122  83.2219410  12.9995799   2.3590571
  83.1647587  12.3048747   3.7025970  34.6033096  20.7955194  23.2070065
  33.8623714  20.4080200  23.6729336  34.9544477  20.0793910  22.6777673
  83.6176395  54.3182707  38.2882118  83.4354210  54.5774460  39.1914606
  83.5630798  55.1334572  37.7894831  81.7608070  54.7507286  12.7258837
  81.4344978  53.8625860  12.5811398  82.1907330  54.9849510  11.9033682
   0.0976358  44.4285107   7.6179326   0.8101561  44.0994835   7.0699465
   0.3077548  45.3522730   7.7548593  24.8625565  72.8081083  55.8408403
  25.5589485  72.3483276  55.3719378  25.2654099  73.6293554  56.1228037
  12.6186085  23.8150883  43.9380026  13.5271859  23.8618731  43.6404610
  12.1035230  23.7894416  43.1316185  78.5968590  61.6460419  34.4268179
  77.9813433  60.9688950  34.7076082  78.5388422  61.6411638  33.4713912
  66.2132597  56.8048143  51.6783571  65.5530739  56.4979410  51.0568953
  65.8564854  56.5795040  52.5375319  56.0068560  75.8019638  63.0375528
  55.7731867  74.9670839  63.4432697  56.0714054  76.4145470  63.7702227
  10.0673866   6.8401045  23.5107994   9.6971810   5.9607816  23.4335303
  11.0075247   6.7165095  23.3800435  16.5910113  18.2719743  28.4172368
  16.9781685  17.5563276  27.9130626  16.4694405  18.9756322  27.7798080
  17.5154829  46.3703680  14.2045045  17.8079832  46.9473267  13.4989583
  17.7678359  45.4930496  13.9166403   4.2528707  51.6359806  21.8072629
   4.8404384  52.2038174  21.3087106   4.7944352  50.8849621  22.0499897
  39.2887568  44.2686224   4.1874844  39.5626044  43.4006023   3.8912135
  39.2078066  44.1829777   5.1374024  24.6792936  57.3034096   1.8676209
  24.3073559  57.6183987   1.0438024  23.9588046  57.3650789   2.4947768
  60.2344990  20.9725046  65.9861374  61.0663176  20.6405139  65.6483555
  59.8440742  21.4376426  65.2462435  59.5396280  71.7772961  63.1476164
  59.5940161  71.2569523  62.3460436  59.1609287  72.6104403  62.8670931
  64.9899292   2.7965236   5.7558340  64.8301649   2.1034157   6.3963878
  65.2132845   2.3309526   4.9498647  20.5253792  47.7060795  17.4041176
  20.1596761  48.3907747  16.8440402  21.1473894  48.1651640  17.9685438
  74.4292641  56.3888216  10.3782713  73.9666986  55.5570459  10.4803395
  74.3172789  56.8300533  11.2202966  62.3675489  57.3545218  67.1658659
  62.2282505  56.8711615  66.3515043  61.5571690  57.2300911  67.6598597
  41.2965155  65.5310631   1.3777392  41.4524317  66.0992289   2.1321335
  41.7150211  65.9844065   0.6459138  39.1494298  38.9549971   1.8518877
  39.3009543  38.0538630   2.1368940  39.9378181  39.1867185   1.3609883
  64.8476028   3.0802429  68.8393402  65.5455494   2.9171705  69.4737720
  65.2716351   3.5761052  68.1389475  33.0626678  37.0782876  26.1318278
  32.5247049  37.8684425  26.0819960  32.7142763  36.5983248  26.8831515
   9.7462159  39.4250512  67.0359182  10.5111277  39.9831557  66.8957043
   9.6675318  38.9189482  66.2272787   3.6435807  27.1316624  17.0457602
   4.5987052  27.0730424  17.0688415   3.3479807  26.2213326  17.0332909
  80.3114414  27.1250772  48.6969805  80.6888485  26.4020252  49.1979694
  79.9175072  27.6944780  49.3579149  80.3306484  34.2353892   9.9921066
  80.4931545  33.3666849  10.3597665  80.4799557  34.1295886   9.0525597
  22.8857064  33.9913273  33.2022023  23.2149839  33.8405848  34.0882516
  22.6574183  33.1193924  32.8799534  47.6145029  73.0093575   2.9885799
  48.3087873  72.9142618   3.6406237  46.8992805  72.4659109   3.3192685
  72.8136969  77.4875116  41.1289358  73.1293011  77.1320915  41.9597769
  73.6094236  77.6768684  40.6317425  76.2910748  34.6497345  33.6844754
  75.9190750  34.2991042  34.4937396  76.2278509  33.9276814  33.0592752
   1.2679182  54.1740179  10.7688904   1.7551793  54.7111511  11.3936269
   1.6707815  54.3665171   9.9222040  39.0999603  28.8675117  29.3647647
  39.7839284  28.9307499  28.6981153  38.3296704  28.5569596  28.8889027
  26.1864591  40.5091858  35.0131249  26.6941190  39.8746181  34.5073199
  26.7263985  41.2995577  35.0167274   8.9273334   3.0412048  37.5867915
   8.8045031   3.7947243  37.0094252   8.0834156   2.5896806  37.5741267
   6.7571664  69.3406343   1.5168755   6.1808413  68.6015606   1.3223301
   7.6407993  68.9951420   1.3901484  12.2518253  49.1330624  36.8594599
  12.5605381  49.8875189  36.3577461  12.4004126  48.3843279  36.2819219
   2.6389998  45.1764202  20.5305004   2.8604993  44.5620203  21.2302780
   2.6876205  44.6547174  19.7294426  23.2586551  41.3339329  44.7811556
  24.1615224  41.6247988  44.6528625  22.9139280  41.9148922  45.4592991
  82.3879147  52.9617739  21.1509466  83.0828762  53.6073208  21.0223365
  82.8000450  52.1222973  20.9468293  47.8649759  13.3287013  23.4684968
  47.0404434  13.0831468  23.8881183  47.8932953  14.2830777  23.5362792
  28.5025716  52.5086927  32.7829599  28.7049437  52.8161144  31.8993497
  28.3147550  51.5763283  32.6750183  64.6040154  16.5478539  61.7645311
  64.5544863  17.1827018  62.4791956  64.2546749  15.7388079  62.1382093
  28.2075191  31.1212802  40.8938122  28.7533116  30.4111028  41.2314415
  28.0697560  30.9003210  39.9727106   8.8532311  77.2453165  10.1187360
   8.9189976  77.6507950  10.9833121   9.7311789  77.3302460   9.7469479
  60.2123070   8.7831539   9.0929991  59.3430996   8.8541961   9.4875395
  60.4437399   9.6822262   8.8598871  25.2674747  57.6400280  20.8804798
  24.9524045  57.0181608  20.2245522  25.6067777  58.3752251  20.3699994
  21.2281752  63.0175686  28.2318091  21.0121536  63.1066036  29.1600537
  20.6589293  62.3141098  27.9198241  75.5566216  29.4716096  49.5918179
  74.8138762  29.9783826  49.2635679  76.3267374  29.9314046  49.2575455
   6.4230710   1.1819676  65.8294249   6.3240331   0.3225620  65.4197359
   5.9033418   1.7699194  65.2813101  30.6906247  71.9227266  42.7256298
  31.0693431  71.7364836  41.8664932  30.1298761  71.1688852  42.9087067
  19.9996769  20.9065270   6.4833444  19.0936530  21.2149978   6.4692450
  20.4535079  21.5225673   7.0584673  32.4794841  32.0973349   6.7811310
  33.1603599  31.4447951   6.9449365  32.7102447  32.4765706   5.9330976
  28.1734300  65.9606552  11.9670558  27.2857141  65.6233072  11.8470943
  28.1626940  66.8190670  11.5436816  36.8475747  72.1448660  62.2432232
  36.8481350  72.9210281  61.6830444  37.0223284  71.4179516  61.6454840
  57.9227924  34.1713333   3.4453911  58.0154848  33.8482022   4.3416202
  58.4272051  34.9847078   3.4306747  78.8021898  22.6263428  62.2235489
  78.8710165  23.3880162  61.6479206  78.9555359  21.8767762  61.6483402
  57.8559589  60.0402355  31.5596437  57.4757147  60.8326674  31.1805749
  57.1205091  59.6036100  31.9894147   1.0973765   3.3074793  40.7983828
   1.7576803   2.9204416  41.3732147   1.1851504   4.2509532  40.9339762
  41.0835314  32.3287344   7.1318078  40.2879429  31.9273615   7.4813432
  40.7859945  33.1514215   6.7433643  31.5028048  74.6427488  50.2704000
  30.6673026  74.5220518  49.8191833  31.3157201  74.4242477  51.1833572
  67.0720482  51.2034273  24.6379519  66.9222069  50.5178404  25.2889156
  66.6488075  50.8765364  23.8440704   7.7540302  21.2786555  53.4340477
   7.9654640  21.7072606  52.6046944   7.7755797  20.3431582  53.2325125
  32.5233340  63.3780766  30.0755739  31.8732023  63.7519073  30.6703949
  33.3409023  63.8190222  30.3066134  65.8914185  72.2312880  69.0476894
  66.1879253  71.9818640  68.1724167  65.4597378  71.4471531  69.3868351
  62.1467400  64.8003149  21.4335370  61.6307402  64.0216494  21.2245774
  62.9659653  64.6807861  20.9531069  61.0685921  79.1561508  50.0535154
  61.5320015  79.2481279  50.8859968  60.2195501  78.7839317  50.2918720
  65.8147287  20.0848460  14.8642969  66.4237976  20.7527137  15.1792848
  65.7608843  20.2357554  13.9206028  34.6431899   9.8563993  68.1588650
  35.5426550   9.6321136  67.9203463  34.5444083   9.5309138  69.0535927
   8.3467883  43.8812637   4.3065372   9.1383278  43.3701849   4.1377327
   8.2402629  43.8508368   5.2573043  25.6693244   7.5702912  68.4123325
  24.9715781   7.6370203  69.0641975  25.7732463   8.4621263  68.0805779
  45.9543419  49.4079924  28.4644914  46.6588831  48.9569950  27.9992461
  45.1517963  49.0076208  28.1300497  31.7139721  25.2107763  20.0594616
  31.1225128  24.9463987  19.3548250  32.3817158  25.7415724  19.6251750
  40.9035730  48.1924629   1.0680272  40.2724266  48.5967922   1.6633445
  40.7947779  47.2516155   1.2065914  44.7316837  50.9424925  10.1763725
  45.6396055  51.1614561  10.3860581  44.7002316  49.9866867  10.2173090
  62.3517942  74.3131351   4.6516415  61.9267178  74.1406488   5.4917544
  61.6402197  74.5942163   4.0764177  11.1334646  23.6151624  65.1310110
  10.7211101  23.4540176  65.9796715  10.4135585  23.8902736  64.5633125
  38.6010528  11.5812159  67.9869318  38.2543468  10.6982565  67.8588390
  38.3044386  11.8303514  68.8622522  70.4971218  16.0054040  64.2559290
  70.4965401  15.4638684  63.4666443  71.4239979  16.1360359  64.4560862
  37.8593421  42.9714394  28.1234622  38.1569266  43.6198807  27.4853420
  37.9201198  42.1353292  27.6614475   2.4055360  69.8213196  55.1564741
   3.1039172  70.4712200  55.2347326   2.4197052  69.5643520  54.2345190
  42.6477575  24.2280746  67.0243788  42.8399992  23.3661628  67.3936844
  42.5612164  24.0718365  66.0839891  64.6768522   0.6633778   7.4679071
  64.6534920  -0.1478262   6.9603300  65.5361986   0.6574658   7.8894800
  31.1345363  76.8749475  56.0243797  30.3204513  76.9336128  56.5244341
  31.8133616  77.1556139  56.6381025  55.0275517  53.3968973  21.2304211
  54.0862608  53.3593750  21.0607171  55.2134848  54.3289757  21.3439751
  74.1531181  58.3798170  52.9516745  74.5826006  59.0005779  53.5402632
  74.8496199  57.7783871  52.6882410  83.3983612  23.1807208  63.1645823
  82.9331970  23.8431811  62.6536942  82.7608776  22.8899789  63.8167524
  70.4254293  59.1499281   8.3169276  70.9936333  58.7217855   8.9572972
  69.9776936  59.8345757   8.8139379   3.6296728  41.2625551  18.0411208
   2.7067453  41.1105108  17.8378487   3.6318189  41.5277863  18.9608371
  71.0830641  17.0023680  57.3721600  71.0653114  17.9453468  57.2087336
  70.7897520  16.6111124  56.5492868  58.7937641  46.4968824  22.6344848
  58.0102587  46.5955019  23.1754327  59.5218611  46.6398668  23.2391810
   4.5675501  65.1672459  48.0939674   4.5478022  64.4068050  48.6749792
   5.2995133  65.6944084  48.4142160  24.3781328  15.9141147  12.6162386
  23.9800882  15.6971347  11.7732012  23.7190199  16.4457130  13.0625653
  40.5858421  73.2596874  25.9171414  40.5160236  72.3427629  26.1828518
  40.7869244  73.2234192  24.9820042  58.3467102  27.1481490  16.7769611
  57.8134060  27.4253702  16.0319996  57.9242897  26.3480234  17.0893586
  49.7438669  20.8041000  64.8110723  50.4973555  21.1699462  64.3477821
  49.9728727  19.8856115  64.9530840  69.1706944   3.5327449  39.6016383
  69.3034267   2.6882485  39.1710114  68.2776880   3.7840945  39.3658495
  28.7951589  29.4991827  38.4064412  28.1157899  28.9790678  38.8355899
  28.3531499  29.8995519  37.6577306  70.2131128  36.8523812  30.4345393
  70.8061886  36.2496281  29.9860096  70.7172632  37.6609254  30.5257487
  51.0594082  70.4487848  19.9508774  51.5205240  71.1854792  20.3519845
  50.8682680  70.7422543  19.0600491  74.6720362  74.3647337  59.9946785
  74.1510057  75.1645660  59.9238062  74.2323160  73.7405062  59.4174290
  79.2618990   6.6406614  67.4222422  78.7352943   7.4354851  67.5069332
  80.1666927   6.9435370  67.4987030  29.0600443  17.2102046  53.0385256
  29.9432135  17.1194005  53.3962965  28.7409425  16.3114214  52.9573202
  45.5959892  65.2490711  61.2377453  45.2040577  64.7671175  61.9659901
  45.5743742  64.6342611  60.5044174  56.6594982  23.8817978   1.0188259
  57.4605751  23.3861613   1.1886965  56.1540508  23.8047600   1.8280339
  72.7522230   6.5709376  30.2659512  72.0939684   7.1852124  29.9409914
  72.3804474   5.7065105  30.0905108  58.4049749  66.3139105  56.0454130
  57.7095556  66.1722136  56.6877079  57.9569435  66.6848850  55.2852297
  53.9149857  38.7511587  11.9541049  53.9361095  37.8013945  12.0712864
  54.7589445  39.0527892  12.2902334   0.1060788  68.7670135  52.9199123
   0.9251077  69.0419245  52.5077868  -0.2665473  68.1297493  52.3105860
  52.5120783  69.7795153  42.1207952  52.4518013  70.4306889  42.8197718
  51.7692757  69.9726534  41.5488100  39.5544505  67.6083136   7.4970657
  39.6801949  68.0404186   8.3418763  39.1838074  68.2874584   6.9334882
  39.9417281  73.4757996  58.2031488  40.6345320  73.9633274  57.7575350
  40.0283051  73.7238216  59.1235924   3.3839017  13.3409381  67.1676970
   3.6438838  13.5572124  68.0631685   2.4272653  13.3214390  67.1941233
  16.3321805  51.3524199  64.3395519  15.7290900  50.7854509  64.8202419
  15.7773018  51.8139219  63.7107801  61.2171841  52.9704237  14.8902714
  61.4113665  53.1473398  15.8107209  61.8889046  53.4515524  14.4070125
  17.2996044  43.8810968  62.5021029  17.3610520  44.0962791  61.5714264
  16.7671537  44.5833635  62.8756618  83.9725208   0.2576194  43.8219976
  83.4585094   0.3936902  43.0260658  84.1922474   1.1406172  44.1190910
  41.3066721  59.9862432  14.7462559  40.7283401  59.2440224  14.9219525
  41.9665718  59.9447775  15.4383886  53.7324667  64.0078020  14.4191527
  53.8356876  63.9158201  13.4719896  53.8229609  63.1170082  14.7575724
  47.7152681  51.5749931  29.1416883  48.2999563  51.1042500  28.5477400
  46.8361759  51.3042831  28.8768506  39.4782734  39.6813083   7.0659065
  40.3791332  39.8865914   7.3159945  39.1537952  39.1253829   7.7743477
   1.5263838  30.3349423  62.7806377   0.5741926  30.3165340  62.6845884
   1.6701455  30.4553747  63.7192822  78.7753153  49.8210239  41.0704803
  78.5255957  50.0247240  40.1691580  79.5124149  50.4039812  41.2523651
   0.5015484  25.4434967   3.5064703  -0.2251184  25.1845169   2.9397994
   1.2000112  24.8227119   3.2990891  54.4835997  44.2511320  14.7620618
  54.9972534  43.4726572  14.5467198  54.4550228  44.2621326  15.7187724
  27.8287196  69.6639681  35.4167485  27.9468012  70.5896664  35.2037382
  27.5317216  69.6635818  36.3267088  56.4693451  50.6028843  11.7895126
  55.7356739  49.9885511  11.8131161  56.4681292  50.9431505  10.8948350
  60.7479954  59.0276051  35.9769821  60.1093149  59.6382236  35.6089258
  61.5391970  59.5525885  36.0978961  16.9185209  46.3238144  41.8326759
  17.1822762  47.1327591  41.3941860  16.4923251  45.8082390  41.1480093
  24.6959734  54.9230003  27.3896933  24.1925907  54.8353815  26.5802717
  24.4328690  54.1694975  27.9181242  51.8218946   5.7041466  32.7768421
  52.5725985   6.2419677  33.0286860  52.0585346   4.8185354  33.0523920
  19.7456300  26.9380045  27.1971154  20.5535412  27.2998810  27.5611997
  19.1203272  27.6617026  27.2356725  59.1725016  16.6577244  56.7440128
  59.9582481  16.7843151  57.2758150  59.3694830  15.8922911  56.2040710
  43.7827873  65.6925058  22.6966405  44.5408154  65.8462095  23.2605577
  43.6770058  64.7411823  22.6915765  76.5186262   0.5689772  26.6925073
  76.0786247   1.0528791  27.3914099  77.3885250   0.3788826  27.0437503
  25.8192134  32.9287124  65.2152252  25.0971031  32.3553753  64.9581814
  25.6687021  33.7375188  64.7259331  18.2985973  48.5926247  51.3244057
  18.7915576  48.3435583  50.5426216  18.8513100  48.3145618  52.0547628
  23.7516999   8.0963546  62.6272631  24.2893696   8.8761240  62.7654743
  24.1276097   7.4393070  63.2131100   3.4075838  62.8648710  61.9199610
   4.2274612  62.8064203  61.4294338   3.6682400  62.7621651  62.8352451
  72.1174765  61.5645123  60.0522184  72.4309158  60.6657028  60.1528358
  72.5422621  61.8783522  59.2539120  54.2838335  44.4547558  32.2468376
  54.8162079  44.6857595  33.0080509  54.6475124  43.6228228  31.9437695
  17.0537806  59.3625736  12.9413795  17.0072746  58.8817263  12.1150291
  16.5116906  60.1383257  12.7979207  34.0228200  18.9848673  64.8348427
  34.9035954  18.8376522  65.1795053  33.4401321  18.6395848  65.5112219
  42.9798126  73.6773682  13.2716286  43.2802343  74.5835304  13.3412349
  43.0378008  73.3365774  14.1642261   8.6340976   2.6610470  68.2388020
   8.7877363   1.8518025  67.7512074   9.0854961   2.5278366  69.0723038
  18.4160483  46.1350822  36.7159104  17.4722147  45.9757614  36.7108965
  18.6117339  46.3863993  37.6185608  67.9890823  72.2832251   4.9594831
  67.3529530  71.5803576   5.0919455  68.3492517  72.1191835   4.0879324
  50.5789328  53.8410521   3.2883167  50.5002165  53.7903929   2.3357049
  50.7212734  52.9359436   3.5653532  78.4144592  39.8328018  67.1497774
  78.6540508  39.7576475  66.2261009  78.9281797  39.1534066  67.5865173
  63.4164667   1.8354237  23.3371162  63.1972599   1.4091405  24.1656470
  63.5862494   1.1123596  22.7333093  15.1621532  68.8507271  61.3374805
  14.7614586  68.4848833  60.5489159  14.4278884  69.2132425  61.8331337
  21.0380292  20.7472539  34.1232920  21.7312717  20.0900126  34.1839790
  20.2678490  20.3181195  34.4959807  31.6530919   6.7497355   5.2834183
  31.8970466   7.4080902   4.6328136  31.0962772   6.1352909   4.8052475
  44.2284727  49.2721033  39.6985245  44.4701004  49.4985294  40.5966234
  43.4789467  48.6843109  39.7930980   5.3973192  51.3245249  38.3321691
   5.1563174  50.6499863  38.9671087   5.6039220  50.8388948  37.5336003
  50.9598064  36.8711686  64.5063257  50.5492210  36.2458277  65.1034832
  50.3940010  36.8719959  63.7342501  64.9338007  27.4683475  17.1698713
  65.1786280  28.2158446  17.7153420  64.2511082  27.8076315  16.5910399
  46.0842562  59.7085857   2.9277265  47.0091009  59.4621944   2.9413259
  45.9472656  60.1705170   3.7548229  51.5853024  49.4319725  30.1821947
  50.8415031  49.6862793  30.7283854  51.4985180  49.9686766  29.3943810
  21.1864400  55.6545925  21.6843581  20.3082299  55.5944872  21.3083744
  21.6848278  54.9690008  21.2396097  55.7223749   1.5543793   0.3443748
  55.2185345   1.2704769   1.1071181  55.4345894   0.9756944  -0.3616947
  35.3716135   0.4740594  35.9900165  34.7243738  -0.1997383  36.1981249
  35.2635431   0.6282625  35.0515223  44.8915482  75.5715799  17.2189736
  44.6820831  74.8169422  17.7693212  44.7483397  76.3289976  17.7864623
   7.6895463  51.8244457  41.1356354   6.7826664  51.9813061  41.3986874
   7.8038311  50.8780670  41.2224293  62.0287800  69.7414923  19.7747815
  61.3596582  69.8287773  19.0958917  62.0956659  70.6156635  20.1589465
   3.3874881   8.5750955  56.9299984   3.1431344   7.6497388  56.9454288
   4.3084782   8.5839945  57.1906328  65.0476217  45.4787922  50.6619215
  64.6171665  45.8502626  51.4319563  64.3887901  44.9031258  50.2736139
  20.3043985  44.4803286  22.4318957  20.3341079  44.1049242  21.5518856
  20.1084423  43.7373781  23.0027366  28.4040070  67.2289276  21.7627168
  27.9693699  67.1258640  22.6092982  28.7460947  68.1228113  21.7763615
  56.7030621  49.7339821  31.0853601  57.0021200  48.8718081  30.7964778
  56.1677933  49.5551777  31.8585014  73.8099098  13.0650914  57.5473022
  74.5578527  12.4735105  57.6300478  73.8654661  13.3975565  56.6514158
  15.2294993  64.4498920  26.8306971  15.7889402  64.4258451  27.6070213
  15.8342123  64.6011972  26.1042953  36.5484142  56.7101431  17.8145850
  36.3819051  57.5641108  17.4155295  36.2590265  56.8091011  18.7216091
  41.0280037  48.2709074  33.8546133  41.0323191  48.9476442  33.1776762
  40.3984118  47.6219273  33.5404825  69.9561214  24.1089129  44.8441505
  70.8001041  23.8475513  45.2124119  69.3565941  23.4070325  45.0974607
  17.5808048  69.7223377  30.6642771  16.8053091  69.5823765  31.2076449
  17.6834738  68.9041901  30.1781392  24.4211721  33.9236760  23.1679773
  24.6818876  33.3735180  22.4293399  25.2449512  34.2694163  23.5116124
  18.8772285  63.8137770  26.3489890  18.9284408  63.0013943  26.8526244
  18.1405163  63.6798716  25.7527018  18.5044837  64.9176645  22.9545760
  18.3047009  63.9818096  22.9767537  19.0309215  65.0315094  22.1632910
  15.5176628  62.9355860  22.7315903  15.4767287  63.0117559  21.7783046
  15.0743747  63.7203693  23.0538297  51.5267944  70.9420347  38.3411574
  51.0994625  70.7741165  39.1810513  51.5481424  70.0885105  37.9084110
  77.8208351  45.4936504  33.3762217  77.1521521  46.1783743  33.3921146
  77.7058172  45.0272894  34.2041755  75.5660248  78.1669474  26.3023520
  75.3292370  77.7627993  27.1371126  75.5433035  77.4465466  25.6724834
  14.0253568  37.8336024  10.6840944  13.3785856  38.0697370  11.3490450
  13.6475658  37.0734096  10.2418113  47.2923994  57.3370361  48.8771248
  47.4165106  57.0657873  47.9675913  47.9702663  56.8663359  49.3620634
  23.8380694  72.2434902  40.4467344  24.1216588  71.3719511  40.7228279
  23.3256435  72.0884418  39.6532536  64.5115662  52.5309420  19.5154667
  64.2297888  53.4302044  19.6832860  64.2575121  52.3658371  18.6074877
   2.6836127  33.1609011  61.6173887   2.7970231  32.8042316  60.7363939
   2.3468579  32.4269867  62.1313906  25.2349281  68.1397104   2.9239845
  24.6698451  68.3214808   2.1730691  24.6352386  68.0891180   3.6683264
  47.1715164   3.7765232  30.6151199  46.4988184   3.6261350  29.9509740
  47.1970844   2.9628751  31.1186624  51.1787319  54.1906452  15.4041553
  52.1043921  53.9721346  15.2962554  50.8698702  54.3699598  14.5160794
  43.4188509  53.8100386  25.2134728  43.4859705  54.6452904  24.7507834
  42.6235104  53.8910675  25.7398725  79.9876356   1.2974064  56.8448353
  80.3541183   2.1397159  56.5756893  80.6449699   0.6543276  56.5791321
  53.7072945   3.6358771  19.0745389  52.7541161   3.7227508  19.0629196
  53.8959789   3.1765476  19.8928583   4.7888026  67.7718210  51.3813210
   5.4728109  68.2227373  51.8763351   5.0894243  66.8645477  51.3292360
  14.1974211  72.5689602  23.5770512  14.6034372  71.7211723  23.7577105
  14.8951375  73.2061386  23.7300992  30.6332469  65.8237362  20.9875083
  29.6813583  65.8827114  21.0691118  30.9627962  66.5768385  21.4778805
  31.6466641  14.2777765   3.7275285  31.8250418  14.0510023   4.6402097
  31.7586780  15.2276778   3.6904639  11.3730299  52.1759367  19.5451248
  10.6768572  51.5434885  19.3674088  10.9271395  53.0226088  19.5687616
  11.3092995  34.6484804  57.6630688  11.4926422  34.1398692  58.4529638
  10.3694928  34.5373392  57.5194025  80.0330639  70.5636311  64.1792488
  79.5788717  69.8358631  64.6038628  80.0583172  71.2511730  64.8447418
  71.5059328  36.4223146  42.2110176  70.8470535  36.5652823  42.8904819
  71.3560390  37.1263862  41.5801096   0.7246196   6.3718849  44.9115753
   0.0837522   5.6853777  45.0965834   1.4036110   6.2508613  45.5753183
  31.1503005  64.0457392  23.1704116  30.6175423  64.3906069  23.8869786
  30.8356762  64.5085144  22.3938274  56.5119982  67.7535868  26.4948916
  57.4273109  67.4758339  26.4590979  56.4102650  68.1311607  27.3685718
  76.1961651  20.5024600  22.0319247  77.1399403  20.6597400  22.0599842
  75.9997892  20.0744891  22.8652978  32.5565529  50.0791073  11.5110350
  33.3428597  50.3516293  11.0380816  31.8518996  50.1542664  10.8675694
  57.2282743  22.3255825  24.4031286  56.3891888  22.5900626  24.7802401
  57.8585482  22.4454665  25.1134920   6.9669282  69.9531937  39.0280056
   6.6017699  70.7223368  38.5906124   6.4142269  69.2276192  38.7376785
  67.9008627   8.3099771  17.3466885  67.2391510   7.9060036  17.9080927
  67.5114822   8.3001882  16.4723217  51.9623280  57.3125029  17.0164382
  52.4557495  56.9468021  17.7506268  51.0965204  56.9102430  17.0856845
  18.4742272  75.4960346  37.2677565  17.5385582  75.6752682  37.3606563
  18.7001824  74.9914789  38.0491686  40.2758646  77.9798794   7.3071063
  40.3045034  78.8433838   7.7191389  41.1784410  77.8144360   7.0346874
  67.6950979  65.8884478   8.1630898  67.1917152  65.7888794   8.9711273
  67.1770859  66.4924860   7.6310867  15.8567929  15.4235411  63.3938313
  16.1979043  16.1988759  63.8396215  16.6304505  15.0036931  63.0177784
  50.3911114  53.5714388  24.6803260  50.6582785  52.7592945  24.2498922
  49.6707392  53.9013910  24.1432714  68.3641672  17.3685205  26.3844228
  67.8570747  17.2192466  27.1824241  68.9887619  16.6436493  26.3584352
  40.5234861  49.8065996  14.8238218  40.8605337  50.5770111  15.2810919
  40.7254362  49.9677181  13.9021444   8.3185351  19.5837617  58.1067324
   8.7710524  20.3599977  57.7767086   9.0015650  19.0769255  58.5458469
  74.0751123  10.1213074  61.6499090  74.7239733   9.6353936  61.1408854
  73.2455778   9.6822119  61.4620399   0.9106942  31.0138249  21.2748027
   1.2931201  31.6169596  20.6374550   1.3765636  31.1998010  22.0900393
  62.9812002  52.7963209  47.1184969  63.2727623  51.9676208  47.4986076
  62.9670620  52.6352549  46.1750507  28.3606482  35.6637931   3.4011224
  28.3280540  35.2650547   4.2707071  27.6894116  35.2006507   2.8999507
  32.0963788  36.2293816   8.1859499  32.3259234  35.3360653   8.4419268
  31.3016415  36.1315298   7.6614976   5.4386967  14.6605492  48.2366610
   5.4029679  14.3441713  47.3339653   5.4894274  13.8654983  48.7672758
  39.2335773  32.4159479  11.1927986  40.1394272  32.5661230  10.9223938
  39.2916536  32.2244620  12.1288502  76.6515493  17.1734262  22.0476484
  75.9845448  17.4222982  21.4078021  76.3635206  17.5806773  22.8646064
  42.5155926  71.4859200   9.4557005  42.2743750  72.1032238   8.7650645
  42.1162081  71.8449450  10.2480555  46.1063671  57.7108383  29.4055247
  46.7895365  57.2497749  28.9187646  45.3090143  57.2108173  29.2310548
  28.5564351   4.4300929  65.4199982  28.4758282   5.3821325  65.3620768
  27.6886368   4.1324186  65.6930304  48.4628534  48.6446905   9.2713648
  48.5425854  47.9222393   9.8942137  48.6880922  49.4244051   9.7788501
  48.1526518  49.3173742   6.4952672  48.3272600  48.6898518   5.7938695
  47.7989101  48.7865782   7.2089589  49.9520445  31.8640399  14.7603106
  49.1097689  32.3053932  14.6507335  49.7395754  31.0543656  15.2245486
  82.6284599   8.6771923  35.7744551  81.6724586   8.7087792  35.8104515
  82.8341770   7.7465880  35.6856465  30.0568748  47.6847792   7.5568140
  29.1723704  47.8200006   7.2168106  30.2929115  46.8036842   7.2666562
   4.7449103  79.5389080  46.9022131   4.5605808  78.7379932  46.4115047
   4.1183257  80.1776791  46.5622139  34.6732020  51.7399359  32.0000434
  35.3648615  51.0956717  31.8491673  35.0813031  52.5815439  31.7966223
  71.7593765  42.8119516  61.8603086  70.9476042  43.2231045  62.1573114
  72.3680353  43.5412407  61.7424059   6.9734895  51.2331724  11.9723976
   6.4193624  51.7807913  12.5285351   6.7355198  50.3360462  12.2064304
  20.9380794  66.1139917  26.0867047  21.5247989  65.4164648  25.7943869
  20.1253676  65.6631041  26.3156796  19.6780372  35.5109310  26.7843175
  19.6755898  36.4273143  26.5077949  18.7650359  35.3243089  27.0030236
  71.1889458  62.2803640  17.0632875  70.6896639  61.4666414  17.1325612
  71.3383055  62.5476694  17.9701900  19.1325617  17.2989559  62.6692343
  19.0726936  17.9929316  62.0126915  19.1593337  17.7626956  63.5061693
  73.6495256  27.3658204   4.8127282  73.7077475  27.1851158   5.7509112
  74.4824982  27.0561886   4.4570318  56.9382858   3.5098207   8.3976734
  57.7100706   3.0169261   8.1190515  56.7619991   3.1972921   9.2850751
  35.1004219  47.9399872  30.9506750  35.7775354  48.5770226  31.1785603
  34.7723818  47.6271868  31.7937517   2.5833315  14.3153942  31.3361645
   2.2603120  13.9366853  30.5185652   1.7926827  14.5030510  31.8420219
  40.3547192  79.0832901  10.6291974  40.5383205  79.5594883   9.8194116
  40.0915289  79.7613907  11.2514031  48.7891197  60.1732397  21.1435008
  49.5001698  59.8787212  21.7126250  47.9907942  59.9232864  21.6087198
  48.9219761  68.4058905  41.5882158  49.7639132  68.3121109  42.0338345
  48.2863092  68.0261898  42.1948338  74.0750790  47.9367304  23.7046075
  73.8902855  47.6541138  22.8089452  74.7902918  48.5664558  23.6143064
  23.6507726  72.4492645  15.7714260  23.3295560  72.9947472  15.0534415
  24.5359063  72.7722406  15.9401190  63.6337185  41.4142799  14.8214865
  64.5223761  41.0587072  14.8122633  63.1237602  40.7981825  14.2955649
  37.1576595  79.2274237  13.7420475  36.6227579  78.6716223  13.1753087
  37.9977751  78.7723589  13.7999403  66.6173792  53.9894676   4.6659198
  66.9604397  54.8749828   4.7859344  65.7374096  54.1193962   4.3123668
  19.7843146  49.4285440  22.8434968  20.3625846  49.3553448  23.6027575
  19.5970309  48.5228205  22.5968647  36.0262561  25.0874925   0.5805070
  36.7558742  25.3561616   0.0222003  36.2248325  25.4705048   1.4349660
  31.0010195  63.2292891   7.8977096  31.7626619  63.2213831   8.4774262
  30.2614260  63.4144592   8.4764552  32.6904631  75.0056314  41.7654037
  32.4470258  74.1013479  41.9634819  33.5267663  75.1321840  42.2135258
   7.4627268  70.1398706   4.1610411   7.3042381  69.2677498   4.5223159
   7.3549867  70.0309229   3.2161844   3.1269988  18.8866687  41.4487457
   2.8423601  18.3218086  40.7303143   3.1889284  18.3013022  42.2035599
  18.4273720   0.1694422  49.3853951  18.7253296  -0.0186848  48.4954166
  19.2333508   0.2941486  49.8864698  62.7106333  57.0562506  13.3219957
  62.1913099  56.7934084  12.5620949  62.0821476  57.0845747  14.0434074
  19.6359968  26.2576771  30.0435066  18.8415682  25.9334517  29.6192527
  20.1034260  25.4669929  30.3128767  66.1110973  59.4070959  29.8561954
  66.1119270  58.6445618  29.2775965  66.6441584  59.1401100  30.6050563
  60.2712774   8.7728840  34.6588635  61.0392809   8.5640132  34.1270995
  59.9892902   9.6321547  34.3452263   0.4046535  68.6458158  11.6706586
  -0.3762354  68.4862185  12.2007287   0.9292524  67.8515959  11.7718494
  27.1747875  77.7189207  18.7824750  26.4701271  78.3548403  18.6588192
  26.7704940  76.8729496  18.5898292  31.4449406  56.0046625  12.5360501
  30.9998274  55.2176476  12.2218668  31.7501307  55.7731676  13.4132636
  20.0357127  48.5163355  60.2737474  19.8680282  48.8061666  59.3770266
  19.7673321  49.2560863  60.8186960  27.4294329  16.5939891   5.7738864
  27.5945473  15.7316172   5.3927261  27.9614687  17.1931422   5.2502590
  33.5939813  55.9010792   3.1409201  32.9679799  56.2881565   2.5289339
  33.7860394  56.6028261   3.7629288  36.0441732  64.3626404   3.1419790
  36.3322544  64.7232819   2.3034208  35.3851938  64.9821091   3.4554043
  58.4403133  71.8416929   3.9438125  59.2486477  71.6882324   3.4546518
  57.7877522  72.0395470   3.2720661  64.9940491  45.6448793  32.2003865
  65.3305149  46.4164066  31.7445731  64.5818901  45.1214314  31.5131044
  13.8090563   3.7398025  55.0134945  13.3192694   3.8666353  55.8260584
  13.3305073   3.0523607  54.5501995  64.0064287   3.2086486   9.5118856
  64.8098707   2.8935510   9.0978515  63.9940500   4.1477245   9.3269116
  76.2770796   1.1964370   0.6668213  75.5696106   1.7260113   1.0346141
  76.8324804   1.8253964   0.2062006  42.5442553  51.7975712  11.7162204
  43.3178616  51.3462210  11.3785148  41.9408655  51.0935211  11.9538510
  80.7289505  44.8883533  48.9326143  79.9882364  45.4119396  49.2382908
  80.3308010  44.0907049  48.5840893  21.6087866  62.2212982  54.5616055
  22.4300146  62.5683165  54.2131901  20.9286785  62.7456331  54.1388035
  55.0583601  75.4580545  68.2860899  54.7032690  75.9478569  69.0278721
  54.3143988  75.3471947  67.6940918  36.3612437  36.9074178   6.9110447
  36.4490628  37.4340296   6.1165631  37.2239995  36.5109086   7.0321548
  58.0281496  10.5794919   4.2104462  58.4181070   9.8082370   3.7989467
  57.1100807  10.3425276   4.3417060  19.9348700  15.3598773  17.0495892
  20.4675865  16.1067152  17.3228598  19.2014802  15.3509772  17.6646435
  58.7425756  60.2104425  55.3081560  59.1724825  60.1049566  56.1568546
  59.3969297  59.9240160  54.6709633  72.1235514   8.5739785   3.5658333
  72.1226788   9.4265360   4.0010077  72.7115822   8.0353922   4.0953436
  34.2783880  76.5942860  26.4295816  34.8909974  75.8896017  26.6402006
  33.4138560  76.1900711  26.5032363  78.3962059  20.9571648  65.9081650
  77.9951572  20.8031821  66.7635489  77.8061867  20.5306387  65.2867270
   8.9749753  16.0718143  65.7126427   8.2161736  16.4641869  65.2807903
   8.6101514  15.3586090  66.2365437  56.2865305  18.1142867   5.8583534
  55.6602478  18.6882126   6.2995011  56.9898796  17.9921961   6.4960229
   8.2815444  27.5420070  64.7286606   9.0942889  27.0775795  64.5286989
   7.8343761  27.6161027  63.8855839  43.1939650  56.2345982   4.1582826
  42.7185678  55.6540632   4.7525993  42.5813770  56.9480133   3.9793831
  38.3102417  63.4987879  37.9751062  38.2858229  64.4224930  38.2249069
  39.1113758  63.4114504  37.4585915  16.5309405  66.0207367   3.5713091
  17.0063460  65.3447819   3.0882931  17.0636618  66.1774397   4.3509787
  18.2939029  62.3441029  21.4215446  19.2333210  62.1948195  21.3145876
  17.9416025  61.4881563  21.6654110  73.5927582  55.3951597  16.9845557
  72.9520893  55.8408451  16.4303517  74.3900871  55.9174109  16.8965006
  10.7746494   3.8739809  16.6647530  11.5840006   4.3678048  16.7963588
  10.1081991   4.3773800  17.1323693  20.2359772  44.0393305   9.1586530
  19.6479750  43.2991505   9.3090498  20.2491331  44.5081615   9.9930739
  39.6384978  62.7749062  11.8917763  38.7414312  62.7992487  12.2248137
  40.1820803  62.9795885  12.6526022  17.1141922  68.8822746  18.3275461
  17.0881510  67.9256678  18.3060324  17.7619362  69.0891504  19.0012383
  77.6107550  54.6643066  42.3870468  78.1980705  55.4091740  42.5153589
  77.0215082  54.9419546  41.6856670  26.4334130  73.1713533  16.0163915
  26.4726543  72.5706959  15.2721453  26.1829400  74.0118408  15.6328952
  35.3286290  71.8057680  14.8380017  36.1053300  72.3612547  14.7716749
  34.9531245  71.8129635  13.9575613  24.8583317  25.6714439  57.0847988
  25.0711608  24.7491550  57.2273397  25.2164364  25.8689046  56.2193537
  15.8095860  49.5597792   1.7586495  16.4701498  48.9623213   1.4080292
  15.7284880  49.3131590   2.6799712  71.3095474  71.3435602  39.7492933
  71.4938688  71.4951992  40.6762552  71.1040878  70.4102182  39.6955085
  65.3536940  10.2272391   5.7528400  64.6798515  10.7443881   5.3115606
  65.3638554   9.3945050   5.2809471  31.5586281  60.7648945   6.9535184
  32.4303770  60.5323982   7.2732574  31.4635658  61.6924095   7.1701163
  44.4296217  15.6602311   1.6239643  44.8802567  15.9189796   2.4278358
  43.6755896  16.2476003   1.5724052  48.4517622  75.6470633   2.4903648
  48.3484507  74.7858715   2.8952169  47.9934740  75.5746651   1.6531312
  46.1883068   0.8072197  20.3962541  45.9765959   0.4607619  21.2630749
  46.1896992   0.0390971  19.8250997   9.4815028  65.1042461  55.9627676
   9.3209636  65.1618671  56.9046497   8.9537764  64.3593168  55.6749821
  43.5833120  63.8458347  36.4942312  44.2584991  63.5746479  35.8722901
  43.8052559  64.7519064  36.7087221  30.5286098  47.6463842  12.4422896
  30.9292674  47.5717831  13.3083940  31.0320091  48.3323526  12.0038009
  36.9471121  56.5806913  28.7072849  37.1577573  55.6593561  28.5556221
  37.1126199  56.7137289  29.6406341  48.8581324  72.0439339  28.3613038
  49.8048592  71.9496965  28.4664655  48.7519884  72.8542042  27.8628755
  63.3881903  48.7357473   1.6906956  63.6966991  49.0552711   2.5386101
  63.6978674  47.8310108   1.6485761   1.2765914   0.7835462  27.5993204
   0.8015688   1.0246301  28.3945966   0.6602360   0.2410556  27.1073437
  28.7889409  78.0546474  25.6806040  28.5568476  77.9107809  26.5980291
  28.1403232  78.6840296  25.3653193  36.2997174  56.4426470   9.6352148
  36.4213681  55.5070400   9.7967035  37.1875739  56.7998171   9.6160299
  54.1558170   1.3530481  43.2408571  53.3115578   1.2314110  43.6752176
  54.6749449   0.5951592  43.5098267  68.4270096  63.6393881  11.9984317
  67.6917028  63.4158373  12.5690269  68.2579803  63.1563044  11.1895502
  18.4938312  69.5363140  11.9324696  18.3104074  68.7451458  12.4390674
  19.4447684  69.6353102  11.9788325  29.0495181  36.6370702  62.9930305
  28.1737924  36.3911343  63.2911110  29.2010522  37.4991727  63.3803940
  43.1995964  21.3194823  37.9798365  42.4226284  20.7605839  37.9935336
  43.4523582  21.3556910  37.0573235  10.4494536  66.8537235  54.1288567
  10.0526941  66.2344933  54.7415304   9.7213966  67.4031115  53.8384485
  69.0902328  36.8540120   8.8145143  69.9731159  36.8657517   9.1841167
  68.6369324  36.1640358   9.2989576  39.6989965  77.8035402  13.8346326
  40.5792141  77.9309464  13.4807694  39.8199940  77.1968222  14.5650339
  69.5539713  27.8359127  13.5868788  68.9383173  28.5433602  13.7784982
  69.0174341  27.0432448  13.5930824  37.4851990  50.6449270  33.9038968
  37.9657769  51.4137697  33.5970473  37.4297237  50.0752211  33.1366992
  36.2256312  62.5552177   5.5657208  35.6527209  62.2654963   4.8557428
  37.0765662  62.6877499   5.1478964  58.9051437  60.3685617  18.9476204
  58.9332819  61.2738657  18.6379981  58.2403469  59.9491596  18.4013784
  35.6097865  57.7181339  20.2224278  35.1201344  57.7870989  21.0420108
  35.5999088  58.6048985  19.8621762  72.3971415  11.9507515  54.2616510
  72.8390884  12.6988423  53.8600636  71.9402838  12.3199141  55.0174522
  83.7071609  54.6264076  30.0133824  83.7756348  55.0994349  30.8427143
  82.8334236  54.8410511  29.6866608  61.5182638  64.1244459  53.9659786
  62.0194578  63.3606863  53.6801338  61.1987686  64.5187140  53.1543732
  19.9946570  48.1744671   6.8989778  20.5035996  48.9838314   6.8526655
  19.0989459  48.4643459   7.0719099  50.8842468  56.1586428  21.9575095
  50.7766581  56.1136627  21.0074377  50.0319910  55.8991861  22.3076129
  46.3835430   8.6117601  41.4777756  45.9255075   8.2594180  40.7146978
  46.8589735   7.8633374  41.8384171  43.2427931  71.4690733   4.7484249
  42.9064178  72.1181583   5.3662992  42.5707197  70.7878208   4.7271594
   0.5605185  59.8546076  65.0804758   1.4756089  59.6187735  64.9280834
   0.5350409  60.1371479  65.9946728  18.5937190  72.3158455  16.4200974
  18.2797348  73.2161379  16.5044868  19.0652299  72.3037148  15.5871725
  79.9192572   7.0069063  27.4584317  80.6543446   7.5469977  27.1682954
  79.8701143   7.1565038  28.4025908  30.9968138  53.0889511  19.5724761
  31.6825461  53.7064886  19.3182158  31.4624262  52.3893356  20.0307083
  64.8637056  11.7025363  14.5133257  64.7123718  12.6040959  14.2295671
  65.7210779  11.7259181  14.9382949   5.0540423  16.8809032  22.1343350
   4.6283394  17.3991132  22.8173184   4.3988654  16.2292290  21.8847442
  38.3796453  75.3823471  52.7296019  39.3021417  75.5269957  52.9401064
  38.2542872  74.4395685  52.8376913  59.5223236  52.2209311  40.3863382
  59.2013979  51.3611269  40.1143456  59.9119234  52.0697355  41.2474871
  19.2375171  29.0053773  55.5276489  18.5627556  28.9771271  54.8493195
  20.0612330  29.0651345  55.0437546  50.2365875   7.6674139   3.4370852
  50.0835276   8.5320306   3.8181934  50.9315872   7.8086442   2.7942330
  38.6607575  47.1421146   8.9981776  38.3572412  46.2350464   9.0348452
  38.9129472  47.3468733   9.8985690  31.0310888   8.4459448   7.3510432
  31.2890601   8.1241846   6.4872420  31.3360810   7.7720499   7.9585600
  76.5074825   1.4837568   8.6188984  76.2377548   0.8871669   7.9206443
  76.7843246   2.2778851   8.1617868  36.5817451  75.6349945   7.9613936
  37.3058343  75.0122643   8.0256659  36.4196873  75.9079170   8.8644344
  70.0953484   1.7304453  59.6406078  70.9088850   1.9495559  59.1863203
  69.6525097   2.5709426  59.7576237  80.3202152  10.2120233  18.4482551
  80.7430172  10.8993101  17.9333663  79.9094772   9.6432739  17.7970624
  30.9225774   6.6119552  54.6898270  31.5040064   6.1612165  54.0774488
  30.9476781   6.0760081  55.4825163   5.3113776  11.8945444  16.5921915
   6.1412269  12.2775745  16.8765664   4.8440778  11.7044711  17.4056625
  54.4176102  76.0493755  44.0790129  54.6468544  76.8832445  43.6687231
  54.4226551  75.4187489  43.3589315  50.3410673  54.8284006  30.3021884
  50.0439453  55.6826591  29.9888253  51.2769604  54.8121119  30.1020169
   3.9919767  11.6031873   8.6135978   3.1688374  12.0356631   8.3863574
   3.9259276  10.7366002   8.2124805  39.5327759  63.2778406  15.0273609
  39.3317771  62.3843718  14.7488940  38.6819315  63.6573982  15.2469885
  63.9737940  72.7695847  16.1123073  63.1776237  72.4822140  15.6653583
  64.5393276  73.0919933  15.4105532  30.2837014  55.8466387  20.4387999
  30.6428289  54.9616051  20.3757882  29.9912739  55.9223509  21.3470888
  40.6753302  63.1834030  36.6340804  40.4860735  63.4231472  35.7269239
  41.6289854  63.2318068  36.7006373  21.9833493  75.2513123  49.9589300
  22.1238875  75.5686140  50.8510065  22.2289586  74.3267536  49.9920940
  55.6184340  70.2562904  25.2876139  55.9136915  69.4174099  25.6416416
  54.6730852  70.1514626  25.1800656  35.4607034  49.0220642   1.6291519
  36.2738657  49.2066097   1.1591069  35.6553292  49.2423868   2.5400913
  70.0283861   3.7260735  15.0736618  69.4592285   4.3055952  15.5800653
  70.6555414   3.3878809  15.7128322  65.4046106   3.7100980  24.1222572
  64.5304251   3.3539146  23.9636374  65.6194258   3.4302720  25.0120807
  30.7704020  36.2040472  28.6139369  30.9034920  37.1402597  28.4655404
  29.8637152  36.0463357  28.3507299  55.2203655  53.9939737  25.0824976
  55.6720209  53.7245226  25.8822680  55.9241533  54.2243624  24.4760060
  50.7679462  78.7147665   8.7581879  51.2246466  79.4685364   9.1316748
  49.8605919  78.8182878   9.0449369  39.2664790   2.7797902   9.4478333
  39.0197611   2.2087124  10.1753163  38.7995601   2.4213976   8.6930001
  60.9235859  42.5685024  31.0513663  60.2735806  42.9070902  31.6670632
  60.4060602  42.1644115  30.3548670   1.7974754  54.9082947  17.9676342
   2.0388973  54.0022087  17.7754116   2.0335703  55.0291061  18.8873601
  68.9884949   0.5621955  35.3818870  69.3826628  -0.2966476  35.2293921
  68.0491447   0.4184020  35.2671099  47.6154375  77.2073841  41.8296337
  46.6846418  76.9869471  41.8651342  48.0026054  76.7308664  42.5639772
  65.2793550  71.6739511  22.1935010  65.7927132  72.1520233  22.8447628
  65.9326982  71.2366390  21.6474915  15.1450181  25.5180860  13.2089972
  15.2841055  25.4083562  12.2683346  16.0270989  25.5686975  13.5772419
  35.5101609  34.9492669  13.7634480  35.1704407  34.8393726  14.6515620
  35.8061099  34.0748715  13.5103130  58.1506634  51.0918379   6.5009350
  58.2903767  51.9778299   6.1666757  57.7751160  50.6134415   5.7617933
  38.7583256  57.5544930   9.7200215  38.4115744  58.4056902   9.9873441
  39.4548225  57.3709011  10.3504324  75.3108597  14.5940053  27.0279193
  75.6606150  15.2907145  27.5833464  74.4802046  14.3543828  27.4388003
  55.1508474  72.6567745  23.5821533  55.7690382  73.2560730  23.1639242
  55.7025814  71.9867563  23.9857578  65.1014614  28.7260532  56.5475655
  65.5727005  29.4711208  56.9204473  65.0302315  28.1019402  57.2698116
  49.5291424  63.2790661  46.8801165  49.7452116  63.2953787  47.8124666
  49.5324612  62.3500156  46.6497087  18.7824106  23.0644965  47.1673727
  18.3772218  23.0579329  48.0345583  18.1179726  22.6889277  46.5897036
  33.4746146  19.8530781  57.5008631  33.0653787  20.7183695  57.5066233
  32.9870868  19.3531966  58.1555939  13.1324375  14.2170441  14.3075931
  13.5227776  13.9102674  15.1259780  12.8415656  15.1083815  14.5003140
  54.7796917  77.0759439  59.3152380  53.9842463  76.5688467  59.1529036
  55.4102516  76.4342737  59.6421719  66.9277954  12.0229006   3.4562874
  66.0765791  12.4132204   3.2580134  67.4241304  12.7285707   3.8709113
  47.1100569  74.0334845  35.4030800  47.4902296  74.7077274  34.8399687
  46.7359352  73.3962536  34.7946405  15.4164958  15.0435400  55.2586031
  15.6856847  15.3600442  56.1209249  16.1851096  15.1767957  54.7038937
  51.9959450  68.7196207  45.9807825  51.7577028  67.8037739  46.1246490
  51.1908340  69.1297531  45.6648350  45.7868576  62.8983116  45.9246111
  45.4000902  63.3090115  46.6978931  46.6469288  63.3097887  45.8397675
  17.6636326  20.3100109  17.8940690  17.8780675  20.2077985  16.9668138
  16.7072749  20.2823734  17.9231966  29.7009563  71.7076540  24.5755768
  28.9582634  72.2255898  24.8860264  30.1040292  71.3648796  25.3732443
  43.3851004  63.3052826  32.0005679  42.8845072  62.5074768  31.8298697
  43.9108610  63.0974865  32.7729845  74.8938847  76.1983013  36.2645197
  75.0688457  75.5144501  35.6180143  73.9580870  76.1191702  36.4495873
  37.7071571  67.4917507  23.9594650  37.4154043  68.2306004  24.4935250
  37.0777154  67.4534273  23.2393503  30.1474023  75.6860352  24.0505576
  30.6130314  76.5096951  23.9056134  29.7073627  75.8045864  24.8923087
  42.0664454  67.8394699  29.7925663  42.7230215  68.3295298  29.2976141
  42.5430822  67.4965525  30.5485153  28.4134078  78.3921194  21.1069465
  28.2384634  78.1646824  20.1937675  29.1028762  77.7855444  21.3769960
  54.0665579  63.6878204  54.7478294  54.2307472  63.0381298  54.0643263
  54.9177694  63.8151217  55.1667213  25.4431868  21.5740323  68.2534170
  25.5336738  21.2423539  67.3600912  24.7903323  21.0016775  68.6564350
  51.8643951  52.7450752  55.7162714  51.8935680  53.4973335  56.3074493
  52.7108383  52.7585745  55.2695179  65.6816387  69.4346380  25.3251100
  66.2017345  68.6322784  25.3692389  65.1177645  69.3973589  26.0976982
  72.4147701  42.3986292   3.9421168  72.9251814  41.6204119   4.1659167
  71.7236805  42.4302053   4.6036524  72.8230667  57.5767374  35.7652330
  72.2896338  56.8015051  35.9404182  73.3015728  57.7274323  36.5804362
  24.5949721  59.1217852  32.2750187  24.9558330  59.7535181  32.8970504
  24.0722370  59.6508074  31.6724300  78.8073635  69.5131683   2.8651202
  78.7123537  68.6332273   3.2296821  79.6604347  69.8120642   3.1800196
  28.7400436  52.1221066  12.3647761  29.6332741  51.9216108  12.6443672
  28.8496065  52.6870966  11.5999126  67.3370695  23.9628291  23.5231805
  66.9582653  23.1976676  23.9559245  66.9383049  24.7110939  23.9673853
  68.8714123  57.1125269   7.3734516  68.6823130  56.6821241   8.2072532
  69.3572235  57.9009199   7.6156372  57.4565458  13.1914294   5.1135027
  57.9990005  12.5149953   4.7080290  56.8108749  13.4144938   4.4429895
  37.6968479  77.6940107   6.4199400  38.6191249  77.6486063   6.6720861
  37.2832656  76.9722509   6.8934840  60.0904512  68.5823679   0.5188926
  59.9288034  67.8262043  -0.0453062  59.6060514  68.3900547   1.3217655
  41.2952375  55.0410461  20.8857989  40.9393501  54.6144009  21.6652536
  40.9101439  54.5606518  20.1528907  78.0988693  13.6954319  49.3495893
  78.0619812  12.8051114  49.0000200  79.0341616  13.8844025  49.4254398
  64.0934658  22.4925852  66.9559336  64.4489145  21.7757273  66.4305735
  64.0906811  23.2448173  66.3640118  59.6196699  27.3848271  60.3173351
  59.6720552  26.8477654  61.1079407  60.4282045  27.8971601  60.3218079
  25.6595874  48.4801912  65.7782412  25.6647778  47.5322056  65.9106541
  24.7640896  48.7462664  65.9868526  10.7967651  25.7864404  67.5005770
   9.8875999  25.5431056  67.3261070  10.9736204  25.4405761  68.3754110
  45.0542784  76.4100409  42.2293472  44.1749144  76.6584635  41.9443274
  44.9232721  75.6133795  42.7435446  69.9700308  11.4557350   7.8432500
  69.0561533  11.5729213   7.5837791  69.9272537  10.9209478   8.6359698
  20.5259943  76.6603279  17.9303348  19.6838033  76.2671757  18.1591916
  20.9820485  76.7534113  18.7667465  37.2271872  63.8492823  25.0326443
  37.9549861  64.4665670  25.1067877  36.7599988  64.1234970  24.2434859
  30.2626276  75.8482647   8.4668195  29.6289706  75.1436853   8.6020166
  30.7613063  75.5772686   7.6960331  11.2020481  51.6107178   5.3006935
  11.6099608  52.4284840   5.0159234  10.3181887  51.6438103   4.9347305
  26.0306144  68.3629465  27.7135634  26.0635138  69.1586494  28.2446146
  26.9454503  68.1797361  27.4996948  41.3375521  74.0097618  49.1868258
  41.6825056  74.1314745  50.0713778  41.9984913  73.4783220  48.7430191
  24.7819471  72.5813580  11.3001740  25.2030110  72.2242880  10.5182290
  24.8278570  73.5304546  11.1846864  30.1277852  59.2937899  20.2601504
  29.4825840  59.6980143  19.6800208  30.3907204  58.4936237  19.8053670
  44.3470764  74.9804401   3.4165570  44.5391273  75.5764771   2.6926190
  44.4909143  75.5056095   4.2037901  54.3740368  33.9333320   3.2089144
  53.5989046  34.4132018   3.5006797  54.0319967  33.1001568   2.8847852
  47.2367907  65.5177307  19.9705756  46.3994169  65.9499407  19.8025513
  46.9999695  64.6221495  20.2115631  53.2187271  52.4105644  59.3729925
  52.7031660  53.2162809  59.3377256  52.5769854  51.7102194  59.2550087
  57.2051096  50.9097242  59.7029877  56.6243553  51.1726379  58.9889669
  57.2321272  51.6711140  60.2824545  40.0000429  76.4074135  10.7654035
  40.0156546  77.3358679  10.5331075  39.4723010  76.3689280  11.5630484
  79.5619202   7.8790295   7.1150959  79.4268084   8.7935376   7.3633933
  78.9432669   7.7311409   6.3998127  68.4295607   8.6088687  29.1552544
  67.9053783   8.9933920  28.4526825  68.2721663   9.1765547  29.9097013
  83.0636406   3.1405550  15.7919383  83.5343838   2.6720014  15.1026714
  82.5080872   3.7626344  15.3222501  19.7324121  30.9464002  50.7054329
  20.3036618  30.6489587  49.9973106  18.9882696  31.3505101  50.2591372
  15.4236615  14.9369156   6.7506891  16.1274302  14.3025041   6.8865693
  14.6354198  14.4899285   7.0590860  62.1885300  15.1131225  14.6767569
  61.3312387  14.7492087  14.4557333  62.0178080  16.0383844  14.8527586
  53.3411884  20.1970077  17.1605313  52.8307915  19.4183183  17.3827231
  54.0899658  19.8602223  16.6684508  11.2261379  41.7708445  54.6733952
  10.9355938  40.8928871  54.9203825  11.2127995  42.2666931  55.4920483
  52.0530796  57.2201252  24.3250132  51.6399336  56.9759512  23.4968090
  52.1332073  56.3957882  24.8048902  51.9391012  63.8807535  30.8880258
  51.3151073  64.2537832  30.2653599  52.6596594  63.5631275  30.3438401
  73.7013578   7.3436695  34.3385935  74.2578936   8.0149847  34.7333574
  73.8317060   7.4483246  33.3961034  12.0550537  15.0241530  29.9732161
  11.7029393  14.2681277  30.4429770  11.5242720  15.7616436  30.2742314
  47.7726698  73.6755037  10.3086698  47.8898716  74.2340899  11.0770941
  46.8590450  73.8060760  10.0547516   9.5912188  11.6196585  46.7242956
  10.0367713  10.8443809  46.3827372   9.5714718  11.4865124  47.6719809
   6.0536826   9.4575232  20.8947420   6.7158824   9.0114391  21.4226913
   6.2913162   9.2536718  19.9901938   4.3617725  75.7332897  28.5969043
   3.4903568  76.1188030  28.5060954   4.8502642  76.0653639  27.8436899
  73.6798143  22.7685308  31.0774565  74.2773438  23.3346581  31.5660191
  73.1713295  23.3698487  30.5333114  69.1256380  16.8599141   2.7941975
  69.5814610  17.4961925   2.2431925  69.3133640  16.0136080   2.3882934
  72.8595495   2.8386241   7.9084235  71.9857264   3.1566378   8.1354439
  73.1577492   3.4302658   7.2175783  74.9338865  56.0834122  58.2774115
  74.9860573  56.8880987  58.7931585  74.4476986  56.3335800  57.4917459
  48.1775045  78.5603857  35.0990105  47.3169422  78.2993793  34.7710872
  47.9978371  79.2968321  35.6834745  77.7507877  49.8543930   7.2709155
  76.9852257  49.5720768   7.7713555  77.7255249  50.8103180   7.3134154
  32.5180364  66.9585657  10.2131045  32.1496868  66.1398602  10.5451751
  31.9858241  67.1665716   9.4451743  43.9992762  21.1788869  15.1544809
  43.9439917  20.2288628  15.0513792  43.0987883  21.4844799  15.0450873
  49.0160894  74.9438334   8.0010837  48.6868811  74.2187071   8.5321599
  49.9265528  74.7122765   7.8176087  37.5931621  67.4936438  28.4238601
  38.3294439  68.0556536  28.1824660  37.9965353  66.6576385  28.6575556
  73.3958483  20.0000095  30.4234576  73.3085442  19.6391618  31.3057280
  73.5608292  20.9327388  30.5614161  12.4297285  49.3497181  47.9261971
  11.9984901  50.0502443  47.4367809  13.0765271  48.9946222  47.3164511
  29.5965123  74.7417879  33.8135409  30.4848552  74.5392132  34.1068649
  29.4011903  75.5908918  34.2099047  44.5967197  18.2925284   7.5242090
  44.9119282  18.9689898   6.9248128  44.9101114  18.5702682   8.3849508
  74.9871922  24.5589280  17.3710155  74.6095800  23.8622665  17.9079533
  74.3201399  24.7390103  16.7085660  17.5524414  70.9280205   2.4696274
  17.9972935  70.3171158   1.8821491  16.6287208  70.8639956   2.2269920
  10.8749557  41.1126375   6.5230179  10.7062078  41.5555286   7.3546469
  11.0888422  41.8196392   5.9142232  81.3810062  79.2315149  59.8101568
  80.9350014  78.4213400  60.0569868  81.8511200  79.0107346  59.0061188
  12.3515558  36.0175276   8.8695580  12.0674372  36.3957906   8.0374360
  11.5576530  35.9899092   9.4035864  77.0455027  78.4781885  42.3733902
  77.7782059  77.9051256  42.5991583  77.2979927  79.3358135  42.7153873
  79.5539665  62.0457458  55.5706692  78.7569904  62.2123098  56.0739708
  80.2007675  61.7840815  56.2259626  83.7902546  66.0956383  41.0441256
  83.0601978  65.5284452  41.2921810  83.3745193  66.9051647  40.7473660
  42.9660606   0.7755839  28.7302160  42.9132652   0.6933113  29.6824098
  43.8959742   0.9176763  28.5532808  35.7601333  68.2162428  67.3642063
  35.9887981  67.5384569  66.7281628  34.8715186  68.4794092  67.1247530
  40.7421875  71.8815899  67.2297955  41.2977505  71.5317440  67.9263544
  40.9637690  72.8119898  67.1912241  45.0140047   3.9166272  34.0611219
  45.1399612   3.0669016  33.6388254  45.1997948   4.5558217  33.3732677
  60.8245516   5.3261298  45.8132935  60.0797033   4.9631500  46.2925386
  61.5826225   5.1281637  46.3631821  31.8955612  26.2323999  23.6788559
  31.9944644  26.8899202  24.3674159  32.7185035  26.2703490  23.1914568
  33.6370420  31.8792343  11.1879838  32.8314710  31.5070224  10.8291757
  33.6643744  32.7707958  10.8406997  20.5737066  75.6753874  13.5610783
  21.2583923  75.8612347  14.2036486  20.3036046  76.5368271  13.2429492
  49.4343376  58.3174801  57.1217585  50.3476048  58.5929918  57.2008944
  49.0103722  59.0286779  56.6414595  52.5094938  19.8132992  32.4340463
  52.6474047  20.4778266  31.7590523  52.1091127  19.0788150  31.9687963
  66.3697720  66.1631250  60.2686310  67.0373583  65.4814863  60.3456116
  66.6210127  66.6574144  59.4883871  33.8318229   5.1474220  68.5510492
  33.2006454   4.4920632  68.8482904  33.2937908   5.8494866  68.1851816
  46.1543465  38.4865594   7.3360842  46.2225962  38.2130504   8.2508337
  45.2245235  38.6768007   7.2117162  52.5743723   3.5559580  28.6883998
  52.7214527   2.7222127  28.2417798  52.1670008   3.3136064  29.5199895
  26.3516927  20.1635313  26.1588192  25.5487108  20.3734159  26.6356826
  26.1868644  19.2997801  25.7806683  25.7859540   8.5849929  24.3439722
  24.8427534   8.5183799  24.1950846  26.0747123   7.6797324  24.4595313
  54.8266935  26.1191535   2.7960512  55.3297806  25.3151011   2.9250371
  55.1737261  26.4913654   1.9853370  22.5299644  52.3801804   1.3313955
  21.7082858  52.7434826   1.6616844  23.1759334  52.5997496   2.0027718
  51.2074852   7.8271198  18.7194121  51.0428619   7.1619654  18.0510557
  52.1382475   8.0316812  18.6295927  11.0744345  35.3190351  19.3505239
  11.4649999  35.7698631  20.0991511  10.1707006  35.6335402  19.3263721
  22.3019910  19.9371994  26.5608478  22.9693222  19.7936153  27.2318816
  21.4758658  19.9526787  27.0440722  43.1721783  28.8926077  25.8727193
  43.6894894  28.1494904  25.5622387  43.5598183  29.6524334  25.4383993
  14.8409331  60.9990978  24.6098208  14.3079877  61.1076260  25.3974915
  14.6043122  61.7431927  24.0561366  47.1657705  24.4285893  38.9593291
  47.5866556  24.5984435  39.8020864  46.5826321  23.6884308  39.1276956
   6.8198055  20.4852796   0.2598928   6.7194599  21.3841462   0.5732588
   7.4698955  20.5467916  -0.4399864  51.3104010  48.4119129  36.8990850
  51.3189554  47.4693251  36.7326713  52.0633841  48.7478113  36.4128494
  24.0362549  54.8353195   7.1504319  23.8764691  54.7022915   6.2160850
  23.8471556  55.7622671   7.2961664  14.7374177  28.9389491  16.6810882
  14.6860147  28.0253673  16.4000928  15.6754553  29.1261625  16.7167091
  65.9353685  52.1671534  36.7814970  65.7927990  51.7248869  37.6183414
  65.0761271  52.5172234  36.5461588   8.4129477  71.0220528  12.5370705
   8.6056966  70.2593517  13.0823863   9.2670214  71.3047409  12.2101510
  17.6903689   5.2018261  50.0070477  17.3501134   6.0463440  50.3024292
  17.1610308   4.9855757  49.2394114  72.1593475  44.6246576  15.9323418
  71.4456940  45.0302505  15.4399765  71.9215155  44.7552538  16.8502808
  58.2958555  17.6735449  30.8339143  57.3910618  17.8127468  31.1135602
  58.8004208  18.3233869  31.3231468  15.8437145  33.0384421   3.5558251
  16.1705267  33.8515210   3.9409590  15.9704494  33.1517291   2.6138401
  21.1800122  44.0052462   1.6035862  20.8565927  44.6316814   2.2510520
  20.5484915  43.2863951   1.6295430  17.5266778   0.1230245  66.4838028
  17.6634300  -0.1368023  67.3948574  17.1118283   0.9838275  66.5399265
  31.7570424  56.7001534  23.3234978  30.8220339  56.8847275  23.4125018
  31.9428539  56.0655832  24.0156198  39.6191549   9.8199576  15.1640141
  39.8584414   8.9180684  15.3774846  40.3749609  10.1615977  14.6862328
  31.4981818  52.2881222  26.1517119  32.2110581  51.6495466  26.1354637
  31.1686420  52.2564077  27.0498371  35.2393436  28.6627460  10.9913301
  34.6276546  28.3234406  11.6447365  35.1176143  29.6117616  11.0193121
  41.9932365   5.8343261  13.2792115  41.7498779   4.9102253  13.3344126
  41.2177849   6.2651467  12.9196227  38.8590455  35.9399438   6.8902200
  39.5483088  35.9630823   6.2264335  39.3169165  35.7280588   7.7036631
  65.9355497  62.1980190   0.4657487  65.4710245  62.0145750  -0.3508283
  65.4148388  62.8803492   0.8894404  25.7848358   9.9449903  66.6810369
  26.7018557   9.8167092  66.4384460  25.4077077  10.4274809  65.9453678
  57.1473265  76.1138725  55.1740599  57.3901749  75.7069874  54.3423748
  56.7771721  75.3987074  55.6915140  16.9064748  54.2830992  13.3086979
  16.7017376  54.4643211  12.3913801  16.1295569  53.8353300  13.6435652
  54.2106962  33.6260819  16.0721517  55.0639868  33.5896134  16.5043485
  53.6399460  33.0906940  16.6233635   6.0906893  53.7195063  32.9430747
   7.0359194  53.5883713  32.8683972   5.8571297  53.3098888  33.7760806
  55.7466173  23.5519886   3.3872867  55.7465553  23.5360575   4.3443543
  54.9507666  23.0812097   3.1398541  31.8383455  27.5373101   5.9843642
  31.9822073  28.3607769   5.5180591  31.8023205  26.8746066   5.2946115
  78.9949036  63.7684298   3.6603025  79.9308443  63.6675453   3.4868866
  78.8765717  63.4224987   4.5449260  51.7036867  46.9980097  66.4852715
  51.4212513  47.3427010  67.3324108  51.1619806  46.2204456  66.3504219
   3.7572712  18.4639621  51.1747885   4.0026358  17.8458691  50.4863214
   3.1578606  17.9719317  51.7359018  23.8273168  25.8808875  42.0637846
  24.5025325  25.2377963  41.8475628  24.2791224  26.5307736  42.6020718
  41.3064337  53.8307381   1.3151562  41.9314384  54.4259262   1.7291015
  41.3726997  53.0224037   1.8235239  59.5936584  60.1419020  58.1061125
  59.6291065  59.2620230  57.7308989  58.7551689  60.1722145  58.5668230
  58.2719898  65.8562851  58.9836597  58.8160038  65.0693274  59.0149975
  58.5340643  66.3594818  59.7545910  34.7898030  15.4055488   4.2380494
  34.6312141  15.4647768   3.2959384  35.3527570  14.6379232   4.3383750
  20.7259059  51.0513735  18.3750141  21.4734006  51.5747404  18.0859268
  20.7211590  51.1462116  19.3274915  23.4402966  12.9062259  30.1750064
  23.5258222  13.3566689  31.0152555  24.3004346  12.5139809  30.0248814
   9.4798690  26.6161752  42.4919510  10.2936637  27.0786524  42.6921558
   9.7437406  25.7022524  42.3854160  68.0815268   9.9493372  64.9944448
  68.4499693   9.0667200  65.0327635  68.7673569  10.5110574  65.3554678
  31.7602992  13.1573820  59.6054554  32.4294400  12.9838860  60.2675629
  31.2223649  12.3657036  59.5953989  36.1861610  30.1116037   0.6578757
  35.3227162  30.4768872   0.8509093  36.0507226  29.5774174  -0.1247682
  53.2058668  26.9625258  16.1793876  53.6880922  27.6999688  16.5533793
  53.8738441  26.2957597  16.0198283  27.0227146  12.2077978   9.9359757
  26.6561890  11.9718802  10.7881689  27.9459143  12.3875737  10.1137853
  12.6357090  22.9084969  53.9425373  11.7745793  23.1777596  54.2622042
  12.8753555  22.1656704  54.4966221  24.7276831  60.0337315   5.4927647
  25.5039191  60.2440262   6.0118634  25.0539207  59.9513102   4.5966581
  13.2472110  30.8405280  10.1700032  13.9096379  31.4209557  10.5448711
  13.2321441  31.0638094   9.2393309   0.7158907  77.1141195  65.0520086
   0.4875793  77.5720072  64.2430353   1.6318770  76.8623829  64.9344110
  79.7871590  23.3473206  13.4055591  79.2046452  22.7019691  13.0050266
  80.5979061  23.2841349  12.9006481  48.4592104  53.9754820  26.9643712
  47.5704145  53.6617422  27.1312451  48.9268684  53.2071924  26.6368675
  73.0342007  76.4409494  59.2136574  72.1743584  76.0392284  59.3382597
  72.8552437  77.3800898  59.1665697  13.7454855  45.6107712  24.5077896
  14.4695425  46.2356091  24.5470905  13.4128237  45.5729389  25.4045248
   3.2666954  51.9046831  59.1638899   4.1630471  52.1164227  59.4245672
   3.0513212  51.1176300  59.6642828  38.3989620  59.2682219  64.9565172
  37.9302382  58.4642887  65.1806164  37.7558565  59.7965670  64.4837570
  71.0319138  77.5440836  64.6475315  70.7120371  78.3235788  64.1933346
  71.8291235  77.3024035  64.1760635  65.1933479  72.9016685  35.1752853
  64.6884823  72.1104050  35.3630114  64.5941067  73.4548664  34.6741748
  76.2091732  16.0303724  46.5118599  76.7383289  16.6421628  46.0000658
  76.6311789  15.1812315  46.3810921   2.0440565  54.8187590   8.0504739
   2.3109165  55.7290077   8.1787699   2.4590948  54.5612431   7.2272730
  54.7512579  67.6913452  11.2212586  54.6911573  66.7865467  11.5277791
  54.6355152  68.2199097  12.0108533  56.7215776  44.2051506  48.2855511
  56.7481327  44.0910721  47.3355436  55.9314680  44.7221231  48.4427118
  58.0744982  77.8698254  58.8048172  58.6241961  78.1593752  59.5329857
  57.1874142  78.1250525  59.0581512   9.8571211  53.5462809  52.9274225
  10.7492602  53.8410521  53.1102705   9.8495978  53.3754921  51.9856167
  -0.0803772   2.1589598  53.2583475   0.1962351   2.7720034  53.9394474
   0.7166081   1.6816212  53.0277109  58.5264730  23.4602737  26.6376734
  58.4414101  23.3817101  27.5878429  58.1156111  24.2992425  26.4289761
  18.6679649  41.9824409  14.6710742  19.1955221  41.9634151  13.8726056
  19.3089426  41.9733429  15.3819168  46.7171526  43.3942604   2.5069550
  45.9856558  44.0014744   2.3954369  46.3896704  42.5603104   2.1700388
  34.3677759   7.2136635  59.5430899  35.2865124   7.4813646  59.5652580
  34.3053365   6.6344446  58.7835932  14.1645288  28.1234598  64.0243673
  13.6583209  28.0401635  64.8324823  13.6695766  27.6191783  63.3786488
  77.4522018  58.4216833  62.7670527  77.4003506  57.5796175  62.3148680
  77.0742846  58.2536554  63.6302900  43.2942772  45.2289963   3.7007281
  43.9336014  45.4496574   4.3780792  42.7348185  46.0031509   3.6381194
  62.0505571  11.1839235  65.4361439  62.9145098  10.7732916  65.4015112
  61.9734907  11.6502929  64.6038008  22.8648925  24.7136354   7.9448116
  22.3813891  24.3490696   7.2034961  22.7568412  25.6608152   7.8587425
  32.6612687  13.7327778  23.1569529  33.4130096  13.1456685  23.0768323
  31.9431686  13.1655061  23.4376073  28.3281183  38.6698985   3.9943588
  27.4905968  38.3485579   4.3283215  28.9788747  38.0757427   4.3681586
  81.6357803  35.9866428  61.1705542  82.0466232  36.2303185  60.3410530
  81.6814041  35.0307035  61.1887074  67.5375032  26.7194009   3.6690831
  66.6808939  26.8416452   3.2598037  67.7726793  27.5876307   3.9963484
  57.1589613  55.0245428  58.8651037  57.8422499  54.9219847  59.5275402
  56.4051485  55.3621817  59.3488312  10.2417421   1.4144443  21.4843059
  10.0056887   1.8892050  20.6873655  10.7501554   2.0435342  21.9961572
  20.8956766  78.9511490  52.7127552  21.3508463  79.3472719  53.4558153
  19.9712682  78.9699745  52.9604387  45.5203390  56.2757015   2.9801545
  44.6376705  56.1271715   3.3193749  46.0827446  56.2445831   3.7540829
  65.5292225  79.2502260  46.8213558  64.6386242  79.2021608  47.1688604
  65.4185057  79.5513535  45.9195280  80.1271248  12.6193380   9.8163360
  80.2729130  12.4714792  10.7507432  79.9793863  13.5622382   9.7432345
  16.1260450  33.7033796  35.9116340  16.1243296  33.5419369  36.8551183
  15.7898593  32.8927922  35.5293274  64.4496298  36.0393524  16.9723594
  63.7179804  35.4412985  16.8198752  64.2830133  36.4050198  17.8411281
  80.8911324  52.0212317  57.4425554  80.9001827  51.0845470  57.6394606
  81.7252731  52.1812534  57.0011473  58.1149387  12.4688339  21.8712687
  58.5526419  12.9793763  22.5524402  58.7807798  11.8505383  21.5702677
  69.1317654  74.4812918  65.4159212  68.8651896  73.5880899  65.6335497
  68.7077618  74.6600008  64.5765638  21.3683438  29.9292541  48.9276361
  21.9308686  29.1622686  48.8202524  21.7959952  30.6138420  48.4131622
  39.6811962  22.3949838  22.6196051  39.9894929  23.1705022  22.1508241
  39.0945911  22.7395725  23.2929420  31.9186521  26.9754267  55.6935930
  32.2194314  27.5102234  54.9589157  31.0935736  26.5957069  55.3914547
  24.0582681  48.5740566  31.5589380  24.0012693  47.9031658  30.8785772
  24.2047644  48.0832767  32.3675823  52.6637936  77.4981260  64.3764782
  53.1695461  77.7172661  63.5939026  52.0027828  78.1879282  64.4354010
  83.1986618  32.3199058  16.9377410  83.7935162  33.0676770  16.9944894
  83.6889744  31.6605330  16.4467657  12.4773753  13.6065423  32.8592634
  12.2177565  13.1780124  33.6748576  12.8768170  14.4304717  33.1382275
  80.5895519  31.9544029  47.1333694  81.4547539  32.3638415  47.1295214
  80.1711559  32.2710848  46.3328123   3.3076423  57.9928255  55.1166296
   3.0808568  58.4164572  54.2887783   3.8933954  57.2780085  54.8673058
  28.8281727   8.0203062  21.2917066  29.1825604   8.1098312  20.4070449
  28.0251312   7.5120097  21.1777258  32.5568867  36.0700440   4.6302605
  32.7319384  37.0046711   4.5204344  32.1153212  36.0069704   5.4771805
   8.3106273  79.3265438  20.8799124   8.2558286  79.8794270  21.6593671
   7.4040532  79.2357111  20.5864763  66.3254738  27.1469617  66.7682028
  66.2692213  26.4951706  67.4669456  65.9573936  27.9425621  67.1526098
   8.1316233  33.3785176  13.5969043   8.5611755  32.8476381  14.2676365
   8.8523328  33.7693381  13.1028700   1.4065923  79.4082308  57.8481388
   1.0724771  80.1569843  58.3420706   1.4612295  78.7018394  58.4917641
  11.9201958  44.6083164  53.2417059  11.5976524  45.2712584  52.6312065
  11.1285257  44.2252541  53.6195278  47.7901173   7.2514701   2.7612779
  47.7844048   7.5318229   1.8460722  48.7162066   7.2421843   3.0031526
   3.9852917  29.8575187  54.1929579   4.3686634  29.9299645  53.3188772
   3.3709577  29.1266036  54.1252184  67.1376562  37.0081186  16.3672018
  66.8669033  37.8241014  15.9463704  66.3166952  36.5799713  16.6099942
  14.5627499   1.0316895  45.8360958  15.0377154   1.8057969  46.1384153
  14.1463602   1.3096286  45.0202513   1.4649446  62.4111080   4.5333737
   1.9445792  62.1758270   5.3276199   1.1495093  61.5760422   4.1878378
  46.8268204  10.8327198   2.8512529  45.9652615  10.8712602   2.4359694
  47.2185802  10.0263834   2.5157249  22.5441456  43.4968710  12.0702541
  23.4695840  43.4309244  11.8347800  22.5493336  43.7591362  12.9908085
   4.7804859  55.4599619  54.6660614   4.5341951  54.7600222  54.0613651
   5.7160962  55.3268480  54.8182011  34.1798902  42.3184538   6.7375785
  34.9676847  41.7747593   6.7404503  33.7869787  42.1753597   7.5986105
   3.7726188  78.3634615  65.1817608   4.5667362  78.6542749  64.7333956
   3.6193752  77.4794149  64.8482704  25.7498050  16.1208558  46.9233608
  25.4477334  15.9321642  46.0348940  25.4899311  17.0292282  47.0768404
  48.2062292  60.3473854  12.1125579  48.0811930  59.4302368  11.8687546
  47.4443913  60.7980633  11.7482483  18.7983501  14.1966403  56.4117861
  19.6197045  13.9039111  56.0169220  18.2275844  13.4291518  56.3741159
  59.0539265   5.6761020  26.4865756  59.3579483   5.7704777  25.5838609
  59.4658613   6.4020211  26.9551706  60.3089190   2.6098594  64.0080452
  60.3648090   3.5432088  64.2129040  60.3854322   2.1734191  64.8565149
   6.3937348  67.3620796  41.2657309   6.2232184  68.2533264  40.9610462
   5.5325586  67.0240641  41.5114069  21.2566113  17.6862252  18.4084928
  20.3422880  17.6506078  18.6895192  21.5470958  18.5659242  18.6492825
   7.1141666  52.7437735  67.2194433   7.2145754  52.1032286  67.9236078
   6.9123399  52.2186852  66.4449883  74.6920013  61.9825649  44.1339207
  74.6244192  62.8974915  44.4070101  74.4219494  61.9861364  43.2156134
  76.8094110  50.3226042  48.9890909  76.7848921  50.2131891  48.0384827
  76.3013887  49.5856190  49.3281984  56.4326000  22.3923874  20.5045033
  55.6355619  22.8367972  20.7934117  56.5685081  21.6998672  21.1511660
  15.4692972  17.1478748  67.6283216  16.3707066  17.3907721  67.8397322
  15.0695658  16.9502568  68.4753132  75.8196688  60.0010729  57.8172398
  76.0410213  60.7589579  58.3583927  75.9545612  59.2482233  58.3927870
  42.9091835  13.0537212  24.5477390  43.0097151  13.0877650  25.4990363
  43.3288383  13.8546681  24.2337298  26.4622045  18.4087706  53.5846472
  27.3086286  18.0385673  53.3341503  25.8897901  18.2229578  52.8403044
  73.7723684  64.7291613  44.3124628  74.0082216  65.0617504  43.4464455
  72.8377533  64.9185085  44.3953800  53.5147953  53.0509281   3.8975897
  52.9035950  53.7526798   4.1216624  54.3777514  53.4632111   3.9371184
  52.6431894  66.9423008   7.3544788  52.7279902  66.0820627   6.9433445
  53.4477806  67.0452404   7.8626770  55.4052925  26.6996980  23.6147332
  55.8089924  27.5602984  23.7270832  54.4685602  26.8823171  23.5411668
  53.7823915  56.4667130  57.8209209  52.9335690  56.0866976  58.0474567
  54.2860460  56.4297438  58.6340618  22.0191598  29.5951152   3.6106554
  21.6903663  29.5247340   2.7144557  22.3568344  30.4886436   3.6724141
  38.6872816  55.5089951  12.8327239  37.7532911  55.2994919  12.8344798
  39.0852952  54.8334932  13.3818316  74.2286539  75.4655981  52.5930405
  74.6346283  74.9896765  51.8685293  74.9521303  75.6548834  53.1905270
  66.2782335  30.7187843  16.1792982  65.9612370  31.6215634  16.2064147
  65.7362080  30.2944875  15.5141568  41.2855482  71.6504383  28.9904523
  40.9159899  70.8264446  29.3077707  40.6298828  72.3099852  29.2170262
  58.3591175  44.7020149  11.1226690  57.7151918  44.3667078  10.4988432
  59.0761948  45.0244236  10.5766988  32.9163837  11.7917061  26.5377688
  33.3527946  12.6382053  26.6337776  32.0803690  11.9992220  26.1203384
  33.6945009  11.3572490  12.4686849  32.7489829  11.2480676  12.3671806
  33.9325237  12.0088983  11.8091929  69.1370153  36.9381595  18.3841264
  69.8978329  36.3581753  18.3523738  68.4817934  36.5038347  17.8379798
   1.1339936   2.7477607  62.7258539   1.4252305   1.9477634  63.1633663
   0.2646856   2.5329122  62.3876619  25.6612444  67.1643686   6.6983968
  26.3298726  66.4801645   6.6661918  24.8829031  66.7566967   6.3186377
  76.5182304  55.3817940  23.7382531  76.5976906  56.0117865  23.0219936
  77.3565292  54.9197960  23.7449813  72.6101589  35.2405953  56.8711376
  73.3595753  35.8135724  56.7089462  71.9331884  35.8233047  57.2152185
  63.4779263  43.3070707  50.0252151  62.7167463  43.1952190  50.5947113
  64.1441631  42.7309513  50.3999710  43.4052753   4.5226848  15.7370627
  43.1256866   3.9987120  14.9863875  43.5770082   5.3909135  15.3724813
  26.2020350  12.0174634  60.7500124  25.8479047  12.2490919  59.8914242
  27.0786238  12.4018383  60.7591724  21.1743069  62.1903801  21.0591865
  21.7911363  61.5755272  21.4563084  21.6073179  63.0413532  21.1268544
   9.4721127   7.6791143  51.6183519   9.0828937   7.9695612  52.4432039
   8.8429976   7.9479444  50.9488916  73.8616896  38.7712407  67.9096985
  74.0916967  39.4168448  67.2414732  74.0216589  39.2190003  68.7404537
  82.0562840  42.2481680  20.0230050  82.4484539  43.0398369  19.6546233
  81.9688892  41.6547537  19.2770457   6.9572198  45.8822727  21.0839248
   6.9642508  46.8283129  20.9383726   6.7809200  45.5084181  20.2205682
  75.5142641   6.4520371  69.0767336  75.3623390   6.7729032  68.1878042
  76.1236620   5.7220870  68.9670086  55.9009790  44.3003416  62.7504253
  55.3360128  44.6341753  63.4472799  56.0237026  43.3753872  62.9640341
  67.4966478   9.8343360  11.9371367  67.2788668   9.0906322  11.3752580
  68.4165907   9.7007787  12.1653759  41.5826559  13.2306099  30.4736137
  41.8674755  12.6072848  29.8053503  41.2690735  13.9868557  29.9776411
  44.2599916  62.4668694   9.5602304  43.4098482  62.0270109   9.5638049
  44.0471172  63.3997393   9.5860559  48.6621809  65.3528309   0.5951531
  48.4313869  64.8029995   1.3439193  48.6016750  66.2483025   0.9278779
  54.0742874  62.3201561  25.3462076  53.7910604  61.5186930  24.9061251
  54.2283487  62.9421949  24.6351767   7.6205659  75.0578833  62.8797150
   8.3797908  74.7507477  63.3751726   6.8729264  74.6308422  63.2979250
  28.0404997  13.0280054  25.1861286  27.2887993  12.7792823  24.6482491
  28.2079649  12.2605944  25.7331824  30.3561616  10.2317905  56.7891169
  29.9544549   9.7536850  56.0636616  29.6404576  10.3719425  57.4090815
  67.0800352  27.7962089  20.2117491  67.3646069  26.9713807  19.8181665
  66.7894840  28.3276105  19.4705153  20.8502650  22.3564386  40.3405237
  20.0028396  22.7273035  40.0944376  20.9873343  22.6492739  41.2414646
  60.3294182  33.9739943   1.7626961  59.3862295  34.0545797   1.9045714
  60.6219387  33.3626652   2.4386710  52.1280003  31.3713670  64.0173769
  51.9754219  30.5353880  63.5768175  52.9064703  31.7286873  63.5901356
  54.2071438  52.0424032  23.3831382  54.5252132  52.4430180  22.5740790
  54.3513584  52.7100039  24.0537667  24.3446159  55.8494329  18.9616001
  23.4171581  55.6188107  19.0151572  24.7909713  55.1639271  19.4586718
  78.6917496  26.6731167  54.8008919  79.6060562  26.8769121  54.6040726
  78.6092567  25.7379341  54.6141768  72.1213293  65.8217907  61.0634708
  72.2325277  66.2663031  60.2230692  72.3743582  66.4753532  61.7154408
  45.5916357  66.7781305  27.3700857  44.8128033  67.2700119  27.6302886
  45.2612066  65.9089136  27.1431279   0.7308999  41.2341690  23.9197564
   0.2466539  40.7206583  23.2731938   0.6015676  40.7648706  24.7439289
  23.3027697  38.7148619  21.5267873  23.8508058  39.2940187  22.0563769
  22.5571632  39.2580748  21.2714028  44.0352201  19.3327975   0.4238666
  43.3421469  18.8116992   0.8292521  44.6188784  18.6868858   0.0259021
  45.8239651  57.4541950   0.0488820  46.6697168  57.0060873   0.0605947
  45.5709791  57.5124073   0.9702069  64.0085983  73.6396074  19.0957272
  64.3515539  73.3981705  18.2353067  64.1604137  74.5826292  19.1580796
  38.0475354  73.5479736   9.7018063  38.8368082  74.0003395   9.4040793
  38.3522153  72.9699612  10.4013097  49.2704773   9.8980200  68.1281424
  48.6060667  10.5682921  67.9683876  50.0801802  10.3905809  68.2623243
  78.3516216  53.1112814  26.2227917  79.2061472  53.1315899  26.6536021
  77.7645111  53.5559130  26.8342185  73.7813330  74.1838312  68.0097342
  72.9897738  74.5306873  67.5981998  73.4725475  73.4521151  68.5440302
  62.2466326   0.5145617  48.5782242  62.5583982  -0.1957758  48.0174637
  61.7370462   0.0758593  49.2594719  65.4805422  15.6123066  45.0522614
  64.7957373  15.1544583  45.5397558  66.2892008  15.1606655  45.2937651
  58.7328863  47.5911093  17.7011621  58.9169455  47.1714020  18.5415184
  57.7775431  47.6007509  17.6424038  31.1200595  20.3088260   4.6722877
  31.3780284  21.0991716   4.1979086  31.8862367  19.7374296   4.6202391
  30.0601888  15.6550026  18.5898900  30.0547457  16.3096261  19.2882240
  29.9379468  16.1608112  17.7864921   8.8712639   3.2475755  55.4737425
   9.6813619   3.5061744  55.0343132   8.8192576   2.3008490  55.3424549
  25.8452177  59.7732162  19.3361223  25.5018544  59.9630022  18.4630144
  26.7944908  59.7392130  19.2179942  11.9892693  32.1460080  20.8557916
  12.5255728  31.9865203  20.0791502  11.1007535  32.2515678  20.5157518
   7.1360826   0.0105236  40.4609919   6.8679291   0.0311563  41.3796329
   6.7076772   0.7716160  40.0692797  64.5395136  58.4529114  10.1605940
  65.3500938  57.9619026  10.2951133  64.7142696  59.3129921  10.5426359
  50.3567648   7.0597780   8.3557671  50.8539772   7.8775972   8.3692038
  50.5400562   6.6821420   7.4955195  26.8147087   6.6983378  49.0767431
  27.5731349   6.1893195  48.7905264  27.1597028   7.5785530  49.2265177
  27.1786427  67.8181696  24.5210671  26.3213134  67.6903915  24.9271369
  27.7870440  67.8723860  25.2580476  19.7424889  31.6647863   3.2467455
  20.0521946  32.3599648   3.8272986  19.6351337  30.9049821   3.8189369
  44.7213411  56.8630934  17.5697052  45.4436255  56.7298555  18.1835341
  44.4422770  55.9787035  17.3326182  18.1664300   0.4972967   1.0779469
  18.7886441   0.2941482   1.7763832  18.6428750   1.0913949   0.4980505
  77.7263212  29.6767855  38.9189172  78.6155081  29.7525001  39.2651105
  77.6639652  30.3726816  38.2646465  46.0638142  50.6809139  45.2033997
  46.3749743  49.9106026  45.6788301  46.5918016  51.4025927  45.5449200
  71.2814522  51.5147448  61.2046003  70.6558418  50.8604670  61.5156651
  71.1128426  51.5794659  60.2645922  16.8135476   6.0554248  47.1982908
  16.9392812   6.7457712  47.8493261  17.5453150   6.1630410  46.5907001
  31.4381170  61.9753599  11.6450131  32.0888352  61.7103672  12.2950721
  31.9474697  62.4038982  10.9571564  69.1959906  50.3747082  18.4629750
  69.6032143  50.6790686  19.2740035  68.2826710  50.6520557  18.5347962
   0.8650362  52.7270937  31.9034076   1.7941360  52.7400351  32.1332741
   0.6904669  53.6042309  31.5622520  33.3404350  74.9893093  61.0788918
  34.2110634  74.6082735  61.1931133  32.7746105  74.2410851  60.8885479
  33.8056850  37.2185254  13.1379211  33.4913373  37.7169156  13.8922596
  34.2377424  36.4541435  13.5190713  40.9456158  14.3210626  65.1528931
  41.2804794  13.4420180  65.3300333  40.3261852  14.4890130  65.8630514
  35.3716016   5.2150178  39.3875384  35.1669908   4.7757566  40.2130175
  34.5470166   5.2076435  38.9014935  49.3776369  13.5906470  58.0767250
  49.5680666  14.5174110  58.2219028  48.4303284  13.5588408  57.9431868
  45.5912685  24.7513032   6.7332482  44.8211718  24.8887110   7.2848821
  46.3307714  24.9986124   7.2884119  65.5033827  73.5980988  47.0596504
  66.4086628  73.6444569  47.3671532  65.5663252  73.7130690  46.1114645
  58.7742710  36.9040680   2.8561482  58.2100058  37.5101066   3.3363095
  58.8096094  37.2616124   1.9689357  28.4956217  20.2137136  23.2916951
  28.2397842  19.3377101  23.0029106  28.9682412  20.0672746  24.1110945
  40.8230495   2.0293213  34.8583674  40.2615452   1.6518652  35.5354738
  40.3941488   1.7972147  34.0347147  45.4421568   2.3075888   2.9766807
  45.9213829   3.1238469   2.8342128  44.7749090   2.2986859   2.2904339
  24.5373321  22.3058558  52.1101236  25.3923202  22.3638606  51.6836691
  24.1406393  21.5150142  51.7448330  32.7134943  74.7736025  28.0122709
  33.5371709  74.4586849  28.3845782  32.3870945  74.0369606  27.4955010
  34.8109579  61.8831587  54.8392200  34.8027611  62.8394747  54.8795748
  33.9067364  61.6442776  54.6353722  80.8585739  68.2454395  58.7647676
  80.4935360  68.5427618  57.9313517  81.4916706  68.9223194  59.0040398
  29.7391844  58.8281345   7.8672051  30.3286505  59.5691681   7.7271026
  29.6702480  58.7535381   8.8190013  40.8939219  54.0626383  26.6119599
  40.4249525  53.5206842  27.2464561  40.6584978  54.9609709  26.8439364
  69.1550732  49.6773005  61.2125587  68.3862495  49.8446703  61.7576551
  68.8031054  49.2722416  60.4199219  24.4372010  38.4601736  11.6270196
  23.9504457  37.6705885  11.3906872  25.3517532  38.2395720  11.4504957
  25.9047484  66.3700438  -0.0398070  25.3567386  66.5832424   0.7154829
  25.3603411  65.7930660  -0.5754828  38.3015919  52.6753092  23.1805778
  39.1921926  53.0197287  23.2471776  37.8229594  53.1109333  23.8858247
  37.3421550  52.2716618  18.1716049  38.1907487  52.5403786  17.8195965
  37.0080280  53.0523252  18.6133671   3.3230585  47.6612186  45.6729841
   3.4786209  47.5692654  46.6129732   2.3729664  47.7474594  45.5947590
  54.5993376  40.1435137   9.5511460  54.3439913  39.6785450   8.7543809
  54.3081284  39.5749521  10.2640057  14.3722534  56.9122982  26.1010385
  13.9970148  56.4377451  25.3592658  15.2919292  57.0355654  25.8660173
   4.7872862  44.4680500  10.7705343   4.4363254  43.8285685  10.1507616
   4.1120908  45.1443481  10.8249831   1.7510954  10.6029427  26.4674473
   2.3848653  11.2992454  26.6398716   1.4472412  10.3354645  27.3348355
  75.2415419  79.1697168  56.0676289  75.8554363  78.4527349  55.9085655
  74.3821001  78.7488508  56.0890675  20.6098199  78.9965296  48.9979839
  21.4013767  79.4218206  49.3278265  19.9262965  79.6607018  49.0868759
  21.4188695  46.1734629  64.0278864  22.2153068  46.2064362  63.4979534
  21.7159009  46.3599539  64.9185181  43.5345936  30.5550551  66.0242319
  42.7655602  30.8043194  66.5367556  43.4265757  29.6163344  65.8713722
   7.5154519  72.1465778  62.3237467   6.7542833  72.5404215  62.7500582
   8.2307673  72.7582788  62.4980307  31.4641953   9.5893049  43.3485031
  30.8598566  10.3272080  43.2678413  32.3187566   9.9532002  43.1171179
  26.6993570  20.4476213  60.0621462  27.2545123  20.3044796  60.8286619
  27.1997213  21.0516071  59.5134497  84.3966293  21.5336514  68.5737896
  83.8891125  20.8607507  69.0275097  84.7555161  21.0867572  67.8071642
  47.1232891  40.6271315  10.7692790  46.2593555  41.0037661  10.9366107
  46.9703484  39.9687147  10.0915420  24.4427037  12.2457135  49.6758270
  24.7610140  12.5509334  50.5253887  25.2139139  11.8684995  49.2525387
  53.7581635  14.5506895  64.3742514  53.8970089  13.9654613  63.6296272
  54.4065046  14.2729187  65.0213432   4.5990509  22.1765208  60.5241251
   4.2635515  21.7511678  59.7349834   4.8279017  23.0615664  60.2403021
   9.6382803  65.0722265  45.5217695   9.8733252  65.1870108  44.6010017
   8.7379187  64.7479916  45.5005026  60.1172972  41.6413212   2.9890358
  60.2342892  41.1574841   2.1714512  60.0088978  40.9628248   3.6554638
  24.8193240  60.5900669  10.1764381  24.9510002  59.6420002  10.1683688
  24.7182608  60.8099699  11.1025381   3.0806449  72.4875212  50.4515028
   3.6510846  72.0732498  49.8040390   2.2782378  72.6886797  49.9699354
  56.3481808  31.9248462  17.8768599  56.4032602  31.4832211  17.0294142
  57.2489834  32.1839404  18.0709147  62.1879816  34.7542667   5.9155792
  61.7264128  35.3298664   5.3057700  61.7975473  33.8919973   5.7731616
  26.6323423  50.6040573  25.5948186  26.4284158  49.6964025  25.8202362
  26.2709165  51.1173105  26.3174367  46.6145468  73.2687044  68.6218309
  46.6128063  74.1034222  69.0903139  47.5415373  73.0519295  68.5221529
  17.2909081  15.9045756  53.3680773  17.0999861  16.6616762  52.8143835
  17.8401124  15.3414011  52.8226948  76.0152674  16.1643779  55.1621914
  76.3986826  16.1945176  54.2856550  76.7673254  16.1924148  55.7536745
  83.7152386   8.1967294  64.4969130  83.0728245   7.5079703  64.3261957
  84.5065308   7.7264619  64.7594643  37.1563554  18.4840691  11.8422019
  36.8288445  18.8972950  11.0433197  36.3722110  18.3213663  12.3664892
  24.5147347  68.3332825  38.6683416  24.1434145  68.1605864  37.8031659
  25.1738071  67.6493359  38.7869859   5.6757903  22.6910949  16.4559925
   5.4648888  22.0443153  17.1293628   4.9212474  22.6785469  15.8671463
  43.4065914  47.7761412   1.6714798  43.6987829  47.6412296   0.7700066
  42.5291491  48.1489086   1.5856069  13.5624218   1.4863306  53.3393621
  14.2452252   0.8201228  53.4179592  12.7760470   1.0654876  53.6868382
  73.6423683  47.1564245   0.3402983  73.2283926  46.8862534   1.1599728
  74.4897556  47.5134134   0.6062364  35.2130246  28.1439638   6.9341296
  34.7092843  27.3711991   6.6785681  35.9983683  28.1093121   6.3879925
  47.8337955  12.4825156  64.7721052  47.6723385  12.4634469  65.7153988
  47.0712900  12.0481932  64.3897724  34.7038770   7.3063511  45.1200104
  34.7397399   7.9422188  45.8345842  35.3706360   6.6569746  45.3435612
  28.0271983  19.6633554  14.7524238  28.1861758  18.9520228  15.3728783
  27.2051811  20.0570369  15.0448847  48.0973101  72.1905613  15.9959817
  47.3187065  71.6592312  15.8295393  47.8156281  73.0889225  15.8232546
  54.2688990  47.7799654  66.9901705  54.5660877  47.3252344  67.7782869
  53.3350849  47.5771952  66.9344091  74.7449541  76.7937136  65.8845901
  74.1722250  77.2497082  65.2679205  74.5765114  77.2174978  66.7261744
  23.6511517  12.0768380  55.8085346  22.7885199  12.2231472  55.4203415
  23.4680653  11.8483496  56.7198515  30.3064275  30.1544476  64.3239832
  30.3182006  30.3592420  65.2589417  30.8773565  29.3908882  64.2388344
  70.7954025  34.6591997  24.2802358  70.0534058  35.0924826  24.7020674
  70.6795263  33.7315369  24.4857693  25.5210972  10.3669310  54.2161417
  25.2894688   9.4577050  54.0266991  24.7964835  10.6924033  54.7502136
  79.9255800  31.3310647   7.5548071  80.0047588  30.4455090   7.9094237
  80.8135700  31.5592003   7.2797418   6.5045387  28.8217235  54.5508194
   6.9289458  28.7032723  53.7010670   5.6499588  29.1985679  54.3412685
  50.9869814  32.6115131  54.0704823  51.8069983  32.2839308  54.4399357
  50.3044510  32.2054052  54.6047688  57.2168636  55.5308104  23.7877417
  57.6254940  56.3865614  23.6575508  57.6859379  54.9480677  23.1905723
  37.8758717   2.3884498  35.5169725  37.9334164   3.3438602  35.5064249
  36.9373870   2.2055082  35.5618000  24.3848300  17.5530028  63.6536407
  24.4172406  18.0493402  62.8358221  25.2663302  17.6337123  64.0178871
  47.6660967  70.3882170  19.9207234  47.6788473  70.0176239  19.0382671
  48.4869480  70.8760452  19.9875140  35.3057933  32.2620511  33.4921098
  34.6865845  32.8425860  33.0496264  35.6944585  31.7443013  32.7870512
  21.3356948   5.7719046  58.6790228  22.2326517   5.5514133  58.9301872
  21.1899376   5.2908248  57.8644371  62.3699856  51.7242002   8.7607557
  62.1120501  52.0248985   9.6321213  61.6408396  51.1758947   8.4710276
  63.3257532  30.6705427  18.2772112  62.7399826  30.0657511  18.7325454
  63.6447763  31.2570405  18.9631259  63.4146166  46.5304804  10.6294608
  63.9962006  47.1524239  11.0666955  62.9807568  47.0456934   9.9493468
  42.2226334  70.1693678  32.9600644  41.9163179  71.0743380  32.9014683
  41.4428854  69.6674681  33.1973815  59.7086859  43.0257320   0.1359626
  59.7739124  42.0802355   0.0017523  58.9111471  43.1398201   0.6528278
  32.4586201  79.0234566   9.2553347  32.9370236  79.8013163   8.9684582
  32.3289013  79.1548872  10.1945519  74.9133062  63.4454441  22.3584723
  74.9676704  63.9365911  23.1782603  74.8313332  62.5317287  22.6316714
  36.9529462  44.4797897  12.3576093  36.9524360  45.3376627  12.7822161
  36.3022685  43.9721441  12.8425312  20.8687282  69.0286541  56.6092730
  20.3855896  68.4737110  57.2215223  20.5778337  68.7404919  55.7440710
  30.0853157  69.3105650   4.0617442  29.2229009  69.5546389   3.7257385
  30.3568769  68.5749912   3.5127279  65.7676744  43.5459518  21.0641003
  64.8300552  43.4804487  20.8829618  66.1426163  42.7560616  20.6745839
  52.1744728   2.7352977  51.6960001  52.7629185   2.7238914  50.9411240
  51.9870234   3.6629197  51.8395662  43.4107590  39.1417146   7.0589697
  43.1399584  38.7636566   6.2223274  42.7902412  39.8543310   7.2118270
  25.0672340  37.5859523  17.3358238  25.9634399  37.4093509  17.6219356
  24.5324636  36.9587040  17.8224564  13.3937001  68.0994892  56.1305809
  12.9940915  67.2371864  56.0166597  13.8258791  68.2754898  55.2948284
  15.0264621  70.3396511  39.2638159  15.0526059  70.2669668  40.2178955
  15.5022335  71.1477947  39.0720487  29.7124839  15.6252432  56.0318375
  30.0382018  14.7512126  56.2468004  29.0965414  15.4813170  55.3134108
  66.3271570   4.4146255   7.9095918  65.8774948   3.9836428   7.1827555
  66.3437605   5.3401482   7.6659465  56.5949583  29.4086266   7.7919292
  55.6672764  29.3298197   7.5695950  57.0058250  29.7372365   6.9922823
  69.1194296  68.2429838  43.1143332  69.1397333  67.4976158  43.7145329
  68.3100653  68.1276321  42.6164818   0.9380579   9.7412580  44.4313002
   1.7702755  10.2119339  44.3853664   1.1260654   8.9745772  44.9726725
  78.5016251  68.2223511  42.9899979  78.9139748  68.3629894  42.1376944
  77.8780079  67.5118256  42.8400326  55.5336285  62.6793289   0.5514380
  55.0501156  62.0051718   0.0739876  55.7549524  63.3314753  -0.1133525
  11.3396072  41.3210773  62.6773024  10.8664942  41.7761564  63.3739376
  11.8394005  40.6423950  63.1309891  74.1653299  64.5283175  68.5528755
  73.7000036  65.3635025  68.5062981  74.7240543  64.5217705  67.7756929
  82.4312687  70.2194738  46.2810755  81.7518711  69.5956039  46.0252571
  83.2477379  69.8218822  45.9785223  23.8766885  69.9000311   8.2619101
  24.5034552  70.5536938   8.5719407  24.3542695  69.0715408   8.3037239
  19.2473292  16.9358730  40.5898571  19.6573544  17.3875308  39.8522162
  19.9786782  16.6883385  41.1556196  52.4013615  33.3439326  13.9928126
  53.0511665  33.5763788  14.6561003  52.0663643  32.4924183  14.2737651
  29.9424314  57.7258396  17.2774827  30.7689667  57.7026081  17.7596974
  30.0528502  58.4376240  16.6470814   2.4174692  11.7658043  46.2962341
   2.3571886  12.7148235  46.4055920   2.4698137  11.6366780  45.3492260
  11.1383927   2.8095654  26.0333633  11.1982656   3.0624452  26.9546103
  10.4212248   3.3396325  25.6856108  70.0298405  32.8571773  17.5924492
  70.4896736  32.3564458  16.9186103  70.0043964  32.2724247  18.3498442
  36.0002685  65.5675220   0.3986554  36.6533256  66.2376499   0.6003384
  36.3670754  65.0923347  -0.3469189  21.6740894  63.2400084  49.5708799
  20.9372711  62.6711226  49.7938108  21.6155386  63.9634085  50.1949787
  47.5573111  27.2119045  63.9862061  47.1993780  27.7269697  63.2631397
  48.2307577  27.7735281  64.3699694  20.7377601  69.3112803  40.3138924
  21.5919518  69.0154171  40.6286192  20.6269169  70.1791573  40.7021475
  66.3993216  60.5376530   2.7799356  65.4768133  60.3313112   2.9303792
  66.3846588  61.2411213   2.1309704  53.8179541  62.4982786   4.5803541
  53.0250978  62.1791935   4.1493130  54.4430113  61.7783308   4.4954491
  37.0930481  24.0013194  64.0684843  37.6510215  24.6544433  63.6462021
  37.3113680  24.0649509  64.9982834   5.7538086  39.9656200  52.4385118
   5.2606696  40.0912237  51.6277885   5.1905304  39.4106793  52.9779482
  10.5486882  46.1068964  28.8143492  10.6120014  46.4653206  27.9290485
  11.4338803  45.8016157  29.0130210  60.8707285  65.9043217  24.7406650
  61.3806820  66.3615417  24.0719843  60.2557611  66.5624619  25.0645423
  54.1275978  32.7328324  47.1252012  53.3451748  33.2706380  47.2469044
  53.8102388  31.9445324  46.6846418  67.5374556  50.1919556  58.9095354
  66.6867065  49.7634268  58.8156271  67.9816008  50.0274849  58.0777168
  72.7724028  59.2650890  17.8381181  72.5027561  59.4699860  16.9428289
  73.7290335  59.2823410  17.8100204  43.1013870  47.9567671  15.9686029
  42.7680397  48.8524961  15.9158611  42.9094601  47.6821899  16.8652654
  81.7201138  16.3906217  25.4416704  82.1279526  15.5277991  25.5153751
  80.8705044  16.2914336  25.8712792  23.9229369  67.5484705  24.6743226
  22.9948497  67.4162722  24.4809151  24.3559813  66.7769146  24.3090749
  22.0374274  75.7495785  20.4134750  22.2813559  74.8988008  20.0489044
  21.1084509  75.6613493  20.6266642  46.0476351  52.2085238  14.4266903
  46.3936329  52.1187019  15.3146398  45.9703159  51.3093662  14.1076767
  64.4080782  55.1326513   3.0561182  63.8615322  55.9170818   3.1029063
  64.8988676  55.2310038   2.2402225  19.2147601   1.4539118   8.4707910
  19.1726828   2.4101785   8.4668851  19.8163891   1.2435564   9.1849518
  18.0635679  40.4616690  41.2489939  18.4692276  41.2532330  41.6026926
  18.6792910  40.1536417  40.5839872  75.7815266  29.1155934  12.8242815
  74.9001169  28.7422991  12.8262854  76.1927509  28.7630105  13.6134648
  27.8020453  42.8485966   8.7193638  27.8507471  43.2767391   7.8646380
  28.5910606  43.1380320   9.1775286  81.0745049  22.5260711  68.3522892
  81.1144543  23.1111431  67.5957680  81.9530392  22.5632286  68.7304688
  68.7319613  34.2272329  62.6123381  68.4135199  33.3650613  62.3449659
  69.5615196  34.0493155  63.0555153  77.2718763  54.5152903   3.0684143
  77.4125385  55.3953743   2.7192754  77.5639391  54.5691061   3.9783791
  44.9647188  13.2124865  52.8438091  44.7265577  13.9569855  53.3962870
  44.8008633  12.4452150  53.3921480  54.2449141  65.1445913   3.6495405
  53.4581184  65.1777077   3.1054053  54.2288923  64.2711926   4.0408871
  25.0480366  58.4437418  24.5447588  24.2390037  58.3405399  25.0458050
  24.8820424  59.1937399  23.9736414  58.6261511  43.6945343  21.6705704
  58.9864492  44.2810678  22.3356986  59.3500853  43.1081343  21.4508390
  65.1059103  40.5333328   7.4129027  64.2768288  40.9992647   7.5213349
  64.8550510  39.6127892   7.3360509  39.8564982   8.4701264   0.9973951
  40.6197977   9.0288579   1.1437589  39.3655992   8.5155022   1.8178782
  13.5848308  64.7093821   7.6846319  12.6313448  64.6253157   7.6899755
  13.8934469  63.9694214   8.2075483  57.0480347  42.0568371  20.0855184
  57.4522209  42.8041649  20.5263853  57.2359133  41.3117456  20.6562829
  72.3099566  13.4733415  65.4923630  71.3993979  13.6322260  65.2436352
  72.5819111  12.7351999  64.9470043  23.5003662  53.9682674  20.8448982
  23.2104778  53.0570602  20.8013105  24.0975261  53.9941263  21.5925360
  45.8771086  31.2387133  11.8800497  45.7045889  32.1661496  11.7177916
  45.0645638  30.9072447  12.2623241  48.0774927  78.9911032  50.5910254
  48.2493067  79.6982145  51.2128878  47.1318817  79.0240097  50.4462051
  75.4249287  77.0563126  61.5794373  75.3343105  77.6987457  60.8756590
  74.9882317  76.2725306  61.2459564  27.2528768  31.7368484  68.5316229
  27.6547575  32.3955512  69.0980434  27.7251863  31.8135166  67.7025986
  22.0876932  74.1639614  34.0322852  22.7375221  73.8538837  34.6630025
  21.3838863  73.5166597  34.0756917   4.6952370   5.4153711  11.8909144
   5.4244554   5.9815842  12.1436489   4.0254346   5.5764639  12.5554788
  67.8763771  60.6629372  54.6366358  68.4019470  60.2613354  53.9447355
  67.1060514  60.0995016  54.7098780  55.6630516  71.8502951  42.7982855
  56.4640903  72.3741150  42.7849674  54.9896669  72.4505186  43.1184626
  28.7228608   1.0105924  36.7749023  29.3305063   1.6922736  36.4880061
  28.9857578   0.2328160  36.2827826  69.8289585  19.0106118  19.0162766
  70.7733011  18.8568175  18.9879930  69.5667315  19.0602016  18.0970335
  48.7887144  51.7763948   1.8935764  48.9655209  51.1593485   1.1834878
  49.3822289  51.5099907   2.5957158   1.8876176  35.2218485   2.9013693
   1.7130734  34.5827246   3.5922271   2.8095531  35.0898743   2.6803517
  68.2943439  76.9997931  48.1259918  68.0731010  76.9900560  47.1947622
  68.3753014  77.9284954  48.3432388  48.5850239  54.6146345  23.0976582
  47.8612852  54.3969059  23.6850476  48.4259319  54.0862942  22.3154950
  60.9598970  20.9306741  19.8493314  60.1031113  20.5054832  19.8124456
  61.5833092  20.2076387  19.9186671  29.9026871  10.4252434  61.3415909
  30.6006145   9.8168415  61.0987377  30.1569605  10.7487786  62.2058296
  82.0022106  64.7847605  23.3808804  81.4613342  65.5595636  23.5337496
  82.0215702  64.6902752  22.4285507  80.0936508  26.6176653   6.4743847
  80.2551651  25.6743431   6.4914399  79.5350552  26.7512131   5.7086396
  53.6392403  31.3417506  22.2522855  52.7154064  31.5750098  22.1609139
  53.9995193  31.4405751  21.3709998  30.3253102  36.1184597   5.9638715
  29.4420958  36.3827515   6.2213868  30.1913619  35.3702974   5.3820276
  58.1473541  37.1112084   5.7001293  58.3512449  38.0376840   5.8278096
  58.5003662  36.6788983   6.4777666  54.4824409  15.2888060   0.4326957
  54.8462296  15.1015568  -0.4326516  54.5570469  16.2387705   0.5234357
  60.8221626  57.0555162   3.5181025  61.7569828  57.2491741   3.4485015
  60.7059145  56.2511110   3.0124816  76.8737602   1.5167731  11.1253417
  76.2260389   2.2164851  11.2095487  76.9484043   1.3717300  10.1821434
  38.3937263  40.1280499   4.5948443  37.8140759  39.3746042   4.4827893
  38.8331485  39.9700046   5.4304051  64.9864435  29.2575788  13.7193024
  64.1958857  28.7670851  13.9443934  64.8035383  29.6224618  12.8534865
  50.1773930  60.6815624  17.4030709  50.4281330  61.4841986  17.8603888
  49.4582415  60.3239059  17.9237735  11.4362562  64.7603083  47.9936361
  12.3933840  64.7565413  48.0048227  11.2077713  64.8103333  47.0654535
  30.4770041   3.7400571  24.8335099  30.4639316   4.6449170  24.5215988
  30.2424979   3.2186651  24.0657926  46.1741734  33.7805176   7.4296361
  45.5526114  34.5051217   7.3600668  46.5003300  33.6582994   6.5380561
  43.7259007  71.1667156  65.4745197  44.3487644  71.8783140  65.6225204
  43.5034037  70.8567095  66.3523722  21.4242196   6.3970190  17.2389567
  21.7669511   7.0202470  17.8795445  20.4732013   6.4793342  17.3098016
  41.8597794  23.2551551  15.1719236  42.3649025  23.7219477  14.5061982
  41.1488485  23.8550806  15.3975356  21.7711449   5.4867190  44.6270990
  21.5645957   5.8286715  45.4969454  21.8973708   4.5476153  44.7626877
   7.8250980  69.1067600  46.2764645   7.1442854  68.8655949  45.6483221
   8.5646778  68.5399294  46.0574865  29.5306420  71.9361448  62.3779678
  30.1908565  71.4706182  62.8914165  29.4553924  72.7905560  62.8028870
  51.3901377  34.3400860   9.0012413  51.7824411  33.7662458   8.3431864
  51.9559622  34.2474580   9.7677255  21.2348986  69.4681072  10.5383658
  22.1739268  69.2824841  10.5377781  21.1795020  70.4228258  10.5792940
  49.1677141  23.0769324   1.4453682  49.4863987  22.2152233   1.7139377
  48.2368755  22.9431009   1.2668727  49.3192053  65.2748108   5.7540429
  49.7707176  64.7666359   5.0801522  48.9244223  64.6166420   6.3260531
  28.1020761  77.4836683  36.2565494  28.5535955  76.9953251  36.9449425
  28.7859988  78.0198193  35.8552670  43.0377913   7.5340569  55.8061457
  43.7634230   8.1491703  55.6997108  43.2295322   6.8282992  55.1885891
  47.2548962  68.7785339   5.8858210  48.1870651  68.6173868   5.7397819
  46.8205404  68.3644295   5.1401126  14.2093182  72.9084873  47.2057390
  13.9772022  73.1458712  48.1035137  13.4598637  72.4035883  46.8901062
  42.1690512  14.6811128  62.4568796  43.1202269  14.5961630  62.5222826
  41.8458271  14.4260824  63.3210039   4.1971970  46.4332104  34.2480731
   3.7852797  47.2859621  34.1089010   5.1263285  46.5849447  34.0750861
  10.2085090  42.5941324  64.8214340   9.3694335  42.2342348  64.5339298
  10.0122845  43.5011196  65.0561619  64.6250582  63.0171633  10.5132532
  63.8540316  63.5755730  10.4136324  65.3356695  63.6245108  10.7191348
  67.0807219  43.9569807  53.9788437  66.4625359  43.2719946  54.2335367
  67.7165031  43.5101080  53.4199953  70.0839424  21.1497617  15.4423440
  69.2035913  21.2462020  15.8055484  69.9425697  21.0061812  14.5065928
  69.8559427  58.2177019  62.3625803  70.1119280  57.7758741  63.1722021
  68.9995050  58.5980368  62.5577497  10.5740082  65.7066202   0.9933145
   9.6264470  65.8307314   0.9389623  10.7462096  65.5828953   1.9267334
  75.7883644  63.9941740  54.5902014  76.4769125  63.4043455  54.2832184
  75.8655643  64.7653580  54.0284681  54.5556259  61.4235067  67.0227861
  54.7607136  60.4892921  67.0603275  55.2692032  61.8050098  66.5114164
  45.3048182  47.1825552  12.2569680  44.4556427  46.8070221  12.4895644
  45.9437132  46.5420771  12.5697505  18.3467865  56.8925667  54.5909023
  18.6808109  57.0341253  55.4766893  17.4159038  56.7060184  54.7129202
  59.5447683   2.8716186   4.2120320  59.3206692   2.3910448   5.0089383
  60.4922342   2.7654606   4.1267639   8.4427953  78.2021618  67.5688410
   8.4631544  77.7936077  66.7034531   7.7168018  78.8243055  67.5229645
   1.5536290  66.5605927  46.8245173   0.8860949  66.9336605  46.2488031
   2.2419024  67.2250986  46.8552971  71.2266016  44.9503183  11.6993356
  71.2712383  45.8666468  11.4262259  71.0500956  44.4679785  10.8916068
  64.4856548  23.9405751  21.9936061  64.8677731  24.7737193  22.2694445
  64.5615005  23.3759427  22.7628064  56.5474701   8.9678407  53.4555387
  56.8901634   8.5534745  54.2474318  56.8878126   8.4325916  52.7386665
  62.6889753  22.0796251  12.4267769  61.8664885  22.2819448  12.8726614
  62.7889824  21.1329150  12.5266445  71.9329977  46.0395050  63.4460211
  71.7115736  46.8053532  62.9162312  72.5672817  45.5568552  62.9159594
  62.8104353  20.3648257  64.8789740  63.4667063  20.9924030  64.5761681
  62.1749258  20.3194046  64.1646242  52.2194529  57.6036692   3.9742240
  52.0230150  58.3859348   3.4587592  53.1534576  57.4507952   3.8310498
  36.6765451  70.7120371  53.7282372  37.4511147  70.1560926  53.6433792
  35.9957337  70.1255417  54.0580082  64.2122936  71.6439629  56.1160326
  63.3484077  71.3703537  55.8076906  64.7648907  71.6174030  55.3349018
  54.1032457  10.8057439  55.5470467  54.9247599  10.9440863  56.0184336
  54.2851210  10.0728464  54.9588156  46.5230608  10.5460298  32.0458508
  46.3194513  10.2168453  31.1704016  47.3944759  10.9326160  31.9596958
  14.9843597  54.7483683  28.0380273  15.6034124  55.2935123  27.5524116
  14.1332734  55.1594162  27.8866148  16.9147718  60.4102659  29.8240542
  17.1561980  60.0402403  30.6731892  16.0045385  60.1430321  29.6964073
  67.8893757  20.2368641  24.9916959  68.4392023  20.9314775  25.3542328
  68.1237507  19.4579434  25.4962611   3.9719212  48.3817291  19.0551925
   4.0271592  48.1417227  19.9801672   3.0789953  48.7086535  18.9454889
  40.4202318   0.9799378  50.4087305  39.8724318   0.2571715  50.1025343
  40.5259657   1.5421277  49.6412706  62.6997042  41.6076231   9.7642058
  62.0626926  41.9934464  10.3655291  63.0468798  42.3521996   9.2729813
  10.9502292  69.0847778  16.7303240  10.7273591  68.1818771  16.9568968
  11.4603436  69.0103865  15.9237993  31.2614655  47.9427528  28.8946056
  30.4967856  47.4281359  29.1528082  30.9775019  48.4185934  28.1141114
  46.5858936  22.6180863   1.0929014  46.4078569  23.4352970   0.6273907
  45.7236767  22.2225380   1.2207661  55.2026987  45.8775091  65.0729179
  55.5089331  45.3938675  65.8400822  54.6636438  46.5816832  65.4331827
   2.1155520  78.5110760  43.7299109   1.7810458  77.9567814  43.0248594
   3.0257940  78.6825037  43.4884501  55.0407362  70.7219553  18.3564103
  54.2511845  70.2082586  18.5265613  55.7204676  70.2966738  18.8792217
  40.5354118  53.0072260  19.0504777  40.7690716  52.0839405  18.9546585
  41.0794687  53.4600925  18.4061599  79.2430973  13.0719113  46.5443230
  79.5104694  13.9651513  46.3278341  79.5153093  12.9543483  47.4544430
  72.3643398  50.6058884  36.2594438  73.1810045  50.5752468  36.7577958
  72.5926542  51.0695601  35.4537678  18.3433378  57.2399378  50.2315903
  18.8848901  57.1714115  49.4452953  18.1861079  56.3329124  50.4939175
  28.3989573  25.9227347  34.7442842  27.5900269  25.8182645  35.2452326
  28.7284184  26.7847681  34.9984169  74.7640228  78.5121489  13.1895697
  74.1023540  79.1291761  13.5021532  75.4676819  78.5676241  13.8361144
  77.1754313  65.2470016  29.7147322  77.8652382  64.6007252  29.5639920
  76.6102648  64.8446894  30.3742504   4.1316131  28.1730866  14.4654083
   3.8546300  27.8257298  15.3132617   4.4041863  29.0714622  14.6521091
   7.8273129  20.8310270  44.1904688   8.4369338  20.6552315  43.4737444
   7.6837641  21.7767835  44.1562700  24.4666719   1.4400919  19.7622347
  24.8188329   0.6733696  19.3101811  23.7671041   1.0918697  20.3150225
  74.7488260  61.9465828  35.0109506  75.2549124  61.2059116  34.6770120
  74.0279531  61.5448904  35.4959416   9.0184999  41.9167471  36.4821339
   8.3663017  42.3338413  37.0450759   9.0584081  42.4762964  35.7065392
   2.3072030  22.9662132  28.4256029   2.4701768  23.8132668  28.0106640
   1.3564585  22.9298449  28.5304570  83.5445976  18.8507807  28.7490511
  84.3184376  18.9370608  29.3057895  83.7243080  19.4183409  27.9995108
  18.4388912   6.2542677  36.3759828  17.7132738   6.8490010  36.1862326
  18.8026500   6.0386199  35.5172586  78.1801462  49.4181156   4.3551505
  78.7410164  50.0651169   4.7829932  77.6109743  49.0952206   5.0537300
  74.5802355  44.8234558  17.5621879  73.8516474  44.6484375  18.1577992
  75.1601458  44.0688848  17.6649213   7.8140080  63.6693239  19.3144667
   7.3499632  63.7322664  20.1492929   8.6169541  63.1914568  19.5221996
  16.4009142   4.3440264  54.0402365  16.6641986   3.5126993  53.6455107
  15.4491758   4.2804456  54.1201401   8.9940614  72.5093222  48.9476919
   8.7754464  73.4065533  48.6958790   9.9391824  72.4454975  48.8101959
  26.9711280  24.8714972  31.4722919  26.5360403  24.2996597  32.1046948
  27.8381562  25.0269866  31.8468761   5.4268318  29.6809840   0.6498021
   6.2394857  29.9877477   0.2476558   5.6986797  28.9631295   1.2216552
  46.7160702  30.4510188  56.7522955  46.2013388  30.0384712  56.0586929
  46.8551540  29.7544527  57.3939228  12.0870948   3.7478039   4.3386871
  13.0227375   3.7388992   4.5404914  11.9401348   2.9390001   3.8483086
  64.1776991  14.5092666  32.0013785  64.1211557  14.7056234  31.0662413
  64.7410631  13.7369585  32.0503116  68.5646105  54.8632097  63.7722492
  68.3444309  54.9964666  62.8502941  69.0035963  54.0128660  63.7931728
  39.3657017   8.6540043  49.3432474  39.1049266   8.2575494  50.1745415
  40.1734686   8.1995201  49.1040993  81.1161995   8.3481228  54.2069626
  81.5679264   8.9395493  54.8089457  81.5772820   8.4551388  53.3749866
   6.2758553  66.5182257  18.1931639   5.5895907  66.5465212  17.5264764
   6.5268451  65.5956841  18.2395315   3.5237449  65.4222918  33.7196589
   2.9785424  65.2478027  32.9524946   3.6063308  64.5728207  34.1530228
  22.5266266  64.0887260  57.8378820  22.6259923  63.1711388  57.5841284
  23.2907820  64.5253944  57.4615526   6.0899454  10.3673983  38.8174987
   6.3752115  10.2997100  37.9063058   5.9350663  11.3024807  38.9511538
  78.7977743  55.2821302  31.9360852  78.3794355  54.7320986  32.5984263
  79.1758299  56.0084248  32.4318695  73.1656027  54.9019766   4.6355188
  73.4643841  55.5236101   3.9717954  72.2262335  55.0683403   4.7138864
  64.0143871  14.8848999  29.0666699  64.1332436  15.8108115  28.8550282
  63.3508539  14.5809102  28.4473610  25.9356809  62.6754093  48.9392138
  25.8691311  63.0861473  49.8012400  26.5736389  61.9717216  49.0578032
  81.5118408   9.9282598   2.2269657  81.4225483   9.8099804   1.2813082
  82.2174263  10.5679464   2.3227653  74.6809292  73.0387402  29.3986750
  75.6335640  73.1319904  29.3942785  74.5231867  72.2132301  29.8568058
  39.8865914  79.4628429  51.6817999  39.2231441  78.7732410  51.6590261
  40.4190254  79.2576742  52.4503422  64.5281839  44.8655081   6.2121636
  63.8837433  45.3702021   5.7159710  64.1691875  43.9785624   6.2383205
  68.7391376  78.9975500  15.1868129  69.0498686  79.8211384  15.5628073
  67.7851725  79.0541983  15.2413642  77.5747919  26.4948130  38.4652162
  77.4716330  25.9272242  37.7013874  78.1659603  27.1876383  38.1706953
  60.8067560  68.1691408  35.1374412  61.3231182  67.3690033  35.0405908
  61.3947010  68.7815762  35.5795693   7.6786566  56.1787844  16.9251490
   6.8852323  55.8080101  16.5388393   8.2578021  55.4270697  17.0506215
  72.7189493  36.9098306  65.5550528  73.6529732  36.8334079  65.3601313
  72.5931787  37.8350306  65.7658100  25.1863885  72.6266575  48.2999802
  26.0240293  72.1676731  48.3626032  25.4024267  73.4645939  47.8908110
  32.7270842  26.3513350  37.7549505  31.9008899  26.6926384  38.0972171
  32.5999689  26.3228798  36.8066549  19.9482942  22.0490074  52.4215889
  19.9713886  21.5011716  51.6370058  20.0002694  21.4285159  53.1485844
  30.8302069  22.4705291  45.6343460  31.0255027  21.8277669  46.3162184
  30.4946041  23.2301712  46.1103153  17.3688662  25.1207376  41.9569540
  17.0579135  25.8344150  41.3999939  18.1464624  25.4749656  42.3883486
  72.9662418  50.8603144   1.9426495  73.1850195  51.7826891   2.0752685
  73.8064909  50.4048729   1.9954211   3.4663531  42.9782772   8.4835351
   4.2030987  42.7407980   7.9204714   2.8876922  43.4895849   7.9178965
  22.1376252  33.5416174  11.3529360  22.9563785  33.5868835  10.8591521
  22.0345902  32.6130605  11.5612638  28.2765007  44.6606922  32.4756980
  28.9369726  44.3951750  33.1156278  27.5669312  44.0280056  32.5872755
  15.2010691  40.0936747  17.8903115  15.3237844  39.5510268  17.1113968
  16.0638583  40.1172352  18.3041608  58.3278131  59.9163866  21.3628483
  58.1672192  60.7592440  21.7871547  58.4409142  60.1319551  20.4371214
   0.8780923  54.8941851  24.5042419   0.7798184  55.7725906  24.1368413
   1.6489035  54.5354795  24.0644550  25.0851631  67.5920010  14.0241122
  25.4151797  68.1978798  13.3606124  25.8273220  67.4538374  14.6126187
  77.0580149  52.7558661   6.9400132  76.5031576  53.3698034   6.4589256
  77.8576565  53.2489395   7.1235383   1.6847922  36.7437482  46.3423586
   0.8914981  36.2209749  46.2256336   2.4016380  36.1189461  46.2328815
  19.1374850  55.8121824  68.5317421  19.5135379  56.4576960  67.9333019
  18.1975436  55.8386469  68.3527374  22.8891468  69.9500561  21.4785528
  23.2402778  70.0784016  20.5973816  23.2383013  69.1025734  21.7544222
  16.7184901   6.8993014  31.9514704  16.3589919   6.2514323  32.5574899
  16.0421395   7.5741410  31.8933868  40.5779123  78.9173698  60.0877762
  41.0788727  79.6657181  59.7633600  39.6971941  79.0482759  59.7364473
  15.0112343  35.0878739  15.3043795  14.5466745  34.8006177  16.0904455
  14.3321157  35.4775810  14.7537816  20.0957298  69.1451502  67.6979780
  20.5502033  68.3360672  67.4632978  19.7690773  69.4864845  66.8655014
  16.8332291  28.7670541   6.8961811  16.6156471  29.5192051   6.3455808
  17.6961040  28.4877920   6.5900928   2.4505872  50.8921146  46.6525078
   2.9615432  51.6979647  46.5765810   2.4678856  50.6846809  47.5868034
  78.3713436  50.2734566  27.1775794  78.5036278  51.0470057  26.6295314
  77.9969549  49.6214199  26.5852046  42.5112867  58.2714891  17.8096449
  43.3337498  57.8440142  17.5707853  41.8582439  57.5727034  17.7714050
  62.6110792  38.6409450  54.5463181  63.2714701  38.5175371  55.2281427
  63.0406523  38.3510756  53.7415361  31.2852478  22.0514941  23.2039142
  31.8784857  22.1045756  22.4545932  31.5721083  21.2733436  23.6818552
  60.7271004  22.4771762  37.2172022  60.9147167  22.8004384  36.3359904
  61.5065956  22.7012730  37.7255321   6.9304323  15.4898846  11.3306165
   6.2550724  15.0022352  10.8591092   7.0025748  16.3183737  10.8566618
  77.1039772  13.4455657  25.2508307  76.8409872  13.7721658  24.3903637
  76.7574644  14.0901387  25.8678293   8.9179015  24.5665979  19.9243367
   9.5504838  25.2836800  19.8811281   8.2058370  24.9076509  20.4655194
  11.2479913  64.9141788  32.0847297  10.6272936  65.6358814  31.9841623
  11.3737917  64.8364878  33.0304408  79.6053791  36.4666653   3.7239936
  80.4355240  36.8568397   3.4503943  79.5722675  36.6124964   4.6694398
  77.7528524  21.6790271  38.1409597  78.1376934  22.3888087  38.6550975
  78.5034752  21.2339044  37.7476907  17.8523552  20.7164001  40.4576635
  17.5964248  20.3651524  39.6048093  18.2017469  21.5861297  40.2634335
  10.7450962  49.9023342  40.0167465  11.2591577  49.5392942  40.7379770
  10.4122031  49.1356659  39.5502329  30.8765817  73.2535648  22.8235960
  30.5397749  72.4864864  23.2866192  30.4401875  73.9961243  23.2411981
  68.4362411  20.4804015  64.5332956  67.6243210  20.3324151  65.0181818
  69.1196775  20.1100135  65.0918245   6.3807440  57.5342417  43.3510971
   6.8622643  57.5967169  44.1760015   5.8963495  56.7113876  43.4182453
  81.3669014  28.2860851   8.1318808  80.9022903  27.8549242   7.4146163
  81.1577702  27.7596116   8.9034510  63.1513691   1.2940325  67.3927689
  63.0032825   0.7875377  68.1913710  63.6868382   2.0354664  67.6752234
  66.6168118  73.3960581  52.0427179  67.4485636  73.2995176  51.5789318
  66.1780643  74.1219664  51.5991116  30.1911545  61.3865900  32.8211641
  29.4902182  61.5803194  33.4435678  30.8085084  62.1110344  32.9225755
  34.6315742  37.5358963  28.1411600  34.4375587  38.4719920  28.1892967
  34.3021894  37.2668147  27.2836447   1.2968624  59.8464489  27.2451544
   0.8329339  59.4618177  26.5014720   2.2203340  59.6636724  27.0718765
  18.9156067  52.9334784  52.8246641  19.1954148  52.2178602  53.3954763
  19.7228706  53.4042978  52.6175690  23.5570145  69.1133261  27.0539427
  24.4738650  68.9260912  27.2553372  23.4440303  68.8141155  26.1517572
  33.0438280  44.3076468  21.5836883  33.8886237  44.1102886  21.9881654
  32.4894381  44.5883656  22.3117542  76.7222691  66.7586088   1.1847149
  76.9124794  66.6107798   0.2583254  75.8551550  66.3748598   1.3153911
  74.0567875  57.9829407  12.6395321  74.7121048  58.6739016  12.7363014
  73.2198858  58.4472132  12.6228225  70.5166578  61.9531488  14.2293978
  71.0612392  62.3746252  14.8942459  69.6182585  62.1341610  14.5057023
  44.1339779  18.0981600  24.4803810  43.9997768  18.8887024  23.9576340
  43.4584904  18.1410444  25.1572180  36.0071993  78.0821896  48.8213968
  35.9170389  77.1592188  48.5842848  36.2686777  78.0685186  49.7420883
  38.0429912  77.9154778  42.8804445  38.4491873  77.2572184  42.3165894
  38.0604506  78.7193727  42.3611355  62.2787619  26.3573670  21.1228371
  63.0661631  25.9950376  21.5289688  61.5550756  25.9638119  21.6103029
  51.1388731  76.2384844   1.6790573  50.4939032  76.6286755   2.2689749
  51.9593525  76.6821527   1.8940167   3.0419913  29.4071913  25.9614301
   3.5287368  30.2184772  26.1067843   3.5267842  28.9577699  25.2691698
  13.0611682  29.8896408   3.7924799  12.9366910  30.3541708   2.9648638
  13.1015635  30.5821085   4.4520915  15.6020832  57.3152494  38.6681175
  16.2252092  57.5823784  39.3438315  14.9376082  56.8132639  39.1400433
  22.2703719  67.6416445   0.6481210  22.5635767  66.8873787   0.1368989
  21.6867661  68.1186295   0.0581038  79.0473700  25.2726698  60.3037548
  79.7202682  25.7443810  59.8129129  78.4049559  25.9435701  60.5348921
  17.4898493  58.0601692  33.8768125  16.8963683  57.5824976  33.2972908
  17.1354306  57.9159880  34.7542119  76.9998407  57.1968555  36.7743134
  76.2172174  57.5353527  37.2092366  76.6694450  56.5320539  36.1700678
  68.8259554  47.3593903  55.3495264  69.0773726  47.0833921  56.2309170
  69.3000650  46.7649841  54.7680378   6.1465931  49.5805025  48.5221148
   6.5621036  48.9484787  47.9354858   5.2372360  49.2881107  48.5838413
   0.9013513  26.4083791  42.0987463   0.4936454  25.6361532  42.4907589
   1.3956888  26.8076658  42.8145885  83.8751698  58.4474945  20.0625777
  83.2145882  59.0211248  20.4509068  83.3745575  57.7162695  19.7007477
  67.9781342  64.0128326  45.6528807  68.7640333  63.5427618  45.9314966
  67.3504496  63.8711643  46.3615227  39.1516232  41.7529964  17.0983160
  39.9018192  42.1785545  17.5134587  39.2928624  41.8804312  16.1602092
   6.8418127  78.3441019   2.0501640   7.1851248  78.5994864   2.9064053
   6.1468500  77.7163982   2.2482766   1.1763685  24.2343521  68.6183167
   0.7434539  23.3931971  68.4724617   1.5711333  24.4502306  67.7734566
  43.5117388  68.2928610  35.5636859  43.8445377  69.1843843  35.6669807
  42.9359961  68.3390617  34.8003936  59.0508127  61.0253096  15.2443314
  58.5472441  60.8353186  16.0358810  59.9583721  61.0762262  15.5442905
  45.3061771   8.8642323  26.6531086  44.6151018   9.1509265  26.0560727
  46.0940504   9.3069893  26.3377452  25.1293898  43.4737730   8.7527376
  26.0328794  43.2876015   8.4972405  24.7623777  43.9480114   8.0066615
  72.4932337  48.3706570  50.2276516  72.2680473  47.8931379  51.0260916
  72.0234537  47.9099274  49.5324755   0.4390314  62.7616358  46.3143206
   1.3295797  63.0978489  46.2137365   0.3947300  62.4694586  47.2247601
  18.8589549   5.3206235  41.0833549  19.1220951   5.8464539  41.8386650
  18.7853110   5.9508806  40.3667068  38.2328153  16.5604329  42.2005129
  38.0323267  16.5907586  41.2650394  38.7369847  17.3576283  42.3633766
  18.8835132   3.9430040  32.0723343  19.4357300   4.3812552  31.4248586
  18.1403494   3.6115733  31.5682578  62.4191093   2.8133532  50.1714945
  62.1602583   2.4496882  51.0182381  62.6541519   2.0495903  49.6445656
  80.3814316  48.9747047   7.9858547  79.5748234  49.1399670   7.4976850
  80.9771824  48.5922146   7.3416412  66.2898159  13.9240074  66.8813992
  65.9792471  13.1953967  67.4188995  66.1168480  13.6483264  65.9812260
  27.4581313  61.8882418  24.2526197  26.7164779  61.4488888  24.6687341
  28.1122398  61.9638729  24.9473548   6.7852461  20.7257009  61.8137074
   6.0086948  21.2732530  61.6980076   7.3683238  20.9830308  61.0995436
   6.2321109  42.4627399   3.2541335   6.7133969  41.6353464   3.2578704
   6.9097674  43.1343651   3.3312032  35.2234864  29.9551892  28.7829137
  35.4874516  30.2658248  27.9168534  35.1490736  30.7505679  29.3102336
  15.9312105   6.9107848  27.7396774  15.3854501   6.1810708  28.0327559
  15.8905196   6.8716222  26.7841434  36.7616987  75.4223299  38.7550521
  36.3168120  76.1751556  38.3657503  37.0165801  74.8817682  38.0073476
  42.8955936  63.6709642   2.8791881  42.6401854  64.0469027   2.0367694
  43.4958744  62.9607201   2.6523817  11.0474420  67.1685171  20.1901054
  10.8005345  66.9992876  21.0992956  11.9359624  66.8206024  20.1144814
  59.9567938  56.3852024  36.8058658  59.0572834  56.5654278  37.0790505
  60.3562307  57.2499323  36.7113876  16.0094726  53.0934715  38.0354810
  16.6744804  53.7410450  38.2692361  16.2754226  52.7781153  37.1717358
  21.9346499  32.4576235  23.6266470  21.4755821  32.1816373  22.8333521
  22.6173186  33.0513239  23.3140492  68.4016800  61.6695690  23.7458301
  68.7229490  60.7968616  23.5191202  67.9773235  61.5551567  24.5961618
  81.2261486  63.5377455   0.1203572  82.0999050  63.3177853  -0.2027379
  80.7597351  62.7020454   0.1375483   1.3599412  61.7482567  59.8970985
   2.0574097  62.1693707  60.3995228   0.5731036  62.2483683  60.1139021
  21.3183880  13.0539227  17.1021187  20.7169366  12.4486399  16.6683888
  20.8871770  13.9061809  17.0393074  65.9643507  38.4403944  44.3678141
  65.6731606  37.9339981  45.1261044  66.5044737  39.1381311  44.7388411
  44.1336250  74.5201778  44.1234684  43.8038731  73.6231613  44.1769218
  44.0067053  74.8748589  45.0034237  77.5386190  40.5036163  29.0024304
  77.6385593  39.5520830  29.0312481  77.3049164  40.7471323  29.8981500
  20.7790852  61.1741924  30.4074955  20.3995419  60.3120565  30.2375031
  20.2778721  61.5146589  31.1485100  46.2316751   4.0108126   6.0769939
  46.5061569   4.6014574   6.7784435  45.3532028   4.3097723   5.8421695
  75.4339933  67.5038195  67.6025152  75.7190561  68.2648420  67.0967340
  74.4999123  67.6511049  67.7509499  64.0593767  51.6471338  65.2310228
  64.2014933  51.8109369  64.2987156  64.9212217  51.3976049  65.5644703
  71.8562651  74.3075800   5.2799952  71.5052128  73.4765005   5.5998421
  71.1223507  74.7171402   4.8218819   3.0077311  64.3679380  12.6427245
   2.5894669  65.2247906  12.5585151   3.8614589  64.5554590  13.0328751
   8.8350451  14.2593014  48.2534361   8.4980756  14.7023499  47.4747229
   9.7816318  14.2211270  48.1165123  65.2420568  65.0865316  35.6958127
  65.4905748  65.2537775  34.7866917  65.1353979  64.1365194  35.7440662
  22.9537773  15.8839464   2.6448518  23.0403233  16.3484788   3.4772882
  22.0612597  16.0742736   2.3560256  51.1997938  62.0799923  40.5523205
  51.3877821  61.5466738  39.7800088  51.5506983  62.9443121  40.3377295
  33.4429264   5.4561841  32.2279549  33.7750959   4.9367577  31.4957714
  32.5070500   5.2574414  32.2574854   4.0049282  62.9100800  49.4790363
   4.0876642  62.9519224  50.4317331   4.4849589  62.1198320  49.2314148
  61.4193439  52.3804188  21.4546990  61.9553232  51.6705894  21.8083978
  60.6255674  51.9474745  21.1405158  61.7844582  59.7874022  29.1668510
  61.5581656  59.9299479  30.0859284  61.4078093  58.9327526  28.9572239
  51.1218977  63.0033398  60.0135994  51.7387295  63.3863354  59.3898487
  51.3182449  62.0665884  60.0001383  11.9007862  42.3843670  17.4275291
  11.3502097  41.8909311  16.8195677  12.4212253  41.7171001  17.8748858
  56.5824461   6.8526292  33.8963008  57.5161886   6.6426790  33.9128828
  56.5360785   7.7617568  34.1922235  61.5161753  46.0824633  30.9639621
  62.0121813  45.2949905  30.7401466  61.7782354  46.2833023  31.8624163
  72.6869154  31.0212874  53.6524439  73.4167194  31.5721965  53.9354992
  73.0481863  30.4918170  52.9415464  39.1414404  66.9343805  16.7329049
  39.8733783  66.4835787  16.3118625  38.5765195  66.2296677  17.0498812
   3.3426061  58.9975882   4.2807928   3.7035486  59.8273039   4.5930797
   2.4114501  59.1759443   4.1490063   3.0608380  53.6463165  23.1854367
   3.2411796  52.8342819  22.7118278   3.5103619  53.5395479  24.0237451
  48.5956573  33.3572483  19.3182111  49.4209051  32.9254436  19.5389891
  48.0646086  33.2784557  20.1106834  27.6411033  74.8361588  53.8476944
  28.2059240  75.5586338  53.5733891  27.0934725  75.2092266  54.5384598
  66.9696808  57.3734856  21.3778949  66.3475418  57.1036863  22.0534587
  67.5791121  56.6388369  21.3063693  49.9117136  62.4025488  11.2218332
  49.6455240  62.8376865  10.4118752  49.1805649  61.8221045  11.4333415
  13.0113733  64.9993086  50.6048918  13.6217928  64.9078226  49.8732853
  12.6420557  64.1237068  50.7196093  19.0701842  52.3842907  59.6072626
  19.2608762  51.5740395  59.1346550  18.3320963  52.1624279  60.1749229
  12.4770963  43.6141205  26.0808611  12.3519909  44.1574764  26.8589020
  11.9831455  42.8151083  26.2647724   3.0206445  51.1138105  11.9280910
   2.5481421  50.4169512  11.4727187   3.9295784  50.8142757  11.9468009
  77.1882629  74.1821527  61.0969114  77.3511457  73.2542276  60.9276390
  76.3016081  74.3333197  60.7694626   6.2808859  26.3427448  10.5169344
   6.1379552  26.6972518  11.3945031   6.8573022  26.9784117  10.0927830
  23.5109663  18.2640767  58.5772514  22.8270245  17.6624024  58.8712645
  23.2574105  18.4968925  57.6840878  63.3404827  73.0627871  68.3911800
  64.2006063  72.6681376  68.2473946  63.5197020  73.8432360  68.9156008
  15.9433746  41.4837837  32.3946261  16.7353809  42.0198441  32.3547029
  16.2514007  40.5898905  32.2452617  18.7989831  46.2763262  60.9347439
  19.6137655  46.7706442  60.8452225  18.9510572  45.4720116  60.4385757
   2.5370488  47.1905994   1.7553546   3.4360281  46.9064569   1.5900326
   2.0204982  46.7591953   1.0746940  13.7068605  47.8788042  63.5943890
  14.4764316  47.3667622  63.8429976  13.8250160  48.7191391  64.0372276
  32.9034066  54.8966265   8.9422971  32.0840216  55.3885746   8.9955127
  32.9338145  54.5788622   8.0398935   1.1846495  62.4650240  53.6044407
   1.0361138  62.8785276  52.7540398   1.0193343  63.1604528  54.2410564
  57.8154230  68.8909435  65.6812429  58.3656216  69.6740770  65.6960773
  57.7118540  68.6535072  66.6027260  80.8135128  31.9400311  52.6488113
  80.1040077  32.4996877  52.9644346  80.4058552  31.0826969  52.5262451
   4.0738517  46.7668867  16.4229143   3.8046947  46.7213249  17.3403633
   4.9877620  47.0496559  16.4551866  19.8526812  29.2953730  11.6732287
  19.2154586  28.8641334  11.1038303  19.8104274  28.8052559  12.4943459
  79.1314030  47.8824615  56.0597801  80.0759602  47.7847624  56.1801958
  78.9814901  47.6501942  55.1433706  19.2818272  29.6847582   5.3232712
  19.1235459  30.2742934   6.0605818  20.0657988  29.1951609   5.5720979
  73.5486126   5.7516825  66.3036013  73.9957428   5.6598455  65.4622459
  73.4087706   6.6938007  66.3989353  83.0064678  41.7671156  50.0820017
  83.1790352  42.7057743  50.1553297  83.5927868  41.4694262  49.3864107
  37.1404433  17.1115088  27.4353099  37.0679736  16.7215514  28.3064675
  36.7345047  17.9737830  27.5243545  51.3992596  74.1068029   7.1690840
  51.3673401  73.1570196   7.2836387  52.2801495  74.2784309   6.8362051
  24.5235538  51.3782692   6.4958012  23.9260101  51.1482191   5.7842880
  25.1684833  51.9570732   6.0892481  10.2404785  38.9955711  18.4424758
  11.0909247  39.3829632  18.6495972   9.7863859  38.9507580  19.2839170
  18.6480927  20.7583427  31.8844938  18.9749360  20.8677340  30.9914994
  18.8760614  21.5770364  32.3249531   8.6672872  24.7984529  59.2524910
   8.7294620  25.6096005  58.7481070   9.5640504  24.6251583  59.5388794
  11.0678232  59.1972828  10.3579748  10.7565546  58.5518646   9.7233266
  10.7652569  60.0374174  10.0132167   0.9134920  12.8176212  63.7803841
   0.9657136  11.8788016  63.6011600   1.6064781  13.2027614  63.2440329
  30.0709414  36.7188787   1.7755744  29.8388815  37.6474929   1.7678630
  29.3780828  36.3031101   2.2887188  19.0805936  29.7754359  26.5445161
  18.9818108  30.6725955  26.8632269  19.7371340  29.8386121  25.8508325
  50.4713345   9.8625141  25.6980324  50.2828074   9.9161536  24.7611165
  50.6393766   8.9334685  25.8557248  77.0397091  57.4275494  21.6352415
  76.5265131  57.1280527  20.8847976  77.3083353  58.3162737  21.4023542
  77.9174089   8.9113945  47.8467512  77.0382881   8.5738337  47.6751995
  77.7741671   9.8045921  48.1596565  83.7546730  39.8445010  61.7234659
  84.4573975  39.6436787  62.3415899  84.1417885  40.4766178  61.1178303
  48.3753633   4.4303167  47.0953035  47.8618860   4.7086301  47.8536701
  48.2723951   5.1410389  46.4624500  44.2385292  10.3757203  21.8411064
  43.8752413  11.1920381  21.4977717  44.4710445  10.5793703  22.7470279
   3.0190194  24.9045753  51.8059349   2.3795304  24.2608929  51.5010500
   2.4984694  25.5539227  52.2788095  42.1730614  23.0380797  56.9981194
  43.0940294  23.0737567  56.7397022  41.7508125  23.7190485  56.4744616
  41.3116455   0.3468541  13.8888443  40.4399204   0.0426681  14.1414356
  41.6909838   0.6865052  14.6993816  53.7179852   6.2347829  40.9546900
  53.3886814   5.3360587  40.9638357  54.5620775   6.1760366  40.5071545
  83.5807323  46.3921547  20.1212883  83.9853477  46.6114473  20.9605908
  82.9925919  47.1252918  19.9401152  16.6888702  56.6467619  36.2805009
  16.4749396  56.6323614  37.2133780  17.4773538  56.1090279  36.2072587
   8.6581254  62.2327662  16.4631236   7.8340483  62.5873327  16.1293387
   9.2951685  62.9328966  16.3209033  11.1496055   5.1122093  21.4162111
  10.3466451   4.7371000  21.0545778  11.5500700   4.3939278  21.9060397
  47.7703953   1.2018500  32.0326972  48.3674860   1.4878000  32.7240348
  47.7921820   0.2459537  32.0776391   1.3757020  47.4318123  30.5571818
   1.4936870  48.3792686  30.4890585   2.2610220  47.0745897  30.4876637
  50.8182335  25.0036931   0.8680662  50.1990414  24.3229604   1.1315767
  51.1666250  25.3427649   1.6926172  64.3216753  46.4272642  39.0419173
  63.9152336  47.1884537  38.6276364  63.6044455  45.8029985  39.1519547
  13.8590193  56.2092066  40.4632092  12.9614830  55.8891821  40.5540133
  14.3612230  55.6969309  41.0969257  52.7019215   8.1846541  21.5175438
  51.7910957   8.3608663  21.7532849  53.1079388   9.0499973  21.4669299
  67.5971937   1.3816367  26.5970230  68.2763243   1.1130451  27.2157860
  68.0538368   1.4602832  25.7594514  12.1232867  61.0255861   4.8679233
  12.1281528  61.9169283   4.5190436  13.0488074  60.7981730   4.9569526
  28.1483316  75.5746603   0.7914093  27.4659252  75.6364346   0.1230241
  27.7599978  75.9773493   1.5681133  52.8449678  73.9133120  17.1635222
  53.6289454  74.0303087  17.7001083  52.9883575  74.4775772  16.4037347
  75.9343147  37.7858257  16.3530827  76.5088367  37.8461194  15.5898511
  75.0864267  37.5236392  15.9945083  49.8960400  14.1905820  12.0018888
  48.9743662  14.4239736  11.8910885  49.8785686  13.3833742  12.5160289
  75.9769964  67.4188566  15.6607139  76.5280056  68.1551647  15.3952456
  76.5441608  66.6524649  15.5758524  26.3192415   7.0494646  20.6402183
  26.4005351   6.2457246  21.1536622  25.3826523   7.1227878  20.4567695
  30.3767323  77.6245356  48.4140873  31.1891031  77.2893524  48.7934732
  30.6618500  78.2859516  47.7836323  14.4362926  57.1769047  21.7635703
  13.9432573  56.9063282  22.5381279  15.1669025  57.6883078  22.1112895
  52.5710344  72.9939938  65.1706266  52.3704624  73.8939714  65.4276085
  51.7302465  72.5387907  65.2164268  21.8543339  63.4354639  32.6552081
  22.7082539  63.1431580  32.9739714  22.0313287  64.2758036  32.2324347
  60.1613569   1.5892766  37.9581833  60.9130001   2.0095573  38.3760643
  59.7972059   2.2643732  37.3855829  45.1952028  65.4709625   6.8785530
  45.6415510  66.0956144   7.4502307  44.4808006  65.1248980   7.4134356
   5.0793481  54.8032093  43.0603886   4.9309316  54.3382692  42.2369623
   4.2009872  54.9981546  43.3870554  43.0766964   6.4488018  29.9577212
  43.6067867   5.8438635  30.4766488  43.5085344   6.4737034  29.1038299
  71.4318466  65.4849625  31.5354705  70.5785847  65.7417631  31.1858678
  71.6536474  64.6836090  31.0612679  40.9826040   4.1366637   3.7801191
  40.8787537   4.6303269   2.9666427  40.4258633   3.3664909   3.6656362
  70.1717615  54.8547840  46.0400009  70.3928804  55.5209923  45.3892279
  69.7406864  54.1632223  45.5378580  34.8333621  11.9015944  31.1478734
  33.9953041  11.4487386  31.0539913  35.4716015  11.3090742  30.7506299
  18.5647070  43.4419537  26.0735631  19.0115106  42.7547598  25.5792332
  18.5829806  44.2039585  25.4945564  80.4140663  74.2243481   8.4337908
  79.4646740  74.2717171   8.5461873  80.6169033  73.2912779   8.5006148
  36.0782623  55.0423384   3.7706786  35.2642465  55.5227184   3.6195424
  36.0353851  54.7819090   4.6907705   3.1911156  49.3928003  14.4174087
   2.4780066  49.9928045  14.1990077   2.7687579  48.6868668  14.9068046
   4.1777501  34.0703917  57.5759220   4.1778958  33.4052157  56.8876123
   4.9943373  33.9218378  58.0527353  22.0699286  59.9970913  37.1614885
  21.9089603  59.5987272  36.3061357  22.7423692  60.6577206  36.9952989
   2.0267610  69.4834232  33.4697962   1.8735860  69.2452192  34.3841410
   2.8855962  69.9060631  33.4730411  20.0830388  25.7627964  62.0786285
  21.0045075  25.5077744  62.1243620  20.0975442  26.7194390  62.1079350
  35.6030297  38.0865264   2.0629449  35.5040479  38.6463571   1.2928639
  34.7192264  37.7644467   2.2401103  38.1434917  53.7921667  20.5389285
  39.0367031  53.6167097  20.2429223  38.1443095  53.5435390  21.4632750
  15.9228778   9.7978604  45.3103161  15.8189130  10.4063261  46.0418892
  16.8580353   9.8243427  45.1078081  69.6924257  13.4956884  52.7810383
  70.2299547  14.1994131  52.4176216  69.1971922  13.1618857  52.0330048
   6.5609127   5.4907340  59.3525505   7.0608860   5.0806355  58.6468029
   6.2978739   4.7619101  59.9145603  76.8530273  26.9209480  17.4997735
  76.4821339  26.0456467  17.6116800  76.7579699  27.3329401  18.3585274
  69.3034220  38.4325051  60.6229258  70.1816797  38.0663919  60.5187511
  68.7391233  37.6694870  60.7478237  56.3184929  58.7749767  35.9229994
  57.0166636  59.4115353  35.7694221  55.7550907  59.1902828  36.5759397
  52.8215742  75.0642633  36.6605735  52.6121044  74.1305017  36.6395092
  51.9697762  75.5009222  36.6581964  73.8621378  72.8644562  43.9902735
  74.2147779  72.6399899  44.8513699  73.8879728  73.8209105  43.9627743
   0.5076300  72.9255390  49.3551779   0.1502246  73.5140514  50.0201178
   0.1353949  72.0696974  49.5677948  60.7706785  66.3876152  57.2888374
  61.3987732  67.0830441  57.0936060  59.9676418  66.6582775  56.8437481
  34.0372944  69.6596241  19.6267629  33.3876824  69.8320389  20.3083134
  33.7866783  70.2368498  18.9054883  82.0619583  78.0687237  22.2046161
  81.2517262  77.8778791  22.6771951  82.7493286  77.6663113  22.7354813
  56.8905640   1.4218213   3.5169530  56.5068388   2.2686741   3.7446049
  57.8316736   1.5901670   3.4699699  79.9075985  75.9710312  11.7253208
  80.6698513  76.4509249  11.4014161  79.6061993  76.4799786  12.4778891
  18.9542937  48.0857754  34.9444699  19.6871185  48.5279131  35.3730893
  18.7974608  47.3080492  35.4799891  15.6191730  63.5553789  13.5094321
  15.6714225  62.8306627  12.8863025  15.1723778  64.2524672  13.0291533
  17.1536756  55.9415531  43.5513973  17.4869406  55.5268574  42.7556658
  17.3874211  55.3346300  44.2537117  17.6973343  78.3853436  29.5180130
  18.2959414  79.1235256  29.6319652  17.4973786  78.0993223  30.4093289
  47.7152252  56.2334108  27.8421640  47.5988054  56.6200590  26.9743013
  48.0928755  55.3706169  27.6712823  27.4950719  47.0186281   9.0581334
  27.4218297  46.5769958   8.2120657  26.6553950  47.4645901   9.1690117
   3.3866718  42.8218222  54.2809820   2.4484909  42.8561687  54.4677114
   3.6701363  41.9779015  54.6326542  64.3980312  10.3298163  50.9068012
  64.9210024  11.1277175  50.9847927  65.0313425   9.6182269  51.0005617
  30.2338624  65.6444120  27.3321724  31.0965514  65.2608299  27.4898553
  29.6481991  65.1662159  27.9191637  26.8940043  56.4028645  26.9117999
  26.1626649  55.8362389  27.1573853  27.6634288  55.8355665  26.9606805
  42.4380541   7.2931319  52.3175335  42.2899151   6.7811292  53.1126070
  43.3203459   7.0500267  52.0370197  13.8184333  70.8025265  11.7680895
  14.5048976  71.3414955  11.3750112  14.2840004  70.2262163  12.3741817
  75.9405756  55.5408287  35.0151753  76.4841318  54.8503447  34.6356940
  75.8463812  56.1845732  34.3130708  52.2243547  53.6959219  66.6370344
  52.1966457  54.2665339  67.4050617  52.9768276  53.1244755  66.7902374
  18.9142752  65.4409885  14.1122115  19.6854103  65.2857018  14.6576190
  19.1724753  66.1558056  13.5303199  12.6065826  75.7874966  35.0056601
  12.4656069  75.5313730  34.0942001  11.7354882  76.0213089  35.3262210
  36.8725109  66.4561224  59.6039629  37.7160478  66.0727596  59.3637323
  36.7699528  67.2002554  59.0106869  21.4935017  79.2863512  25.1270390
  21.4366627  78.7175417  24.3592787  20.7599902  79.8936272  25.0300431
  22.8677559  55.3954363  11.1974740  23.3020759  54.5795250  10.9487057
  23.1220746  55.5336142  12.1098673  11.9425404  36.9250917  53.3924150
  11.2896061  36.2296295  53.4714174  12.6890028  36.6119599  53.9032745
   9.4910258  71.3041067  34.0403581   9.9150848  71.1223555  34.8790312
  10.2153885  71.4635944  33.4353018  61.7317533  11.6075003  29.8325682
  61.2109566  12.1169388  30.4534340  62.6344919  11.7154527  30.1319766
  77.8369808  76.9300938  27.4898934  77.6187277  77.6034403  28.1342506
  77.6610136  77.3420572  26.6439915  41.1094904  58.0605173   4.3853882
  40.9610081  58.7114716   3.6994994  40.4501247  58.2586098   5.0503892
  78.4722090  68.0158567  59.9570656  79.3917847  68.1956148  59.7613716
  78.4403706  67.9416847  60.9108591  32.6337838  27.2167730  41.2706852
  32.5068021  28.1339049  41.0278368  32.1661162  27.1217585  42.1004391
  65.2691793  34.4662523  21.5037203  66.1345148  34.7802806  21.2414122
  64.8097038  35.2512836  21.8017769  16.4346600  49.4765902  48.5424757
  17.3391485  49.4279909  48.2330084  16.2499368  48.6005116  48.8809824
  37.2879577  46.1617088   3.6472705  36.6365123  45.8538771   3.0171186
  37.8676414  45.4113674   3.7783599  53.9309835  77.5398350  61.9435358
  53.8512516  77.5785208  60.9904480  54.7110462  77.0067978  62.0971870
  72.7452469  68.5818815  67.5559616  72.6448393  69.5275593  67.6647949
  72.6030016  68.2235193  68.4320736  54.0347576  19.0710676  37.1114087
  54.4201374  19.4958198  37.8777599  53.1775951  19.4857001  37.0134878
  44.9573231  70.3324986   9.4242889  44.0878963  70.7283258   9.4847822
  45.2907133  70.3484821  10.3214109   5.8644879  69.5606709  31.6663313
   6.4023960  70.3506565  31.6133523   5.5525607  69.5435333  32.5711179
  54.1902351  18.5881627  34.2258620  54.3036938  18.8566911  35.1375914
  53.4637070  19.1236794  33.9070916  29.3239331  69.4714832   8.8691556
  29.9531507  68.8520384   8.4995592  28.6040854  69.4867182   8.2384253
  21.2169242  50.8168221  12.8659260  21.8974352  50.4682398  12.2900569
  21.6955924  51.3170910  13.5268641  37.8384829  52.7523136  26.2499809
  37.6279783  53.5741615  25.8067131  38.1906581  53.0211926  27.0984554
  83.7046814  61.8628263  38.9933467  83.2386112  62.1305847  38.2013106
  84.6298695  61.8987226  38.7505221  35.9084892  30.8731985  15.8441389
  36.4603877  30.2737665  16.3464534  36.3865328  31.0104585  15.0262964
  43.5762405  58.6290836   1.9669700  42.9076672  59.2672300   2.2159858
  44.3924999  58.9900112   2.3129170   9.1643953  70.5705833  28.3458066
   9.2421716  71.1792946  27.6111960   9.5516473  69.7564125  28.0242562
  55.9773731  77.0847893  34.2627859  56.4356470  77.1815014  33.4280014
  55.1297235  76.7069721  34.0283132  18.4831011  51.1293554  26.1527729
  18.1183243  50.7426548  25.3567600  18.3055878  52.0660400  26.0670948
   8.6613935  19.6307123  23.3360767   8.1213742  18.8951421  23.6251235
   9.1213495  19.9150765  24.1258907  10.9514678  41.9698048  14.5661891
  10.9450018  42.8724432  14.8846745  10.1141489  41.8696070  14.1133213
  19.6827328  67.4690104  54.7633505  19.8254287  66.8051195  55.4379749
  18.7397647  67.6322126  54.7835779   2.8449395  29.3251276  18.4410024
   3.0188242  28.6212349  17.8160787   2.0949432  29.0149951  18.9485013
  18.8507593  68.1755066   3.4647197  17.9364288  67.9436779   3.6274615
  18.8320625  68.6579609   2.6382071  37.8174615  16.6521716   8.3601224
  36.9636536  16.7559946   7.9400468  37.6142669  16.5191090   9.2859942
  80.4830170  72.6346970  51.1150885  81.3841152  72.6723528  51.4357567
  80.4814339  71.9100523  50.4896927  73.0689764  20.7828021  36.8823624
  72.9144335  21.6043067  36.4160132  73.9297009  20.4936647  36.5794039
  14.6819854  66.4959240  32.7997446  15.6302571  66.4043427  32.8926229
  14.4078922  65.6996679  32.3446798   7.5757664  52.5447798  37.0129037
   8.4001458  52.0590115  36.9871759   7.0282662  52.0550823  37.6266408
   8.3379424  31.4850020  26.8916798   7.5856638  31.7484498  27.4216843
   8.9404172  32.2268629  26.9455028  71.1502266  58.8707590  39.9480414
  72.0383406  58.6577845  40.2346182  71.1752844  58.7711620  38.9963675
  51.3317823  21.4686131  15.5967402  51.1817074  20.7644391  14.9659884
  52.0342970  21.1412907  16.1584926  12.9537022  47.1667194  16.8490720
  13.0814934  47.2811127  17.7907801  13.2266688  46.2653446  16.6780722
  42.9787493   1.1344864   9.3101496  42.4358511   0.7815158  10.0150681
  43.5538816   1.7650306   9.7435880  61.0944176  21.7573285  51.3823605
  60.6533957  20.9079528  51.3993835  61.8087435  21.6689920  52.0133638
   4.6278760  44.3068075  13.5779262   4.8681784  44.6003437  12.6991081
   3.7635693  44.6889639  13.7301123   8.3376819  38.7237048  53.5682535
   8.1506479  37.9136157  53.0939102   7.5973004  39.2958331  53.3664227
  71.8946934  61.7805719  52.6508093  72.0929241  61.5697670  51.7383957
  70.9783077  62.0568562  52.6391506  62.9770565  11.3013458   4.9375030
  63.1336594  12.2199905   4.7188729  62.4410677  10.9715092   4.2162830
  70.5345011  11.9074488  11.9930267  71.2716484  12.5097322  12.0935273
  70.3856659  11.5620804  12.8732538  68.0400705  11.4086545  54.1499281
  67.4475098  12.0123196  54.5979118  68.8618517  11.8932748  54.0721321
  21.1672330  43.3313322  29.3126225  21.3841391  44.2610979  29.3813086
  21.7169547  42.9078007  29.9719119  11.7107856  34.8644137  35.7279801
  12.3132896  34.7902369  34.9879003  12.2734046  35.0665474  36.4755321
  38.4865832  66.5200806  38.4760642  38.6559033  67.4025631  38.8059020
  39.3235373  66.2374783  38.1074572  59.8060131  17.7159333  27.6170158
  59.6992445  17.4391305  26.7069554  58.9732790  18.1318784  27.8401208
  47.0289326  63.3324909   6.1922503  46.4491224  64.0861273   6.0823220
  46.5263939  62.7200079   6.7294222  74.8868275  27.5103545  10.0173938
  75.3622246  28.1652284  10.5286372  74.5064068  26.9251060  10.6723726
  45.2026510  45.7847691   7.9427779  45.9447622  45.7578945   8.5467476
  44.4639778  45.4577637   8.4562588  56.9958973  68.8904285  28.8063478
  56.6927004  69.6662426  29.2779565  57.0081043  68.1980038  29.4671297
  55.0232840  12.9817963  24.3121457  54.6023226  12.4602437  23.6287642
  55.4725218  13.6810088  23.8372588   3.1852570  20.7626319  43.8706827
   3.2517222  20.1294065  44.5854139   3.5088632  20.2917957  43.1026793
  73.2587957  19.8257077  12.0671678  73.9391088  19.2132616  12.3470140
  73.3959675  20.6010938  12.6114023  70.9446716   2.4422395  45.6496811
  70.0795126   2.4822496  45.2420998  71.4989662   2.0190033  44.9940443
  24.7135162  34.1940260   4.7931439  24.8199153  34.8845840   4.1388956
  25.4374933  33.5909295   4.6247348  73.1860638   3.2161662  47.4064350
  72.4901438   2.8665081  46.8499613  73.8819551   2.5605577  47.3601007
  68.4666538  19.0841687  61.0934353  68.6042547  19.4722462  60.2293205
  69.1202641  19.5050991  61.6518688  31.0227799  78.6554956   6.8638837
  31.3023186  78.9992428   7.7123678  30.8477283  77.7286530   7.0268494
  17.4008298  63.4755516  37.4237990  16.8426061  63.8925886  38.0800772
  17.4295020  62.5548220  37.6839375  27.1020961   3.7473372  23.7316966
  28.0116701   3.8759893  23.4627056  26.5881348   4.1978812  23.0615592
   5.2652878  53.4664488  61.0613060   5.2267700  53.9350367  61.8950748
   4.8398405  54.0537834  60.4365921  55.4359484  19.8545516  60.5538654
  55.5005932  19.1713703  61.2211847  54.6121073  19.6711254  60.1023340
  35.3977251  77.5876188  37.4180532  35.2865100  78.0805254  38.2310152
  34.7042894  77.9128933  36.8439674  75.8670187  56.2238836  14.8117507
  74.9851036  56.4798880  14.5417130  75.8466625  55.2669334  14.8199868
  75.0463152  37.8907228  26.3891053  74.4751835  37.6471615  25.6606030
  74.5321703  38.5183048  26.8970704  17.5431228  77.6871872  19.8048210
  17.6415253  76.8001842  19.4587326  17.4182820  77.5646162  20.7458973
  53.6745214   3.2414788  49.3649244  54.3463469   2.5965995  49.5863152
  54.1626453   3.9817259  49.0043688  51.4732218   7.8482562  41.1596584
  52.2544384   7.3298079  40.9669352  50.7511425   7.2221494  41.1065435
  58.8232565  18.9370298  22.5421143  59.7001934  19.3201554  22.5214100
  58.8677263  18.2036912  21.9285440   4.9367979  41.4046001  63.4752846
   4.3624499  42.0652914  63.8623714   4.4605362  40.5811596  63.5818291
  72.8118229   1.9239660  31.1150718  72.7428722   0.9907541  31.3165498
  73.6232662   2.2014770  31.5402579  48.7785482   4.7462228   8.8229585
  49.4361258   5.2754444   8.3715713  49.2255306   3.9220345   9.0157115
  72.4813175  35.9211826  63.0633879  72.4098349  36.0645628  64.0070868
  72.2772884  34.9933815  62.9459620   0.2692907  74.9617672  30.1621509
   0.7780373  74.8174810  29.3642855   0.5952806  74.3039227  30.7763195
   3.1678978  31.8922472  17.0292091   2.5834793  32.5623536  16.6747475
   3.3550775  32.1851277  17.9210711  12.9591358   5.4492617  17.5899386
  13.7959588   5.3375709  17.1388459  13.0969346   5.0552905  18.4513509
   0.4178372  30.9723425  40.0283003   0.6554465  31.8705964  40.2583313
   1.0204713  30.4279518  40.5349588  58.6342812  14.6177423  68.2900763
  59.0565205  15.1181829  68.9882898  58.3771706  15.2765465  67.6450157
  83.0833721   9.6709251  39.3980479  83.9980602   9.3888921  39.4045472
  82.9563141  10.0913227  40.2485466  47.9389286  67.7091742   1.5490848
  47.6559687  68.4578180   1.0240142  47.2306728  67.5772762   2.1793315
  74.1273975  34.5724201  27.3308706  74.7730970  35.1582313  26.9357395
  73.9922476  33.8879824  26.6754985   0.0284267   7.9109502  47.2914600
   0.0746823   7.2144222  46.6365242   0.8704002   8.3609915  47.2223520
  40.9560156   0.8216854  60.9451294  41.6284180   1.2329414  61.4882421
  40.1289225   1.1463626  61.3011312   0.7738823  47.8414631  41.2117720
   0.6356373  46.9346333  41.4852285  -0.0925555  48.2440519  41.2704229
  79.5216513  43.6465168  37.3920488  80.2592468  43.1008863  37.1191478
  79.7463036  44.5244837  37.0839381  62.7180386   5.1770616  63.6259890
  62.7776909   6.1204225  63.4751797  61.7823696   4.9838442  63.5674381
  82.3670006  12.2166419  23.9623952  81.4844418  11.8843448  24.1264319
  82.4327087  13.0009639  24.5071459  79.7484207  74.6573496  25.8309293
  79.6702576  74.7887707  24.8860216  79.9325991  75.5295420  26.1796284
  21.3457298  59.4326115   2.9888415  22.0858240  58.8696194   3.2158512
  21.7111087  60.0747538   2.3802483   5.4108787  11.7937660  13.5891104
   6.3327032  12.0473111  13.6358631   5.0438458  12.0690763  14.4291842
  23.1757474  26.0601521  14.4278312  23.7494540  26.1634874  15.1870513
  23.7588167  25.7758474  13.7239611  80.8787823  48.1474209  44.8889685
  80.2285290  48.0435896  44.1942501  81.6915131  47.8149939  44.5079422
  68.8410854  13.4645605  40.9650517  68.1453609  14.1219139  40.9556150
  68.7336206  12.9902232  40.1406193  75.8819389  53.5276318  15.4125345
  76.5970659  53.3794641  16.0313034  75.2017355  52.9096270  15.6801677
  36.5773177  79.0781355  65.7127857  37.4457502  79.4307804  65.5186224
  36.2708020  79.5936203  66.4588165  24.5065880  64.7303915  67.8859377
  24.7033453  65.5887127  68.2611704  25.0466704  64.1200256  68.3879280
  66.0018349  48.0380058  30.4617214  66.6790962  48.0327225  31.1381245
  66.4431858  48.3783817  29.6835279  50.1184654  30.8796668  10.5530131
  49.8581314  31.7977285  10.4780495  50.7455301  30.7496715   9.8415905
  57.0998764  60.3732014  47.5227499  57.3343945  60.8603287  46.7328501
  56.5282822  60.9670067  48.0094814  61.4970016  24.2560840  23.7240076
  62.2660160  24.6295691  23.2934713  60.9331799  23.9732337  23.0040574
  28.9316130  71.0497761  51.0259819  28.9332223  70.1833487  51.4328432
  28.5519528  71.6254187  51.6898489  11.5073216  53.6098433  35.0283623
  12.2274566  53.8811350  35.5976057  10.7258415  53.6923981  35.5749011
  70.8131266  61.2640572  29.5701003  70.2943707  61.8916845  29.0669060
  70.1823425  60.5995321  29.8471451  44.3878078  10.2500117  51.2865734
  45.1102686  10.4194248  51.8912077  43.5992956  10.3729761  51.8151236
  43.6038446  15.7036066  67.5014019  42.8176451  16.2493861  67.4858141
  44.2548943  16.2074423  67.0130205  72.5651026   0.4436519  53.5232353
  72.9612541  -0.3509881  53.1656837  73.2330036   0.8021308  54.1077328
  14.0458345   1.0122634  35.3722644  14.0896094   0.3085253  34.7249103
  14.9537778   1.2956826  35.4797077  16.0420525   5.6247908  21.7465091
  15.3428793   6.2116730  21.4584827  15.9532881   5.5959326  22.6991463
  21.8027639  37.0629907  30.1676774  21.2240815  37.5260258  30.7734489
  21.2451124  36.3969684  29.7655940  11.4381254  72.1557808  40.4668093
  11.8405795  71.4267397  40.9387875  10.5129230  72.1163273  40.7090378
  84.0913677   9.2712545  59.2355633  85.0148678   9.4506240  59.4121742
  83.6557484   9.4075048  60.0769377  44.6690178   6.3979357  27.2969723
  45.4876041   5.9166014  27.4172354  44.9445152   7.2851187  27.0662379
  14.9707556  38.0514240   4.0569368  15.4840505  38.8589001   4.0841892
  14.2501473  38.2458043   3.4576264   0.7466881  47.0861292   6.4011407
   1.1729975  46.5769434   5.7117772   0.3294020  47.8129864   5.9387755
   8.8916820  54.2393446  25.3967643   9.7214687  54.6464825  25.6456137
   8.2221162  54.8299885  25.7418084  61.4587545  64.2131615  32.4411774
  61.6843176  63.7982607  33.2737708  61.8928862  65.0656557  32.4730277
   1.7167979  43.2066011  10.6223619   2.3109935  43.1058550   9.8787141
   1.1673575  43.9552355  10.3902113  78.6279583  18.9228725  47.6653433
  77.9691267  18.6403501  47.0310307  78.6735725  19.8727489  47.5563240
  81.0229778  77.3023367  26.9314504  80.1348400  77.1673059  27.2619247
  81.1040878  78.2520533  26.8437648  20.1203299  72.0379686  48.8756371
  19.6353781  72.8614616  48.8216543  21.0187459  72.3016739  49.0744734
  38.7770200   0.1301398  14.8331189  39.1149449  -0.3724790  15.5743432
  38.1614137   0.7497860  15.2246511  28.1912446  56.4913607  19.0092409
  28.4845996  57.1023846  18.3333516  28.9988542  56.1832333  19.4204080
   4.8642275   5.8975875  53.9441919   4.3998265   6.5939069  54.4086313
   5.7768369   5.9959108  54.2156839  32.1374035  30.6688428  35.3545713
  32.6177549  30.1690793  34.6944714  32.1112251  31.5605927  35.0076890
  59.9800396   5.8204168  66.9142199  60.7615519   6.2083888  67.3078489
  60.0981951   4.8772359  67.0268297  80.3353024  55.1730394  34.7779083
  80.5461788  54.3046474  34.4349074  79.7561693  55.0029707  35.5208206
  79.5766878   3.1795290  59.5565081  79.0670156   2.8022146  58.8395023
  80.4886246   3.0531767  59.2945194  82.3153591  21.9922781  23.8255072
  83.1909657  22.0960975  24.1980267  81.9353485  21.2580442  24.3079209
  43.3557320  19.1557205  65.1366138  43.4884071  18.2206357  65.2923250
  43.4907150  19.5625663  65.9924650  21.5634060  32.7015114   5.3417212
  21.3923836  32.1275496   6.0884154  22.0307016  32.1478677   4.7161469
   9.1412330  40.1718569  57.0630121   9.9090379  39.7405720  56.6879129
   8.9437109  39.6661472  57.8513527  52.4320555  67.3774672  62.4883652
  51.7327261  66.7318630  62.3865557  53.2080364  66.9489861  62.1271276
  13.8459444  41.4401817  53.5741854  12.9150224  41.2538719  53.6962652
  13.8692737  42.1000481  52.8811741  65.1027966  25.1069641  65.5608320
  65.7624912  25.7338881  65.8574820  65.5609417  24.5618629  64.9211454
  10.6900907  35.6086349  62.1424580  11.2449527  35.1317215  61.5252733
  10.9632182  36.5217543  62.0538807   1.1075918  47.1044970  12.3628390
   1.5711801  46.6935349  13.0925167   0.3117489  47.4626732  12.7559972
  35.0574183  44.2607260  29.7640681  35.2324510  44.4533110  30.6852126
  34.5932841  45.0333691  29.4418359   5.0379473  35.4882860  23.2800388
   5.4701394  35.6574917  22.4428940   5.5543321  35.9787130  23.9196181
  41.0174656  75.7281590  53.7182140  41.4284849  75.5228806  54.5579481
  40.8619213  76.6720295  53.7520695  63.9809084  67.6303053   3.8165769
  64.5116568  68.2776260   3.3523476  64.5511866  67.3096228   4.5152724
  68.5487843  50.6711912  51.4120960  69.2322159  50.8335638  50.7618713
  68.9808750  50.8132648  52.2543240  49.2725182  29.0485239  65.0070000
  49.5512295  29.6310472  65.7135534  50.0855923  28.7977600  64.5685339
  81.4376831   7.9717451  68.4817410  82.3422241   7.8344524  68.7631464
  81.3263798   8.9224267  68.4886312  73.6519766  26.9830084  62.3511887
  72.7873659  26.7296863  62.0279026  74.2560768  26.3812447  61.9162464
  51.7363501  76.8612814  57.5751448  52.6033497  76.5488911  57.3163891
  51.4643669  76.2635183  58.2715178  26.6713095  56.3797235  23.0492020
  25.9913445  56.3282013  23.7209344  26.2395024  56.7949867  22.3026562
  79.6106768  38.7201953   0.5634318  79.7504425  39.6628571   0.4735086
  80.4925060  38.3491182   0.5935328  29.0417671  56.1439419  30.9831548
  28.1507707  55.8048630  31.0690689  29.3409872  56.2622261  31.8846583
  18.3454359  21.2494397  28.9492393  18.2123101  20.5039287  28.3638144
  18.9946985  21.7922473  28.5019708  54.3591452  21.1737347  62.9436874
  55.0777674  20.8788776  62.3843431  54.7249746  21.1649942  63.8281775
  15.6249702  28.4567308  21.2386227  16.4798939  28.8496518  21.0626960
  15.0379157  29.2034817  21.3567829   7.5075299  40.7676268   7.0016146
   7.8420991  41.6591024   7.0994347   7.9285115  40.2751446   7.7062207
  14.5199263  74.8047066  64.1777182  14.7023571  74.7309923  65.1144743
  15.3834963  74.8050404  63.7648249  78.1812382  71.1458635   8.6653787
  77.7352571  71.9259977   8.9951158  79.0790129  71.2294102   8.9867014
  28.7814617  68.4421158  26.9159007  29.5404863  68.2337761  27.4606085
  28.3968019  69.2161942  27.3270845  30.9916615  49.2222786   9.5857197
  31.8226051  48.8453960   9.2963636  30.3254724  48.7302732   9.1057676
  10.0987577  67.3412657  31.0838127   9.1596365  67.5060081  30.9992957
  10.3108096  67.6160955  31.9758534  54.9274158  16.1142445  57.9680729
  54.9553347  15.3775358  57.3575687  54.8242664  15.7082868  58.8287640
  55.1419401  37.8755593  54.9280071  55.1405859  38.2493925  55.8091879
  55.5853033  38.5316181  54.3901920  70.8535862   7.0378548  14.0421534
  71.3846827   6.5125817  14.6406996  70.1329279   6.4599270  13.7913930
  43.7291908  15.6835020  11.0115957  43.7708282  15.6207621  10.0573623
  43.8601017  16.6135216  11.1964178  49.7069025   8.8833225  52.0769167
  49.2663813   8.3240503  52.7167511  49.3485117   8.6096060  51.2326002
  23.6642861  36.5799260  19.6783173  23.7405252  37.3060131  20.2973604
  22.9084587  36.8057775  19.1361475  52.0452690  25.8343720  64.2204237
  51.5569925  25.1682496  64.7042656  51.6714287  26.6654062  64.5134401
  12.1734083  53.8141918  44.4398737  11.3433588  53.3386087  44.4726324
  12.8423703  53.1297255  44.4548321  79.1243362  67.8419638  32.9760981
  78.3201742  67.3464346  32.8211689  79.7897387  67.1736145  33.1397557
  25.9918714   7.2843599  54.4097853  26.1571670   7.0092762  53.5079861
  25.1651740   6.8611830  54.6415663   2.3730455  65.0307178  36.9178581
   2.7280498  64.5471001  37.6637244   2.5337890  64.4617653  36.1650705
  76.4725447  58.6208391  65.5493259  76.7016172  57.9438591  66.1860847
  76.8924522  59.4142103  65.8817101  18.2846081  66.5039253  17.0769870
  18.7516701  65.6900549  16.8880439  18.9708889  67.1699333  17.1180129
  71.1225796  52.3707676  13.6669183  71.5987015  51.5522671  13.5269237
  71.8055820  53.0394650  13.7177813  68.1553030  59.4039917  11.6981149
  68.3463335  59.0959930  12.5840461  67.7688217  58.6462069  11.2592208
  38.4240127   3.6110154  27.4573398  38.9571285   3.0506429  26.8934226
  39.0468049   3.9860085  28.0800295  20.8315134   8.9462227  59.0086412
  21.2539983   9.1307336  59.8475075  21.2226486   8.1217486  58.7196970
   4.6837118  69.8200369  34.3228245   4.3355489  69.2643595  35.0201297
   5.4731029  70.2096796  34.6986866  15.6580567  63.2264996  35.2572608
  15.9474373  62.5136805  34.6877122  16.4171779  63.4156132  35.8088040
  75.3271341  79.5004034   6.2853140  75.2992010  78.6008406   6.6112626
  75.3407860  80.0410175   7.0751137  43.0398941  79.0152407  18.0603898
  42.6993132  79.1980743  17.1847129  43.8329744  79.5473146  18.1248403
  46.3666296  65.1613045  68.3862448  47.0967817  65.6390953  68.7797260
  46.1605549  64.4743395  69.0201521  65.3290987  56.6138983  23.5384679
  64.7592974  55.8736420  23.7472224  64.7728014  57.3842859  23.6536431
  56.4341927   9.6692079  49.0841532  56.3926792   9.4653797  48.1498289
  56.1542606  10.5826879  49.1426897   8.2664603  63.2719946  22.3926806
   8.6577183  62.7414227  23.0866885   7.4397588  63.5801220  22.7639675
   7.4460256  42.3576307  43.6058474   7.0273155  42.3553944  44.4666100
   8.3188653  41.9975758  43.7631512   5.3267717  48.9163446  29.5094848
   5.1866353  49.4640827  30.2818680   5.7432830  49.4993591  28.8747859
  62.5281763  26.5127373  60.9320879  63.2513046  26.2015057  61.4765644
  61.7712831  26.0062575  61.2267494  46.9903755  22.1558237  60.8733416
  47.1549463  21.2137604  60.9141254  46.8634510  22.3366904  59.9419928
   3.6134565  63.4322071  27.6780272   3.8170460  63.4507275  26.7429113
   3.9838374  64.2459249  28.0199528   1.7465010  26.2924075  13.9767146
   1.2671658  26.9336820  14.5013452   2.6641980  26.5506864  14.0624821
  44.4088078  37.8395343  16.2005103  44.3737173  37.5450802  15.2904010
  43.4944105  37.8533101  16.4832139   5.8945447  21.4839602   8.5982102
   5.0937605  21.3498092   9.1051430   6.2680340  20.6076765   8.5040569
   5.5108619  42.6318741  36.5357256   5.6252223  43.5321808  36.8400240
   5.7666075  42.0919657  37.2836065   4.6844354   3.6006999  66.7455149
   5.3065741   4.1900066  67.1720028   4.8913622   2.7362227  67.1006060
   1.0727575  60.0634527   0.7564707   1.5742910  60.8724880   0.8572499
   1.3778129  59.6942043  -0.0722805  43.1065941  63.1504059  66.5897131
  43.5240269  62.9550362  67.4286461  42.4836969  63.8493061  66.7891312
   5.6972003  37.5676918  65.3519249   4.8514783  38.0114269  65.4158497
   6.0883540  37.9121971  64.5490837  19.0704417  53.8010931   0.2046908
  19.6511185  54.3399239   0.7420064  18.4854925  54.4289303  -0.2194412
  43.2649231  67.2832298  57.8591347  43.4993458  66.4274359  57.5001192
  43.3760738  67.1848679  58.8047600  41.1204433  20.4925084  45.0111866
  40.2455282  20.4655886  45.3985214  41.7072630  20.6317472  45.7544851
   5.2623522  42.2087336   6.7714483   5.5718660  43.0111980   6.3513488
   6.0097253  41.6122341   6.7283946  64.5671415  75.3398180  58.3342743
  65.1952028  74.6860647  58.0270576  63.8992596  75.3707552  57.6492882
  37.0390320   7.6557690  24.3755269  37.9767728   7.8447920  24.3416810
  36.6266322   8.4150648  23.9636683  20.6052852  40.6596327  45.7144785
  21.1707401  41.4046907  45.9179068  19.8151517  41.0527802  45.3438616
  32.5323272  42.3796463   8.8820976  31.8904185  41.8163109   9.3143475
  32.6658487  43.1037617   9.4937050  32.1372938  39.7037148  25.8640289
  31.5632200  39.3512273  25.1840091  31.6776085  40.4784298  26.1876607
  17.3526311  70.4454756  27.5270820  17.0003796  71.0684919  26.8914747
  17.0380759  70.7631350  28.3734727  20.1721430  76.8630791  68.5129261
  20.1443934  76.7584848  67.5618649  19.5378673  76.2264490  68.8425064
  78.7462282  10.6569147  68.5553932  79.6922493  10.5128562  68.5783195
  78.6280632  11.5314031  68.9262533  74.2841911  19.0384281  63.1810427
  73.4266615  18.9799201  63.6022902  74.1576719  18.6334765  62.3229980
   7.2238433  13.8815176  55.0666714   6.3541597  14.2785168  55.0189734
   7.4718219  13.9579618  55.9880257  15.0687742  72.9965448  20.5764151
  14.8037279  72.1320248  20.2624345  14.9879766  72.9407024  21.5285611
  33.7716794  31.4191937  58.6983871  33.9169574  30.4731274  58.7077236
  33.0547023  31.5452933  58.0768776  23.3964300  60.2833986  23.0022240
  22.7289391  60.3334427  23.6864662  23.1380033  59.5308733  22.4701047
  17.1452248  13.2970273  34.9134946  17.2272742  13.0464816  35.8336711
  17.5395811  14.1679406  34.8663139  39.0555048  48.3275318   2.9238570
  38.3478570  48.9719963   2.9122424  38.6335659  47.5134373   3.1985328
   0.1206906  34.3377709  12.4139416  -0.3748400  34.0493798  11.6474485
   0.4529782  35.2024722  12.1728837  16.9130874  43.5142946   7.0608068
  17.7911186  43.2651567   6.7723244  16.4269400  43.6607790   6.2493664
  15.9116447  33.3097672  29.2901206  15.4944205  32.7144837  28.6673903
  16.6301560  32.7998900  29.6642828  51.8158150  49.0787315  12.0559633
  52.7583075  49.0747738  11.8888450  51.5484285  48.1667948  11.9414663
  78.0784559  57.6547718  15.4436910  77.4043655  57.0230865  15.1930821
  78.7221718  57.6112986  14.7366059   7.6315689  25.4543066  13.7431979
   8.1988692  24.8679900  13.2425654   7.4999273  25.0050569  14.5781088
  64.8731756  33.0540037   3.1532127  65.6066608  32.6907492   2.6569539
  64.7224903  32.4213624   3.8555589  68.8427114  32.0979476  47.1254253
  68.3547354  32.8379512  47.4866867  68.4321451  31.3266206  47.5162172
  12.0821285  43.5496569  39.9942040  11.3353670  43.1178856  39.5792890
  12.8320527  42.9983902  39.7706985  76.2562513  23.9353299   6.5821290
  75.9495735  23.5959935   7.4229813  75.5019283  23.8484573   5.9993029
  26.1659527  42.7443266   6.0802454  25.5279016  43.4097719   6.3377500
  26.7186189  43.1806326   5.4318404  41.7900610  75.2080107  64.1453028
  41.8714142  74.3306255  64.5192099  42.4865770  75.2547979  63.4903908
  28.7070203   6.3372648  39.5709896  28.7165213   7.1179998  39.0172791
  28.9119649   6.6627628  40.4475069  75.5848551   2.0979673  62.8271532
  75.4774380   1.1622477  62.6565027  75.6042576   2.4992049  61.9583273
  69.0313339  23.4191155  61.9297457  69.8848581  23.3638072  61.5000057
  68.3997154  23.4041786  61.2106752  48.7314320  78.8434649  66.1615753
  48.7325907  79.6475744  66.6808367  49.1778374  79.0822935  65.3492260
  46.5545416  49.0470791  48.4593105  46.1256027  48.2184124  48.6727428
  46.6873503  49.4731092  49.3061256  75.3457642  53.5145283  53.5461140
  75.1008701  52.6765776  53.1535673  75.3088570  54.1385126  52.8211927
  11.7609739  42.5734138  35.4547977  11.3562441  43.3757210  35.1250553
  12.0159590  42.0926523  34.6673441  31.8861294  58.1530380  33.0979872
  31.8481398  57.1972179  33.1325769  31.7640853  58.3642483  32.1723914
  74.2672825  54.5108557  38.7923050  74.1055155  54.4963646  37.8489852
  74.6444893  53.6522198  38.9838481  57.4302530  54.9565363  55.9972763
  58.1940746  54.3882704  55.8978844  57.4521923  55.2290249  56.9146061
  14.1810310  72.9189014  32.0371890  14.8650658  73.5108376  31.7242336
  13.8598073  72.4849224  31.2468052  16.3070011  52.7273417  29.7913074
  15.8820450  53.4367180  29.3091989  15.9047043  52.7531862  30.6594801
  12.3902142  59.1519499  17.7411282  12.5211120  58.3849335  18.2986081
  12.1416128  59.8493624  18.3477974  28.9406800   3.1373492  39.4702172
  29.6485376   3.6928430  39.1437292  28.2843828   3.7528735  39.7967720
  56.9908476   1.1605332  55.7931423  57.8193521   0.9147657  55.3815413
  56.3452578   0.5718291  55.4021597  32.0635700  38.2579517  17.8952098
  32.5873590  38.0978966  18.6802316  32.2484088  39.1686106  17.6655054
  62.2254229  75.0039816  21.7866993  62.9506588  75.0747108  22.4073911
  62.2020960  74.0767431  21.5502477  29.2388415  32.2191978  63.0300617
  29.6094275  31.4831996  63.5170937  28.4662509  31.8554902  62.5975657
  32.3017216  64.2777061  27.5446081  33.0278993  64.1500950  26.9341898
  32.6411104  63.9755964  28.3870935  79.1709852   5.9058696  63.7981606
  78.9268732   5.4953730  64.6276951  79.7672176   5.2797508  63.3874083
  11.7755580  11.0954964  63.2601976  11.0267615  10.5299520  63.0712652
  11.3909221  11.9580162  63.4162378  29.2150068  70.6933355   1.5019375
  28.5944843  70.2836752   0.8991435  29.2480111  71.6092539   1.2258271
  42.2362518  35.1702476  10.8244300  42.4798012  35.8455849  10.1913154
  41.3293552  35.3729844  11.0539317  29.1289234   5.5895650   3.8937354
  28.7661815   6.2945265   3.3573771  28.4617591   5.4287517   4.5610154
  25.8375525  42.8937101  14.5131588  25.8160472  43.2321024  13.6180282
  25.4080462  42.0401335  14.4569135   9.1841400  35.3865671  66.3728905
  10.0910902  35.3799868  66.0668993   8.8260496  34.5490122  66.0787725
  79.9237776   1.3330241  12.5914490  79.7951508   0.4114402  12.3670173
  79.3546915   1.8085924  11.9862986  36.6329646  76.5586185  10.4835320
  36.8649793  76.1426401  11.3138103  36.2087965  77.3785019  10.7367098
   4.5919296  68.2101965  39.0674543   4.2229044  67.3968410  38.7232089
   4.2171904  68.8960075  38.5147643  30.8039832  30.4136801  66.9940615
  31.6936541  30.5625081  66.6738033  30.8821678  30.4566574  67.9470968
  78.2872486  15.2870953  58.9954281  78.2091284  14.9875927  59.9012041
  78.4547472  16.2267685  59.0674782   9.8925519  43.7331152  27.9259300
   9.9455804  44.5968819  28.3349872   9.0495533  43.3830070  28.2140446
  26.0775924  29.9502707  19.1832232  25.7158065  29.0640807  19.1866434
  26.1293578  30.1842642  18.2565093  20.0173306  65.6663084  20.9615207
  20.8018398  65.3630781  21.4185023  20.3510404  66.2081957  20.2465177
  82.3165607  42.5237751  24.5470834  81.6365528  43.0170059  24.0882373
  82.8352547  42.1244049  23.8487315  26.9926214  67.0260859  34.5793414
  26.2089324  67.2387314  34.0725398  27.3387408  67.8755522  34.8529124
  81.7237663  60.7838106  56.5994167  82.2775364  60.0288105  56.4005518
  82.1839523  61.5274906  56.2103224  67.8588200   1.7030846   4.0803316
  68.5114098   1.1592723   4.5214936  67.2096014   1.0803232   3.7533453
  32.4974537  22.3823500  58.3155584  32.2013426  23.0780649  57.7285910
  31.7371273  22.1930981  58.8653946  32.3277712  14.7434974  42.5449657
  32.1850634  15.1451099  41.6878939  33.2623887  14.5373678  42.5602484
   6.1777729  57.0641661  68.3453131   5.5491400  57.5986671  67.8601742
   5.9859550  57.2448635  69.2655230  53.9370298  50.2800131  65.3986549
  53.9961195  50.6421566  66.2827301  54.4542313  49.4753647  65.4343700
   3.3708316  15.2693617  64.9443245   3.4786615  14.9069667  65.8236837
   2.5769448  15.8012080  65.0001431   0.3472899  23.4413433  51.1464977
   0.4019707  23.0028772  51.9956112  -0.0136837  22.7787042  50.5575705
  64.7132826  42.8567696  63.3861923  65.2814817  42.3868704  62.7758026
  64.9519205  42.5143003  64.2475843  13.4690571  29.8167205  59.5130777
  13.0027449  28.9949608  59.3597889  13.6278427  29.8295403  60.4569292
  26.4654803  48.9359236  14.5073438  26.8859410  49.3595076  13.7589979
  26.2464142  48.0584240  14.1939259  68.3791208  59.5477724  20.0316286
  68.0480337  58.6496639  20.0275588  69.3315077  59.4519424  20.0334334
   0.6454026  61.0189295  35.2818966   1.0918907  61.1148930  36.1231279
   0.8571829  60.1295328  34.9984241  72.4685001  32.4533558   8.8838434
  73.0057478  31.6716862   8.7550551  71.8718576  32.2194314   9.5948482
  64.8802280  48.9454937  47.9214907  65.8119678  48.7365437  47.9880476
  64.8411846  49.6695709  47.2966528  75.4598808  10.3428161  50.4953051
  75.1542091   9.4656754  50.2641773  74.7094250  10.9112763  50.3223848
  76.5206528  28.0443168  51.8674898  75.9453297  28.7258005  51.5199041
  76.0483837  27.6945710  52.6230526  57.4151421  24.9154997  68.4546041
  57.7781820  25.5947924  69.0229321  56.8677139  25.3924370  67.8308392
  69.4253874  44.9268913  50.0463200  68.5442638  44.7236061  49.7324324
  69.4497013  45.8828115  50.0893641   3.3408496  13.5047221  62.8977394
   3.6865449  12.6162636  62.9835892   3.3980995  13.8703382  63.7805080
  42.7827978  75.7945871   9.6725714  43.2817316  76.0738945  10.4402196
  41.8711853  75.8001423   9.9644017   2.8563535  50.7408762  49.2666817
   2.1207947  50.6946325  49.8774529   3.3659720  51.4953327  49.5621777
  15.0141716  70.4941416  19.8130405  14.4663382  70.0710773  19.1518855
  15.5797017  69.7940969  20.1391482   1.5261444  33.2920599  36.3872147
   1.6344617  33.0159116  35.4771352   2.1670799  32.7729177  36.8729353
  40.0721645  63.8767672  34.0506387  39.8919845  63.1675482  33.4335685
  40.6594276  64.4644451  33.5752583  63.0286264  10.9427857  23.3674121
  62.8987646  10.0021577  23.4881902  63.8073254  11.1455774  23.8858128
  49.5787191  20.3321671   7.3488915  49.4154310  20.9929109   8.0219340
  48.7434721  20.2470636   6.8891633  15.2168977  47.1801710  67.5581980
  14.3024373  46.9815588  67.7595615  15.5676281  46.3622618  67.2057152
  21.8112421  61.2171459  25.4745913  22.0290232  60.5132437  26.0855913
  20.8569551  61.1879683  25.4058933  16.7693818  46.8991518  52.7010012
  16.9970429  46.1859369  52.1045685  16.8691206  47.6924896  52.1747875
  51.6353559  52.4303865  52.7875137  52.2703409  52.3855877  53.5023689
  51.9709635  53.1174850  52.2117567  36.9660497  42.3665380  18.7142956
  37.7482176  42.0394230  18.2699490  37.3022580  42.9644680  19.3818843
  18.2489371  56.5117836  30.7869673  18.3545637  56.1191940  29.9203944
  17.3210120  56.3955116  30.9910965  43.1289387  14.0455365  47.4066639
  43.7042141  13.3793581  47.7828169  43.3314991  14.8418462  47.8976727
  41.3448620  71.7370319   1.6176584  42.2570038  71.8261147   1.8938722
  41.3747883  71.8139362   0.6640223  76.3206482  70.7614088   5.5149347
  76.5669107  70.8676291   4.5960745  77.1301222  70.4944992   5.9505314
  80.9910393  69.1208935   4.8782420  81.4683819  68.5790014   4.2499688
  81.6683483  69.4664860   5.4596668  12.5499380  68.8392544  14.6826124
  13.4327400  69.1518211  14.4846332  12.1523285  68.6858845  13.8255155
  81.7658043  52.4225664  46.5476751  81.2297249  52.5238228  47.3341846
  81.2845325  51.7945337  46.0089970  46.5629053  63.8179398  14.0541387
  46.7134094  63.7370586  13.1123114  46.8680763  62.9867268  14.4177091
  54.6167994  21.7569041  44.9785566  54.5976639  21.7829084  44.0218973
  55.5003595  21.4571857  45.1923847  57.9420757  28.2219148   2.3291618
  57.8157854  27.6218104   1.5942074  58.4929800  27.7362132   2.9430237
  83.7357998  77.1874189   9.1628075  84.4814682  76.7413855   9.5643842
  83.1621647  77.4041557   9.8977917  55.7154226  76.4632940  41.6851091
  55.7325363  77.4036884  41.5073490  56.4584637  76.1130905  41.1937046
  75.2433681   3.5081914  33.6568880  74.8340797   3.8304189  34.4599366
  74.9536943   4.1185781  32.9788423   6.5361160  30.7046366  66.6896152
   7.2063339  30.4536080  66.0539865   6.3491857  29.8989224  67.1713972
  23.0206013  29.1630673  14.2895508  22.8675342  28.2524157  14.5415735
  23.2848358  29.5951867  15.1017606  14.2971313  32.0620537  14.7936022
  13.3616889  32.0921969  14.5929277  14.3408644  32.1514320  15.7456160
  23.8123751  35.5531931  31.2502098  23.2300663  35.0963140  31.8571782
  23.2876539  36.2811255  30.9170246  75.7738352  50.2429867  46.4544630
  75.2730179  51.0586834  46.4613628  75.1558399  49.5851898  46.1356926
  66.4294481  46.2950611  46.3578796  66.2208557  46.7067957  45.5193090
  66.3257170  45.3572607  46.1966228   8.8179708  59.3637085   6.6584563
   7.9952246  59.6544027   7.0519263   9.4950038  59.8379612   7.1410978
  70.9701920  27.5444412  47.3574543  70.7162285  28.0934334  48.0993032
  71.9098711  27.6968074  47.2573471  60.3213739  33.6607313  13.1024444
  59.9326944  33.7634158  12.2337592  61.0042715  33.0007577  12.9827929
  37.1495557  58.5347891  57.2984743  36.6961002  59.2677164  57.7149248
  36.4700866  57.8720903  57.1744347  68.4860182  69.1518164  48.7377071
  68.5043001  68.2081413  48.5784197  69.3192101  69.3378305  49.1706276
  28.3892894  42.0786715  28.3136582  28.0333376  42.3564959  27.4696541
  28.0844045  42.7423668  28.9323497  74.6461725  42.2304106  63.7891483
  73.7822437  42.1709776  64.1969728  74.6664906  43.1034756  63.3972597
  57.9458570  23.4875488  44.6339893  58.7635040  23.1621242  45.0105286
  58.0363131  23.3315992  43.6939192  18.9914107  28.3769011  60.0869846
  19.6790695  28.7422848  60.6436253  19.4287074  27.6872611  59.5875835
  26.3248348  50.2518797   8.0949593  25.6010580  50.4463720   7.4995178
  26.0341835  49.4803476   8.5812688  21.8433762  37.3201776  18.0312550
  21.7355704  36.4225054  17.7169442  21.5721846  37.8664565  17.2935092
  12.3256278  55.7186937  13.6533415  12.8841591  56.4457369  13.9284432
  11.9791484  55.3603315  14.4705069  65.7973099  70.3477049  51.7515612
  65.4586411  71.2058401  52.0067739  65.1761818  69.7237110  52.1271467
  50.9466362  48.4420061   7.9587877  51.3701248  47.8841496   8.6112314
  50.1245642  48.7095213   8.3697248  37.9023719  72.5898123  13.9370179
  38.2593274  72.1179819  14.6894741  37.8501153  71.9313574  13.2442391
  22.5097847  45.6663561  22.4614096  22.4568176  46.5645981  22.7878904
  21.6292095  45.3131437  22.5881171  40.8392906  42.2326469  11.8803632
  40.2826452  41.7296219  11.2859344  41.5838242  41.6572094  12.0557940
  31.3529396  19.9682736  33.2816505  31.3985968  19.6980917  32.3645091
  31.6398644  20.8814454  33.2768965  38.0769634  46.8577194  13.9453781
  37.6183200  47.2835016  14.6696639  38.9923716  46.8315458  14.2239010
  22.5474620  69.2669630  13.9425397  21.8926644  69.5446730  14.5831227
  23.3760500  69.2910528  14.4211769  12.8625810  60.3025007  53.4910822
  13.4958816  59.5886993  53.4159088  12.0092654  59.8727083  53.4330702
  52.8058624  63.4207582  65.6136703  52.7523136  64.2576742  66.0751200
  52.9029465  62.7698135  66.3087034  15.7184339  73.0524826   0.5916144
  15.8541346  72.3554611   1.2334749  16.4632869  72.9771566  -0.0048365
  56.5601683  68.8998699   2.0010006  55.7051802  68.7001944   1.6197491
  56.4118481  68.8780403   2.9463878  60.8091497  64.1020584   0.3999336
  61.0379744  64.8532772  -0.1473675  61.2420988  64.2741776   1.2360925
  75.4769802  16.9148397  37.3668647  74.5959568  17.2847939  37.3106289
  75.5992079  16.4595807  36.5337801  81.9878101  57.6648092  11.2426841
  81.1407280  57.3955536  10.8874726  81.7886162  58.4285307  11.7842412
  23.2411766  45.7004166   1.2140028  23.2311535  46.0253334   0.3136920
  22.5834489  45.0050735   1.2250230  23.9257026  77.0084238   5.5168366
  23.1504130  77.3505449   5.0717384  23.9305758  76.0747910   5.3058040
  12.0882142  64.3872976  60.4975700  12.3837972  64.1425371  61.3744688
  11.9176686  63.5528517  60.0607061   0.5650739  59.1938877  16.9606292
   0.8092613  58.4110117  16.4669645   0.0149785  58.8664246  17.6722431
   8.9948761  26.3114429  37.6572418   9.6571672  26.9917822  37.5358391
   8.2993597  26.7404675  38.1556654  80.4120636  58.8926888  16.9675338
  79.5557880  58.5585594  16.7003441  81.0269642  58.4969521  16.3498592
   1.7802234  77.6076555  60.5777502   2.3729715  76.8755388  60.7477140
   2.2365828  78.3719730  60.9295940  24.6920609  53.7096882  23.2607222
  25.6314468  53.7791348  23.4309006  24.5523787  52.7837276  23.0624366
  35.7315421  20.2348280   9.5629150  35.0349569  20.2969146   8.9093506
  36.3947821  20.8578682   9.2659903  60.5923271  24.4714808  66.2983847
  60.1518583  24.0012503  65.5904961  61.4910793  24.1425586  66.2815142
  29.3168831  19.2685616  18.5512185  28.3790565  19.0826356  18.5975122
  29.7183037  18.6211562  19.1308391  42.4800682  46.4923429  20.9193516
  41.6069508  46.7370081  21.2260103  42.6583147  45.6549311  21.3473678
  14.5539224  32.7531075  18.0983055  15.4055417  32.3207021  18.1615531
  13.9254296  32.0348358  18.0254138  18.2284653  40.2146721   3.5314474
  18.6996806  39.8529267   4.2819989  17.3534644  40.4074526   3.8682550
  21.3920212  32.1492457  57.7153444  20.4818058  31.8598151  57.6523352
  21.8465996  31.4199877  58.1369781  59.4607067   7.0664746  60.9717226
  59.0736341   7.5262719  61.7167044  58.7440538   6.9839245  60.3425789
  21.4194274  15.2367401  61.8382978  21.3953161  16.0641384  62.3189831
  20.9048557  14.6332729  62.3742771   9.8971885  11.4482415  51.5297318
   9.4541287  11.2761617  52.3605871  10.7770216  11.0905778  51.6489029
  18.1577265  55.5277443  24.2169523  18.7698829  56.2452126  24.0534425
  17.3053086  55.8758974  23.9554071  79.2256355  47.2878647  47.1139193
  79.8619223  47.4389744  47.8128719  79.6521568  47.6228857  46.3252020
  79.4286728  46.3809013  21.9482088  79.6260262  46.3664007  21.0116863
  78.7286949  45.7368851  22.0554757  66.1085796  19.9206400  65.9773016
  66.1664152  18.9659607  65.9388924  66.1740780  20.1272464  66.9096375
  46.1052513  57.3892450  64.0132380  46.9780779  57.7721834  63.9251518
  46.2138700  56.4793491  63.7366152  27.5925469  77.7204466   8.8538808
  28.0984759  78.5328960   8.8399881  27.6015997  77.4171019   7.9460639
  51.4532757  75.5966711  12.2724497  51.9052219  74.8286486  12.6218998
  51.4793491  75.4784918  11.3229311  64.3311930   3.8130862  19.0060723
  64.6585131   3.4749630  19.8395991  64.9308777   3.4563556  18.3508217
  68.8066864  39.4216943  67.8975248  69.3338394  38.7826252  68.3770370
  69.2721462  40.2502394  68.0119610  13.6667049  53.1901550  51.7917299
  13.6351955  54.0981627  52.0929909  14.5992732  52.9749060  51.7770195
  18.6196744  70.8737278  55.2357864  18.8072419  70.8355618  54.2979193
  18.0018008  70.1582098  55.3857803  20.5392718  15.1950753  42.5858164
  21.1107111  14.4613230  42.3593283  19.6550930  14.8302162  42.5492620
  31.2418222   0.5693709  68.8378716  31.6051388  -0.0831180  69.4366121
  31.2870932   0.1551718  67.9761171   0.9268375  22.5088835  11.7780268
   0.7952312  21.6031146  12.0581961   0.4403759  22.5785995  10.9566092
  25.6724811  32.3549414  51.0032368  24.7389746  32.1535468  51.0683680
  25.9817863  31.8225765  50.2703285  64.7252131  12.8509760  17.3649085
  65.1818275  12.2262216  16.8015099  65.1541471  13.6887252  17.1904838
  23.2128358  57.6590586   3.9689502  23.8714194  57.7225208   4.6606657
  22.4995708  57.1566296   4.3627131  16.1533082  69.7341490  10.2057648
  16.9055605  70.0936699  10.6759703  16.2812531  68.7860966  10.2383816
   2.0827888  58.9578199  59.6693993   1.3272423  58.5799980  59.2192554
   1.9362417  59.9029732  59.6313810  11.6332233  31.4683318  65.0807190
  11.3019812  32.3207402  65.3633976  11.9556439  31.0584760  65.8833981
  21.8551993  52.1951866  55.5730867  22.2430611  51.6987705  54.8524189
  21.5810609  53.0212259  55.1746702  30.2357459  58.5688448  53.7808514
  30.4114223  57.6578808  54.0164518  29.6540737  58.5122776  53.0227661
  75.5086899  72.5574255  14.8901856  75.5304241  72.6664257  15.8409107
  74.7186279  72.0425272  14.7261322  30.7048154  78.7278318  24.1404700
  31.0452557  79.5396566  24.5163393  30.0455260  78.4314013  24.7679234
   4.9624079  48.6908627  12.3847342   4.7824636  47.9032278  11.8714273
   4.3469459  48.6456871  13.1164432  19.1637504  65.1527834   8.5447919
  19.8852909  64.8489380   7.9940754  19.5367360  65.8738327   9.0519440
   6.0858315  72.5298738  15.6798351   6.0085428  72.4209595  14.7319973
   6.2776780  71.6510344  16.0070527  67.7036858   6.9664645  31.4043212
  68.5840082   6.8448567  31.7599535  67.8441286   7.1546906  30.4763770
  11.8154335  53.9401531  68.3232689  10.9233928  53.6823893  68.0907774
  11.8191469  54.8935509  68.2381058  83.7192535  47.7106285  62.2813797
  83.0497074  47.5092030  61.6276503  84.4622421  48.0336189  61.7715979
  39.1381001  23.4484768  16.2919819  39.4098425  22.7958846  15.6466043
  38.3420753  23.0848527  16.6797340  76.4000273  26.0241556  57.2526932
  75.9049082  26.6072989  57.8280497  77.2616863  25.9567237  57.6640654
   7.9301542  45.3626299  35.5690813   7.0909268  45.3798914  36.0291147
   7.8081417  44.7177267  34.8723412  49.3949223   2.0699909  28.9840627
  49.7243023   2.5693876  29.7312880  49.4062281   1.1599191  29.2804956
  18.8183594  64.2047024  29.4545484  17.8894615  64.1407776  29.2325258
  19.2705202  64.1431522  28.6131263  29.8839092  25.3380823  17.5050294
  30.2873445  25.0006676  16.7052650  29.9078965  26.2894630  17.4024081
  30.0296378  67.2206926  41.6739321  29.3446136  66.9193077  41.0771561
  30.4209995  66.4164972  42.0150042  42.1756840  75.2719879   0.3424883
  41.9662237  76.1867666   0.1539750  43.1042957  75.2818012   0.5744671
   8.2923967  37.5058508  22.5318623   7.4684429  37.1798801  22.8939056
   8.8107061  36.7178345  22.3687100  13.9208257  68.7516212  37.4710011
  14.5697558  68.1516981  37.1032834  14.4317448  69.3572712  38.0080104
  70.6698084  54.0484571  61.0285282  70.4926109  53.7592745  60.1334286
  70.9562445  53.2566595  61.4837646  75.0423813   1.0088597  47.3241425
  75.9189892   1.0427151  47.7070761  75.0406122   0.2077097  46.8003225
  14.1301548  73.8065100  52.8470182  14.5417428  73.4222794  53.6210966
  14.2372644  74.7506571  52.9625463  49.9807167  65.8479309  19.4439387
  50.3961945  65.8050585  20.3052020  49.0430832  65.7885933  19.6271145
  20.6057672   0.4808564  10.6577599  20.2874259  -0.4163556  10.5582154
  21.5402822   0.3844590  10.8411098  45.1274014  76.9796371  39.4146490
  45.2760696  76.6586065  40.3040695  45.4645395  77.8754520  39.4238687
  10.9545100  41.1578560  27.5351644  10.9032428  42.0560217  27.8621340
  10.0936806  40.9936237  27.1501565  41.3538074  65.1148272  15.7688749
  41.9769669  65.3960085  15.0989211  41.0009432  64.2894650  15.4364550
  68.7029934  72.9622841  57.1890736  69.5600176  73.3518267  57.3622894
  68.8197947  72.0317030  57.3803902  81.1024380  73.8334608  35.7672524
  81.3132763  73.9976311  36.6863966  80.2155304  74.1771173  35.6598854
  54.1469765  33.1269312  63.0125141  54.1182470  32.9104686  62.0805502
  53.4229612  33.7402773  63.1383705  77.6041126   2.2339009  33.6106014
  76.8423939   2.7975282  33.4751558  78.3146811   2.6757267  33.1457210
  76.1312103   9.5043504   5.8024985  76.8361139   9.0013343   5.3946745
  76.1266088  10.3367734   5.3299707  72.9871702  65.1651859  20.6360412
  73.5770369  64.6983862  21.2279749  72.9864311  66.0659599  20.9598184
  75.6272364  65.1987553  62.6679134  76.5764284  65.3106403  62.7203321
  75.2823114  65.7450104  63.3742142  77.7070093   4.3164131  52.4775934
  76.8215990   4.4297385  52.8231812  78.1001997   5.1871717  52.5360250
   2.3051134  17.4467814  10.7489228   2.5233543  16.5158987  10.7943249
   2.9103121  17.8032327  10.0986087  45.5115855  42.2565082   0.1883853
  45.6393397  43.2050087   0.1723493  44.6472955  42.1246245  -0.2012860
  82.8585529  37.2106433   5.9540057  83.3520603  36.4674735   6.3009644
  81.9852638  37.1168900   6.3345581  61.3853407  75.3672934  60.0559711
  60.8361530  76.0269880  59.6323776  61.8081093  74.9064207  59.3313360
  23.7235928  19.3839490  17.1498561  23.5464907  18.4472728  17.0632398
  22.9472375  19.7351754  17.5859141  15.7141066  40.6517649   4.5830089
  14.9170506  40.7042265   5.1104391  15.5080628  41.1435127   3.7880474
  78.9227200  18.0134284  20.3437448  79.5879650  17.3272824  20.3974676
  78.3549118  17.8561080  21.0981131  48.0505610  36.0072517   4.7356120
  48.7622309  35.5942822   5.2247071  48.3383131  36.9117522   4.6118826
   9.2644370  61.4180851  12.2343528   8.5439223  60.8349323  11.9955635
   9.8108774  61.4574766  11.4494431  79.0884638  32.9795623  44.9568987
  78.7358379  32.1757650  44.5750666  79.5102167  33.4279656  44.2238951
   3.4033504  52.6022291   3.3622381   2.8841022  52.8076267   2.5847900
   3.9092967  51.8282795   3.1147400  52.9380035  73.5439110  61.5716076
  53.7680244  73.0915880  61.7222786  52.2854662  72.8441477  61.5439892
  45.3034353  38.5234451  12.8215814  44.7452641  39.2438984  13.1142080
  44.8179865  37.7330899  13.0580366   1.6304789  30.7814169  30.7477832
   2.1939927  30.6501794  29.9852467   0.7425540  30.6518698  30.4145575
   0.6975918  44.1180182  23.1894088   0.6925901  43.1668282  23.2963610
   0.9803345  44.4532251  24.0402460  63.2270098  18.3469605  49.6472454
  63.6483479  18.6523938  50.4506207  63.9418030  17.9815865  49.1259003
  20.6805015  12.6021314  54.8242950  20.1998353  12.1485353  54.1318798
  20.8237815  11.9334078  55.4940081  15.2067387  75.5840015  48.3653784
  15.8404589  75.2938795  47.7092838  14.9877441  76.4793777  48.1073570
  66.5802201  19.9548457  68.5415354  67.0980152  20.6975053  68.8523078
  67.0625075  19.1843579  68.8415007  10.6651759   3.0506533  50.1108980
  11.5633440   2.7583322  49.9557400  10.6945825   3.9976397  49.9745750
  48.9237022  63.2368946  55.0923014  48.3938837  63.7640476  54.4942808
  49.8225784  63.5248375  54.9331284  21.3098168  78.9579821  29.6098828
  21.9379568  78.8229847  30.3194237  21.6148496  78.3836985  28.9074683
  32.7315283  44.0381765  16.5147614  32.6296067  43.7034321  17.4057102
  32.2850037  44.8847914  16.5244460  36.2755060  21.1602139  29.8061895
  35.5993295  21.1513257  30.4836392  36.0375476  21.8943238  29.2398930
  49.7608185  58.2024765   1.2826960  49.0936470  57.6775551   0.8404623
  49.4254160  58.3163452   2.1719491  33.3812094  36.3703108  67.9140377
  33.0098581  35.8077335  67.2344542  32.6546836  36.5295672  68.5165548
  48.7885094   1.4656943   0.4429771  49.4168139   2.1807891   0.5435050
  49.0341949   1.0450616  -0.3810006   1.4413646  70.9640503  36.2090993
   1.3811997  71.8837452  35.9506965   0.6796949  70.8229256  36.7713928
  17.5884581   9.3482536  63.4321117  17.4768353   8.9344829  64.2880106
  18.4391940   9.0357852  63.1241417  19.8926210   5.3679484  67.1064138
  20.8204985   5.4322004  67.3325682  19.4466329   5.2766871  67.9484320
  11.2357366  30.6914210  57.9273844  11.9502902  30.4965305  58.5337353
  11.6648400  30.8008385  57.0787764  68.0356169  35.5480027  65.6306887
  67.8207922  34.8453093  66.2441254  68.6328220  36.1163163  66.1171055
  37.8066516  44.5502949   9.4961709  37.4396563  43.6908913   9.2888880
  37.6315856  44.6665859  10.4300129  39.0725231  35.0194550   9.5400560
  38.2125926  35.4322433   9.6197903  38.9465737  34.1351938   9.8842227
   6.7980820   8.0773515   7.7180439   7.6416242   8.3697146   8.0632859
   6.3368374   8.8861728   7.4960226  65.0249386  75.7727861  65.0663137
  65.5110407  74.9936247  64.7964144  64.1482782  75.4485941  65.2727222
  23.9207864  66.9569921  20.5665684  24.2150259  66.7439890  19.6809709
  24.7290063  67.0690489  21.0670257  21.3599753  64.0194654   7.1200168
  21.7530394  63.4187698   7.7531815  20.7697701  63.4706211   6.6036248
  21.7333388  58.9335108  34.5110202  22.0755506  58.9165545  33.6172438
  21.2148476  58.1322384  34.5842123   9.5677674  47.6062441  12.6428235
   8.9682502  47.0939112  12.1003044  10.4025054  47.1418190  12.5815535
  17.8246701  24.5971775  64.1142893  18.5492229  25.1159239  63.7647820
  17.7743292  23.8359880  63.5361147  33.3945751  71.8602657  16.8793547
  33.4677148  72.7534056  17.2157872  34.1558599  71.7562628  16.3085103
  84.3511530  84.3511530  84.3511530 109.4712190 109.4712190 109.4712190
